=========================================
SLURM_JOB_ID = 63601025
SLURM_JOB_NODELIST = lnode49
SLURM_GPUS = 
SLURM_CPUS_ON_NODE = 8
SLURM_JOB_PARTITION = lenovo
SLURM_TASK_PID = 75688
CUDA_VISIBLE_DEVICES = 
==========================================
 running on    8 total cores
 distrk:  each k-point on    8 cores,    1 groups
 distr:  one band on    4 cores,    2 groups
 using from now: INCAR     
 vasp.5.4.4.18Apr17-6-g9f103f2a35 (build Apr 28 2018 00:24:27) complex          
  
 POSCAR found type information on POSCAR  Ni O 
 POSCAR found :  2 types and      32 ions
 scaLAPACK will be used

 ----------------------------------------------------------------------------- 
|                                                                             |
|  ADVICE TO THIS USER RUNNING 'VASP/VAMP'   (HEAR YOUR MASTER'S VOICE ...):  |
|                                                                             |
|      You have a (more or less) 'large supercell' and for larger cells       |
|      it might be more efficient to use real space projection opertators     |
|      So try LREAL= Auto  in the INCAR   file.                               |
|      Mind:          For very  accurate calculation you might also keep the  |
|      reciprocal projection scheme          (i.e. LREAL=.FALSE.)             |
|                                                                             |
 ----------------------------------------------------------------------------- 

 LDA part: xc-table for Pade appr. of Perdew
 POSCAR, INCAR and KPOINTS ok, starting setup
 FFT: planning ...
 WAVECAR not read
 entering main loop
       N       E                     dE             d eps       ncg     rms          rms(c)
DAV:   1     0.531684157420E+04    0.53168E+04   -0.18084E+05 10080   0.187E+03
DAV:   2     0.423259218320E+03   -0.48936E+04   -0.46255E+04  8824   0.640E+02
DAV:   3    -0.163233355310E+03   -0.58649E+03   -0.54349E+03  9456   0.235E+02
DAV:   4    -0.195890141964E+03   -0.32657E+02   -0.31699E+02  9880   0.510E+01
DAV:   5    -0.196630856713E+03   -0.74071E+00   -0.73508E+00  9592   0.857E+00    0.611E+01
DAV:   6    -0.176612135361E+03    0.20019E+02   -0.26869E+02 11308   0.791E+01    0.707E+01
DAV:   7    -0.160891346855E+03    0.15721E+02   -0.58340E+01 10624   0.510E+01    0.296E+01
DAV:   8    -0.161172839379E+03   -0.28149E+00   -0.10323E+01  9592   0.728E+00    0.147E+01
DAV:   9    -0.161113422831E+03    0.59417E-01   -0.22550E-01 10296   0.220E+00    0.255E+00
DAV:  10    -0.161112978930E+03    0.44390E-03   -0.11122E-01  9672   0.142E+00    0.123E+00
DAV:  11    -0.161114444137E+03   -0.14652E-02   -0.87214E-03 11280   0.391E-01    0.833E-01
DAV:  12    -0.161116779507E+03   -0.23354E-02   -0.87722E-03 11440   0.431E-01    0.345E-01
DAV:  13    -0.161119735940E+03   -0.29564E-02   -0.15960E-03 10144   0.121E-01    0.194E-01
DAV:  14    -0.161120459598E+03   -0.72366E-03   -0.56991E-04 10856   0.104E-01    0.746E-02
DAV:  15    -0.161120563557E+03   -0.10396E-03   -0.13365E-04 10528   0.400E-02    0.368E-02
DAV:  16    -0.161120587673E+03   -0.24116E-04   -0.26937E-05 10288   0.239E-02    0.124E-02
DAV:  17    -0.161120594919E+03   -0.72464E-05   -0.66466E-06  7592   0.978E-03    0.363E-03
DAV:  18    -0.161120595051E+03   -0.13197E-06   -0.40161E-07  5120   0.316E-03
   1 F= -.16112060E+03 E0= -.16088288E+03  d E =-.475421E+00  mag=    12.2270
 writing wavefunctions
