       N       E                     dE             d eps       ncg     rms          rms(c)
DAV:   1     0.441686732796E+03    0.44169E+03   -0.17811E+04 21076   0.314E+03
DAV:   2     0.467840602779E+02   -0.39490E+03   -0.37264E+03 28936   0.393E+02
DAV:   3    -0.263416672048E+02   -0.73126E+02   -0.72122E+02 29640   0.248E+02
DAV:   4    -0.316947727550E+02   -0.53531E+01   -0.52397E+01 33872   0.535E+01
DAV:   5    -0.322371542304E+02   -0.54238E+00   -0.53540E+00 34248   0.155E+01    0.193E+01
DAV:   6    -0.384517800370E+02   -0.62146E+01   -0.11332E+02 29868   0.108E+02    0.235E+01
DAV:   7    -0.387511904750E+02   -0.29941E+00   -0.16038E+01 30448   0.552E+01    0.111E+01
DAV:   8    -0.374681443742E+02    0.12830E+01   -0.46108E+00 30628   0.463E+01    0.486E+00
DAV:   9    -0.376199730814E+02   -0.15183E+00   -0.60035E+00 32672   0.220E+01    0.545E+00
DAV:  10    -0.374365511553E+02    0.18342E+00   -0.28708E+00 30996   0.131E+01    0.216E+00
DAV:  11    -0.374737152085E+02   -0.37164E-01   -0.28456E-01 36552   0.464E+00    0.169E+00
DAV:  12    -0.374684742613E+02    0.52409E-02   -0.53184E-02 33120   0.192E+00    0.103E+00
DAV:  13    -0.374609984259E+02    0.74758E-02   -0.28847E-02 34416   0.146E+00    0.633E-01
DAV:  14    -0.374580345368E+02    0.29639E-02   -0.14135E-02 30896   0.836E-01    0.307E-01
DAV:  15    -0.374575495812E+02    0.48496E-03   -0.51880E-03 32624   0.559E-01    0.100E-01
DAV:  16    -0.374576086207E+02   -0.59040E-04   -0.50925E-04 36996   0.168E-01    0.686E-02
DAV:  17    -0.374577400708E+02   -0.13145E-03   -0.74014E-04 28156   0.208E-01    0.857E-02
DAV:  18    -0.374576813098E+02    0.58761E-04   -0.21210E-04 32296   0.157E-01    0.308E-02
DAV:  19    -0.374576544889E+02    0.26821E-04   -0.51132E-05 28092   0.791E-02    0.122E-02
DAV:  20    -0.374576544100E+02    0.78944E-07   -0.74188E-06 19856   0.348E-02
   1 F= -.37457654E+02 E0= -.37457654E+02  d E =0.000000E+00  mag=    -0.0002
