 vasp.5.4.4.18Apr17-6-g9f103f2a35 (build Apr 28 2018 00:24:27) complex          
  
 executed on             LinuxIFC date 2021.03.25  02:01:04
 running on    8 total cores
 distrk:  each k-point on    8 cores,    1 groups
 distr:  one band on NCORES_PER_BAND=   8 cores,    1 groups


--------------------------------------------------------------------------------------------------------


 INCAR:
 POTCAR:    PAW_PBE Mn 06Sep2000                  
 POTCAR:    PAW_PBE Bi 08Apr2002                  

 ----------------------------------------------------------------------------- 
|                                                                             |
|           W    W    AA    RRRRR   N    N  II  N    N   GGGG   !!!           |
|           W    W   A  A   R    R  NN   N  II  NN   N  G    G  !!!           |
|           W    W  A    A  R    R  N N  N  II  N N  N  G       !!!           |
|           W WW W  AAAAAA  RRRRR   N  N N  II  N  N N  G  GGG   !            |
|           WW  WW  A    A  R   R   N   NN  II  N   NN  G    G                |
|           W    W  A    A  R    R  N    N  II  N    N   GGGG   !!!           |
|                                                                             |
|      For optimal performance we recommend to set                            |
|        NCORE= 4 - approx SQRT( number of cores)                             |
|      NCORE specifies how many cores store one orbital (NPAR=cpu/NCORE).     |
|      This setting can  greatly improve the performance of VASP for DFT.     |
|      The default,   NCORE=1            might be grossly inefficient         |
|      on modern multi-core architectures or massively parallel machines.     |
|      Do your own testing !!!!                                               |
|      Unfortunately you need to use the default for GW and RPA calculations. |
|      (for HF NCORE is supported but not extensively tested yet)             |
|                                                                             |
 ----------------------------------------------------------------------------- 

 POTCAR:    PAW_PBE Mn 06Sep2000                  
   SHA256 =  791c87526310ff945dc83749a51ee60ee299d345ff72743aeb14609b9ed68bfc Mn
   COPYR  = (c) Copyright 06Sep2000 Georg Kresse                                
   COPYR  = This file is part of the software VASP. Any use, copying, and all ot
   COPYR  = If you do not have a valid VASP license, you may not use, copy or di
   VRHFIN =Mn: d6 s1                                                            
   LEXCH  = PE                                                                  
   EATOM  =   416.7541 eV,   30.6306 Ry                                         
                                                                                
   TITEL  = PAW_PBE Mn 06Sep2000                                                
   LULTRA =        F    use ultrasoft PP ?                                      
   IUNSCR =        1    unscreen: 0-lin 1-nonlin 2-no                           
   RPACOR =    2.000    partial core radius                                     
   POMASS =   54.938; ZVAL   =    7.000    mass and valenz                      
   RCORE  =    2.300    outmost cutoff radius                                   
   RWIGS  =    2.500; RWIGS  =    1.323    wigner-seitz radius (au A)           
   ENMAX  =  269.864; ENMIN  =  202.398 eV                                      
   RCLOC  =    1.725    cutoff for local pot                                    
   LCOR   =        T    correct aug charges                                     
   LPAW   =        T    paw PP                                                  
   EAUG   =  500.711                                                            
   DEXC   =    0.000                                                            
   RMAX   =    2.343    core radius for proj-oper                               
   RAUG   =    1.300    factor for augmentation sphere                          
   RDEP   =    2.338    radius for radial grids                                 
   RDEPT  =    1.911    core radius for aug-charge                              
                                                                                
   Atomic configuration                                                         
    9 entries                                                                   
     n  l   j            E        occ.                                          
     1  0  0.50     -6424.8288   2.0000                                         
     2  0  0.50      -739.1154   2.0000                                         
     2  1  1.50      -625.3949   6.0000                                         
     3  0  0.50       -81.6100   2.0000                                         
     3  1  1.50       -50.4667   6.0000                                         
     3  2  2.50        -3.3745   6.0000                                         
     4  0  0.50        -4.1331   1.0000                                         
     4  1  0.50        -4.0817   0.0000                                         
     4  3  2.50        -1.3606   0.0000                                         
   Description                                                                  
     l       E           TYP  RCUT    TYP  RCUT                                 
     2     -3.3744664     23  2.300                                             
     2     -4.7350490     23  2.300                                             
     0     -4.1331408     23  2.300                                             
     0      7.6656614     23  2.300                                             
     1     -2.7211652     23  2.300                                             
     1     20.4087390     23  2.300                                             
  local pseudopotential read in
  partial core-charges read in
  partial kinetic energy density read in
  atomic valenz-charges read in
  non local Contribution for L=           2  read in
    real space projection operators read in
  non local Contribution for L=           2  read in
    real space projection operators read in
  non local Contribution for L=           0  read in
    real space projection operators read in
  non local Contribution for L=           0  read in
    real space projection operators read in
  non local Contribution for L=           1  read in
    real space projection operators read in
  non local Contribution for L=           1  read in
    real space projection operators read in
    PAW grid and wavefunctions read in
 
   number of l-projection  operators is LMAX  =           6
   number of lm-projection operators is LMMAX =          18
 
 POTCAR:    PAW_PBE Bi 08Apr2002                  
   SHA256 =  d6b6753ed5db3f0e277fb15e6dbb6699c4bc829850a481068e9e7236faeca489 Bi
   COPYR  = (c) Copyright 08Apr2002 Georg Kresse                                
   COPYR  = This file is part of the software VASP. Any use, copying, and all ot
   COPYR  = If you do not have a valid VASP license, you may not use, copy or di
   VRHFIN =Bi:                                                                  
   LEXCH  = PE                                                                  
   EATOM  =   150.8133 eV,   11.0845 Ry                                         
                                                                                
   TITEL  = PAW_PBE Bi 08Apr2002                                                
   LULTRA =        F    use ultrasoft PP ?                                      
   IUNSCR =        1    unscreen: 0-lin 1-nonlin 2-no                           
   RPACOR =    2.200    partial core radius                                     
   POMASS =  208.980; ZVAL   =    5.000    mass and valenz                      
   RCORE  =    3.000    outmost cutoff radius                                   
   RWIGS  =    3.090; RWIGS  =    1.635    wigner-seitz radius (au A)           
   ENMAX  =  105.037; ENMIN  =   78.777 eV                                      
   ICORE  =        3    local potential                                         
   LCOR   =        T    correct aug charges                                     
   LPAW   =        T    paw PP                                                  
   EAUG   =  265.427                                                            
   DEXC   =    0.000                                                            
   RMAX   =    3.067    core radius for proj-oper                               
   RAUG   =    1.300    factor for augmentation sphere                          
   RDEP   =    3.012    radius for radial grids                                 
   RDEPT  =    2.604    core radius for aug-charge                              
                                                                                
   Atomic configuration                                                         
   17 entries                                                                   
     n  l   j            E        occ.                                          
     1  0  0.50    -90639.6582   2.0000                                         
     2  0  0.50    -16282.4667   2.0000                                         
     2  1  1.50    -13922.8287   6.0000                                         
     3  0  0.50     -3930.4763   2.0000                                         
     3  1  1.50     -3256.7013   6.0000                                         
     3  2  2.50     -2581.6169  10.0000                                         
     4  0  0.50      -902.2614   2.0000                                         
     4  1  1.50      -681.5915   6.0000                                         
     4  2  2.50      -429.8249  10.0000                                         
     4  3  3.50      -152.6004  14.0000                                         
     5  0  0.50      -157.7156   2.0000                                         
     5  1  1.50       -95.8054   6.0000                                         
     5  2  2.50       -27.0806  10.0000                                         
     6  0  0.50       -14.4732   2.0000                                         
     6  1  1.50        -4.5702   3.0000                                         
     6  2  2.50        -2.7212   0.0000                                         
     5  3  2.50        -2.7212   0.0000                                         
   Description                                                                  
     l       E           TYP  RCUT    TYP  RCUT                                 
     0    -14.4732299     23  3.000                                             
     0    -12.2452434     23  3.000                                             
     1     -4.5701666     23  3.000                                             
     1    -13.6058260     23  3.000                                             
     2     -2.7211652     23  3.000                                             
     3     -1.3605826      7  3.000                                             
  local pseudopotential read in
  partial core-charges read in
  partial kinetic energy density read in
  kinetic energy density of atom read in
  atomic valenz-charges read in
  non local Contribution for L=           0  read in
    real space projection operators read in
  non local Contribution for L=           0  read in
    real space projection operators read in
  non local Contribution for L=           1  read in
    real space projection operators read in
  non local Contribution for L=           1  read in
    real space projection operators read in
  non local Contribution for L=           2  read in
    real space projection operators read in
    PAW grid and wavefunctions read in
 
   number of l-projection  operators is LMAX  =           5
   number of lm-projection operators is LMMAX =          13
 
  PAW_PBE Mn 06Sep2000                  :
 energy of atom  1       EATOM= -416.7541
 kinetic energy error for atom=    0.0024 (will be added to EATOM!!)
  PAW_PBE Bi 08Apr2002                  :
 energy of atom  2       EATOM= -150.8133
 kinetic energy error for atom=    0.0001 (will be added to EATOM!!)
 
 
 POSCAR: Mn1 Bi1 str #: 8                        
  positions in direct lattice
  No initial velocities read in
 exchange correlation table for  LEXCH =        8
   RHO(1)=    0.500       N(1)  =     2000
   RHO(2)=  100.500       N(2)  =     4000
 


--------------------------------------------------------------------------------------------------------


 ion  position               nearest neighbor table
   1  1.000  0.000  0.125-   8 2.76   8 2.76   8 2.76   7 2.76
   2  0.333  0.333  0.292-   9 2.76   9 2.76   9 2.76   8 2.76
   3  0.667  0.667  0.458-  10 2.76  10 2.76  10 2.76   9 2.76
   4  1.000  0.000  0.625-  11 2.76  11 2.76  11 2.76  10 2.76
   5  0.333  0.333  0.792-  12 2.76  12 2.76  12 2.76  11 2.76
   6  0.667  0.667  0.958-   7 2.76   7 2.76   7 2.76  12 2.76
   7  0.000  0.000  0.000-   6 2.76   6 2.76   6 2.76   1 2.76
   8  0.333  0.333  0.167-   1 2.76   1 2.76   1 2.76   2 2.76
   9  0.667  0.667  0.333-   2 2.76   2 2.76   2 2.76   3 2.76
  10  0.000  0.000  0.500-   3 2.76   3 2.76   3 2.76   4 2.76
  11  0.333  0.333  0.667-   4 2.76   4 2.76   4 2.76   5 2.76
  12  0.667  0.667  0.833-   5 2.76   5 2.76   5 2.76   6 2.76
 

IMPORTANT INFORMATION: All symmetrisations will be switched off!
NOSYMM: (Re-)initialisation of all symmetry stuff for point group C_1.

 
 

Automatic generation of k-mesh.
 generate k-points for:    4    4    1
Space group operators:
 irot       det(A)        alpha          n_x          n_y          n_z        tau_x        tau_y        tau_z
    1     1.000000     0.000001     1.000000     0.000000     0.000000     0.000000     0.000000     0.000000
 
 Subroutine IBZKPT returns following result:
 ===========================================
 
 Found     10 irreducible k-points:
 
 Following reciprocal coordinates:
            Coordinates               Weight
  0.000000  0.000000  0.000000      1.000000
  0.250000 -0.000000  0.000000      2.000000
  0.500000 -0.000000  0.000000      1.000000
  0.000000  0.250000 -0.000000      2.000000
  0.250000  0.250000 -0.000000      2.000000
  0.500000  0.250000 -0.000000      2.000000
 -0.250000  0.250000  0.000000      2.000000
  0.000000  0.500000 -0.000000      1.000000
  0.250000  0.500000 -0.000000      2.000000
  0.500000  0.500000 -0.000000      1.000000
 
 Following cartesian coordinates:
            Coordinates               Weight
  0.000000  0.000000  0.000000      1.000000
  0.055549 -0.032071  0.000000      2.000000
  0.111097 -0.064142  0.000000      1.000000
  0.000000  0.064142 -0.000000      2.000000
  0.055549  0.032071  0.000000      2.000000
  0.111097  0.000000  0.000000      2.000000
 -0.055549  0.096213 -0.000000      2.000000
  0.000000  0.128284 -0.000000      1.000000
  0.055549  0.096213 -0.000000      2.000000
  0.111097  0.064142  0.000000      1.000000
 


--------------------------------------------------------------------------------------------------------




 Dimension of arrays:
   k-points           NKPTS =     10   k-points in BZ     NKDIM =     10   number of bands    NBANDS=     43
   number of dos      NEDOS =    301   number of ions     NIONS =     12
   non local maximal  LDIM  =      6   non local SUM 2l+1 LMDIM =     18
   total plane-waves  NPLWV = 209952
   max r-space proj   IRMAX =      1   max aug-charges    IRDMAX=  51905
   dimension x,y,z NGX =    36 NGY =   36 NGZ =  162
   dimension x,y,z NGXF=    72 NGYF=   72 NGZF=  324
   support grid    NGXF=    72 NGYF=   72 NGZF=  324
   ions per type =               6   6
   NGX,Y,Z   is equivalent  to a cutoff of  13.30, 13.30, 12.22 a.u.
   NGXF,Y,Z  is equivalent  to a cutoff of  26.60, 26.60, 24.43 a.u.

 SYSTEM =  BiMn                                    
 POSCAR =  Mn1 Bi1 str #: 8                        

 Startparameter for this run:
   NWRITE =      2    write-flag & timer
   PREC   = accura    normal or accurate (medium, high low for compatibility)
   ISTART =      0    job   : 0-new  1-cont  2-samecut
   ICHARG =      2    charge: 1-file 2-atom 10-const
   ISPIN  =      2    spin polarized calculation?
   LNONCOLLINEAR =      F non collinear calculations
   LSORBIT =      F    spin-orbit coupling
   INIWAV =      1    electr: 0-lowe 1-rand  2-diag
   LASPH  =      F    aspherical Exc in radial PAW
   METAGGA=      F    non-selfconsistent MetaGGA calc.

 Electronic Relaxation 1
   ENCUT  =  500.0 eV  36.75 Ry    6.06 a.u.   8.21  8.21 40.20*2*pi/ulx,y,z
   ENINI  =  500.0     initial cutoff
   ENAUG  =  500.7 eV  augmentation charge cutoff
   NELM   =     60;   NELMIN=  2; NELMDL= -5     # of ELM steps 
   EDIFF  = 0.1E-05   stopping-criterion for ELM
   LREAL  =      F    real-space projection
   NLSPLINE    = F    spline interpolate recip. space projectors
   LCOMPAT=      F    compatible to vasp.4.4
   GGA_COMPAT  = T    GGA compatible to vasp.4.4-vasp.4.6
   LMAXPAW     = -100 max onsite density
   LMAXMIX     =    2 max onsite mixed and CHGCAR
   VOSKOWN=      0    Vosko Wilk Nusair interpolation
   ROPT   =    0.00000   0.00000
 Ionic relaxation
   EDIFFG = 0.1E-04   stopping-criterion for IOM
   NSW    =      0    number of steps for IOM
   NBLOCK =      1;   KBLOCK =      1    inner block; outer block 
   IBRION =     -1    ionic relax: 0-MD 1-quasi-New 2-CG
   NFREE  =      1    steps in history (QN), initial steepest desc. (CG)
   ISIF   =      2    stress and relaxation
   IWAVPR =     10    prediction:  0-non 1-charg 2-wave 3-comb
   ISYM   =      0    0-nonsym 1-usesym 2-fastsym
   LCORR  =      T    Harris-Foulkes like correction to forces

   POTIM  = 0.5000    time-step for ionic-motion
   TEIN   =    0.0    initial temperature
   TEBEG  =    0.0;   TEEND  =   0.0 temperature during run
   SMASS  =  -3.00    Nose mass-parameter (am)
   estimated Nose-frequenzy (Omega)   =  0.10E-29 period in steps =****** mass=  -0.463E-27a.u.
   SCALEE = 1.0000    scale energy and forces
   NPACO  =    256;   APACO  = 16.0  distance and # of slots for P.C.
   PSTRESS=    0.0 pullay stress

  Mass of Ions in am
   POMASS =  54.94208.98
  Ionic Valenz
   ZVAL   =   7.00  5.00
  Atomic Wigner-Seitz radii
   RWIGS  =  -1.00 -1.00
  virtual crystal weights 
   VCA    =   1.00  1.00
   NELECT =      72.0000    total number of electrons
   NUPDOWN=      -1.0000    fix difference up-down

 DOS related values:
   EMIN   =  10.00;   EMAX   =-10.00  energy-range for DOS
   EFERMI =   0.00
   ISMEAR =     1;   SIGMA  =   0.10  broadening in eV -4-tet -1-fermi 0-gaus

 Electronic relaxation 2 (details)
   IALGO  =     38    algorithm
   LDIAG  =      T    sub-space diagonalisation (order eigenvalues)
   LSUBROT=      F    optimize rotation matrix (better conditioning)
   TURBO    =      0    0=normal 1=particle mesh
   IRESTART =      0    0=no restart 2=restart with 2 vectors
   NREBOOT  =      0    no. of reboots
   NMIN     =      0    reboot dimension
   EREF     =   0.00    reference energy to select bands
   IMIX   =      4    mixing-type and parameters
     AMIX     =   0.40;   BMIX     =  1.00
     AMIX_MAG =   1.60;   BMIX_MAG =  1.00
     AMIN     =   0.10
     WC   =   100.;   INIMIX=   1;  MIXPRE=   1;  MAXMIX= -45

 Intra band minimization:
   WEIMIN = 0.0000     energy-eigenvalue tresh-hold
   EBREAK =  0.58E-08  absolut break condition
   DEPER  =   0.30     relativ break condition  

   TIME   =   0.40     timestep for ELM

  volume/ion in A,a.u.               =      32.23       217.50
  Fermi-wavevector in a.u.,A,eV,Ry     =   0.934775  1.766469 11.888837  0.873805
  Thomas-Fermi vector in A             =   2.061615
 
 Write flags
   LWAVE        =      F    write WAVECAR
   LDOWNSAMPLE  =      F    k-point downsampling of WAVECAR
   LCHARG       =      F    write CHGCAR
   LVTOT        =      F    write LOCPOT, total local potential
   LVHAR        =      F    write LOCPOT, Hartree potential only
   LELF         =      F    write electronic localiz. function (ELF)
   LORBIT       =     11    0 simple, 1 ext, 2 COOP (PROOUT), +10 PAW based schemes


 Dipole corrections
   LMONO  =      F    monopole corrections only (constant potential shift)
   LDIPOL =      F    correct potential (dipole corrections)
   IDIPOL =      0    1-x, 2-y, 3-z, 4-all directions 
   EPSILON=  1.0000000 bulk dielectric constant

 Exchange correlation treatment:
   GGA     =    --    GGA type
   LEXCH   =     8    internal setting for exchange type
   VOSKOWN=      0    Vosko Wilk Nusair interpolation
   LHFCALC =     F    Hartree Fock is set to
   LHFONE  =     F    Hartree Fock one center treatment
   AEXX    =    0.0000 exact exchange contribution

 Linear response parameters
   LEPSILON=     F    determine dielectric tensor
   LRPA    =     F    only Hartree local field effects (RPA)
   LNABLA  =     F    use nabla operator in PAW spheres
   LVEL    =     F    velocity operator in full k-point grid
   LINTERFAST=   F  fast interpolation
   KINTER  =     0    interpolate to denser k-point grid
   CSHIFT  =0.1000    complex shift for real part using Kramers Kronig
   OMEGAMAX=  -1.0    maximum frequency
   DEG_THRESHOLD= 0.2000000E-02 threshold for treating states as degnerate
   RTIME   =   -0.100 relaxation time in fs
  (WPLASMAI=    0.000 imaginary part of plasma frequency in eV, 0.658/RTIME)
   DFIELD  = 0.0000000 0.0000000 0.0000000 field for delta impulse in time
 
 Orbital magnetization related:
   ORBITALMAG=     F  switch on orbital magnetization
   LCHIMAG   =     F  perturbation theory with respect to B field
   DQ        =  0.001000  dq finite difference perturbation B field
   LLRAUG    =     F  two centre corrections for induced B field



--------------------------------------------------------------------------------------------------------


 Static calculation
 charge density and potential will be updated during run
 spin polarized calculation
 Variant of blocked Davidson
 Davidson routine will perform the subspace rotation
 perform sub-space diagonalisation
    after iterative eigenvector-optimisation
 modified Broyden-mixing scheme, WC =      100.0
 initial mixing is a Kerker type mixing with AMIX =  0.4000 and BMIX =      1.0000
 Hartree-type preconditioning will be used
 using additional bands            7
 reciprocal scheme for non local part
 use partial core corrections
 calculate Harris-corrections to forces 
   (improved forces if not selfconsistent)
 use gradient corrections 
 use of overlap-Matrix (Vanderbilt PP)
 Methfessel and Paxton  Order N= 1 SIGMA  =   0.10


--------------------------------------------------------------------------------------------------------


  energy-cutoff  :      500.00
  volume of cell :      386.75
      direct lattice vectors                 reciprocal lattice vectors
     4.500557900  0.000000000  0.000000000     0.222194675 -0.128284152  0.000000003
     2.250278900  3.897597500  0.000000000     0.000000000  0.256568309 -0.000000002
    -0.000000200  0.000000200 22.048140600     0.000000000  0.000000000  0.045355299

  length of vectors
     4.500557900  4.500557899 22.048140600     0.256568309  0.256568309  0.045355299


 
 k-points in units of 2pi/SCALE and weight: read from INCAR                         
   0.00000000  0.00000000  0.00000000       0.062
   0.05554867 -0.03207104  0.00000000       0.125
   0.11109734 -0.06414208  0.00000000       0.062
   0.00000000  0.06414208 -0.00000000       0.125
   0.05554867  0.03207104  0.00000000       0.125
   0.11109734  0.00000000  0.00000000       0.125
  -0.05554867  0.09621312 -0.00000000       0.125
   0.00000000  0.12828415 -0.00000000       0.062
   0.05554867  0.09621312 -0.00000000       0.125
   0.11109734  0.06414208  0.00000000       0.062
 
 k-points in reciprocal lattice and weights: read from INCAR                         
   0.00000000  0.00000000  0.00000000       0.062
   0.25000000 -0.00000000  0.00000000       0.125
   0.50000000 -0.00000000  0.00000000       0.062
   0.00000000  0.25000000 -0.00000000       0.125
   0.25000000  0.25000000 -0.00000000       0.125
   0.50000000  0.25000000 -0.00000000       0.125
  -0.25000000  0.25000000  0.00000000       0.125
   0.00000000  0.50000000 -0.00000000       0.062
   0.25000000  0.50000000 -0.00000000       0.125
   0.50000000  0.50000000 -0.00000000       0.062
 
 position of ions in fractional coordinates (direct lattice) 
   1.00000000  0.00000002  0.12500001
   0.33333333  0.33333335  0.29166667
   0.66666666  0.66666669  0.45833334
   1.00000000  0.00000002  0.62500001
   0.33333333  0.33333335  0.79166667
   0.66666666  0.66666669  0.95833334
   0.00000000  0.00000000  0.00000000
   0.33333333  0.33333333  0.16666667
   0.66666667  0.66666667  0.33333333
   0.00000000  0.00000000  0.50000000
   0.33333333  0.33333333  0.66666667
   0.66666667  0.66666667  0.83333333
 
 position of ions in cartesian coordinates  (Angst):
   4.50055790  0.00000010  2.75601771
   2.25027890  1.29919930  6.43070779
   4.50055780  2.59839850 10.10539790
   4.50055780  0.00000020 13.78008801
   2.25027880  1.29919940 17.45477809
   4.50055770  2.59839860 21.12946820
   0.00000000  0.00000000  0.00000000
   2.25027890  1.29919920  3.67469011
   4.50055780  2.59839840  7.34938019
  -0.00000010  0.00000010 11.02407030
   2.25027880  1.29919930 14.69876041
   4.50055770  2.59839850 18.37345049
 


--------------------------------------------------------------------------------------------------------


 k-point  1 :   0.0000 0.0000 0.0000  plane waves:    9783
 k-point  2 :   0.2500-0.0000 0.0000  plane waves:    9802
 k-point  3 :   0.5000-0.0000 0.0000  plane waves:    9830
 k-point  4 :   0.0000 0.2500-0.0000  plane waves:    9802
 k-point  5 :   0.2500 0.2500-0.0000  plane waves:    9802
 k-point  6 :   0.5000 0.2500-0.0000  plane waves:    9818
 k-point  7 :  -0.2500 0.2500 0.0000  plane waves:    9818
 k-point  8 :   0.0000 0.5000-0.0000  plane waves:    9830
 k-point  9 :   0.2500 0.5000-0.0000  plane waves:    9818
 k-point 10 :   0.5000 0.5000-0.0000  plane waves:    9830

 maximum and minimum number of plane-waves per node :      1248     1207

 maximum number of plane-waves:      9830
 maximum index in each direction: 
   IXMAX=    8   IYMAX=    8   IZMAX=   40
   IXMIN=   -8   IYMIN=   -8   IZMIN=  -40


 parallel 3D FFT for wavefunctions:
    minimum data exchange during FFTs selected (reduces bandwidth)
 parallel 3D FFT for charge:
    minimum data exchange during FFTs selected (reduces bandwidth)


 total amount of memory used by VASP MPI-rank0    78361. kBytes
=======================================================================

   base      :      30000. kBytes
   nonl-proj :       3775. kBytes
   fftplans  :       7970. kBytes
   grid      :      19217. kBytes
   one-center:         62. kBytes
   wavefun   :      17337. kBytes
 
     INWAV:  cpu time    0.0000: real time    0.0001
 Broyden mixing: mesh for mixing (old mesh)
   NGX = 17   NGY = 17   NGZ = 81
  (NGX  = 72   NGY  = 72   NGZ  =324)
  gives a total of  23409 points

 initial charge density was supplied:
 charge density of overlapping atoms calculated
 number of electron      72.0000000 magnetization       0.0000000
 keeping initial charge density in first step


--------------------------------------------------------------------------------------------------------


 Maximum index for augmentation-charges         6271 (set IRDMAX)


--------------------------------------------------------------------------------------------------------


 First call to EWALD:  gamma=   0.243
 Maximum number of real-space cells 5x 5x 1
 Maximum number of reciprocal cells 2x 2x 7

    FEWALD:  cpu time    0.0014: real time    0.0014


--------------------------------------- Iteration      1(   1)  ---------------------------------------


    POTLOK:  cpu time    0.2577: real time    0.2583
    SETDIJ:  cpu time    0.0238: real time    0.0239
     EDDAV:  cpu time    3.1943: real time    3.2107
       DOS:  cpu time    0.0026: real time    0.0026
    --------------------------------------------
      LOOP:  cpu time    3.4784: real time    3.4955

 eigenvalue-minimisations  :  1720
 total energy-change (2. order) : 0.5489661E+03  (-0.2364126E+04)
 number of electron      72.0000000 magnetization       0.0000000
 augmentation part       72.0000000 magnetization       0.0000000

 Free energy of the ion-electron system (eV)
  ---------------------------------------------------
  alpha Z        PSCENC =       101.49540615
  Ewald energy   TEWEN  =     -2683.79588848
  -Hartree energ DENC   =      -967.30630471
  -exchange      EXHF   =         0.00000000
  -V(xc)+E(xc)   XCENC  =      -728.85502115
  PAW double counting   =      3780.13508079    -2989.48258254
  entropy T*S    EENTRO =        -0.00119163
  eigenvalues    EBANDS =       631.38694836
  atomic energy  EATOM  =      3405.38964915
  Solvation  Ediel_sol  =         0.00000000
  ---------------------------------------------------
  free energy    TOTEN  =       548.96609595 eV

  energy without entropy =      548.96728758  energy(sigma->0) =      548.96649316


--------------------------------------------------------------------------------------------------------




--------------------------------------- Iteration      1(   2)  ---------------------------------------


     EDDAV:  cpu time    3.2243: real time    3.2346
       DOS:  cpu time    0.0029: real time    0.0029
    --------------------------------------------
      LOOP:  cpu time    3.2272: real time    3.2375

 eigenvalue-minimisations  :  1720
 total energy-change (2. order) :-0.5284832E+03  (-0.5170138E+03)
 number of electron      72.0000000 magnetization       0.0000000
 augmentation part       72.0000000 magnetization       0.0000000

 Free energy of the ion-electron system (eV)
  ---------------------------------------------------
  alpha Z        PSCENC =       101.49540615
  Ewald energy   TEWEN  =     -2683.79588848
  -Hartree energ DENC   =      -967.30630471
  -exchange      EXHF   =         0.00000000
  -V(xc)+E(xc)   XCENC  =      -728.85502115
  PAW double counting   =      3780.13508079    -2989.48258254
  entropy T*S    EENTRO =        -0.00066882
  eigenvalues    EBANDS =       102.90319012
  atomic energy  EATOM  =      3405.38964915
  Solvation  Ediel_sol  =         0.00000000
  ---------------------------------------------------
  free energy    TOTEN  =        20.48286052 eV

  energy without entropy =       20.48352933  energy(sigma->0) =       20.48308346


--------------------------------------------------------------------------------------------------------




--------------------------------------- Iteration      1(   3)  ---------------------------------------


     EDDAV:  cpu time    4.7037: real time    4.7155
       DOS:  cpu time    0.0031: real time    0.0031
    --------------------------------------------
      LOOP:  cpu time    4.7068: real time    4.7187

 eigenvalue-minimisations  :  2885
 total energy-change (2. order) :-0.8653386E+02  (-0.8297391E+02)
 number of electron      72.0000000 magnetization       0.0000000
 augmentation part       72.0000000 magnetization       0.0000000

 Free energy of the ion-electron system (eV)
  ---------------------------------------------------
  alpha Z        PSCENC =       101.49540615
  Ewald energy   TEWEN  =     -2683.79588848
  -Hartree energ DENC   =      -967.30630471
  -exchange      EXHF   =         0.00000000
  -V(xc)+E(xc)   XCENC  =      -728.85502115
  PAW double counting   =      3780.13508079    -2989.48258254
  entropy T*S    EENTRO =         0.00326443
  eigenvalues    EBANDS =        16.36540065
  atomic energy  EATOM  =      3405.38964915
  Solvation  Ediel_sol  =         0.00000000
  ---------------------------------------------------
  free energy    TOTEN  =       -66.05099570 eV

  energy without entropy =      -66.05426013  energy(sigma->0) =      -66.05208384


--------------------------------------------------------------------------------------------------------




--------------------------------------- Iteration      1(   4)  ---------------------------------------


     EDDAV:  cpu time    4.8220: real time    4.8343
       DOS:  cpu time    0.0031: real time    0.0031
    --------------------------------------------
      LOOP:  cpu time    4.8251: real time    4.8374

 eigenvalue-minimisations  :  2944
 total energy-change (2. order) :-0.9049733E+01  (-0.8786943E+01)
 number of electron      72.0000000 magnetization       0.0000000
 augmentation part       72.0000000 magnetization       0.0000000

 Free energy of the ion-electron system (eV)
  ---------------------------------------------------
  alpha Z        PSCENC =       101.49540615
  Ewald energy   TEWEN  =     -2683.79588848
  -Hartree energ DENC   =      -967.30630471
  -exchange      EXHF   =         0.00000000
  -V(xc)+E(xc)   XCENC  =      -728.85502115
  PAW double counting   =      3780.13508079    -2989.48258254
  entropy T*S    EENTRO =        -0.00565062
  eigenvalues    EBANDS =         7.32458239
  atomic energy  EATOM  =      3405.38964915
  Solvation  Ediel_sol  =         0.00000000
  ---------------------------------------------------
  free energy    TOTEN  =       -75.10072901 eV

  energy without entropy =      -75.09507839  energy(sigma->0) =      -75.09884547


--------------------------------------------------------------------------------------------------------




--------------------------------------- Iteration      1(   5)  ---------------------------------------


     EDDAV:  cpu time    4.7307: real time    4.7432
       DOS:  cpu time    0.0031: real time    0.0031
    CHARGE:  cpu time    0.3741: real time    0.3751
    MIXING:  cpu time    0.0040: real time    0.0040
    --------------------------------------------
      LOOP:  cpu time    5.1119: real time    5.1254

 eigenvalue-minimisations  :  2896
 total energy-change (2. order) :-0.6466838E+00  (-0.6406304E+00)
 number of electron      71.9999985 magnetization       0.0014008
 augmentation part        5.6706796 magnetization      -0.0091131

 Broyden mixing:
  rms(total) = 0.23729E+01    rms(broyden)= 0.23729E+01
  rms(prec ) = 0.25645E+01
  weight for this iteration     100.00

 Free energy of the ion-electron system (eV)
  ---------------------------------------------------
  alpha Z        PSCENC =       101.49540615
  Ewald energy   TEWEN  =     -2683.79588848
  -Hartree energ DENC   =      -967.30630471
  -exchange      EXHF   =         0.00000000
  -V(xc)+E(xc)   XCENC  =      -728.85502115
  PAW double counting   =      3780.13508079    -2989.48258254
  entropy T*S    EENTRO =        -0.00640434
  eigenvalues    EBANDS =         6.67865236
  atomic energy  EATOM  =      3405.38964915
  Solvation  Ediel_sol  =         0.00000000
  ---------------------------------------------------
  free energy    TOTEN  =       -75.74741276 eV

  energy without entropy =      -75.74100842  energy(sigma->0) =      -75.74527798


--------------------------------------------------------------------------------------------------------




--------------------------------------- Iteration      1(   6)  ---------------------------------------


    POTLOK:  cpu time    0.2504: real time    0.2514
    SETDIJ:  cpu time    0.0243: real time    0.0244
     EDDAV:  cpu time    4.8284: real time    4.8406
       DOS:  cpu time    0.0034: real time    0.0034
    CHARGE:  cpu time    0.3705: real time    0.3716
    MIXING:  cpu time    0.0044: real time    0.0044
    --------------------------------------------
      LOOP:  cpu time    5.4815: real time    5.4958

 eigenvalue-minimisations  :  3075
 total energy-change (2. order) :-0.8769514E+01  (-0.2536943E+02)
 number of electron      71.9999972 magnetization       0.0045268
 augmentation part       19.8982019 magnetization      -0.0002004

 Broyden mixing:
  rms(total) = 0.56634E+01    rms(broyden)= 0.56633E+01
  rms(prec ) = 0.59204E+01
  weight for this iteration     100.00

 eigenvalues of (default mixing * dielectric matrix)
  average eigenvalue GAMMA=   0.2181
  0.2181

 Free energy of the ion-electron system (eV)
  ---------------------------------------------------
  alpha Z        PSCENC =       101.49540615
  Ewald energy   TEWEN  =     -2683.79588848
  -Hartree energ DENC   =      -839.85295188
  -exchange      EXHF   =         0.00000000
  -V(xc)+E(xc)   XCENC  =      -725.87441466
  PAW double counting   =      3796.32345883    -2997.00175744
  entropy T*S    EENTRO =         0.00279607
  eigenvalues    EBANDS =      -141.20322440
  atomic energy  EATOM  =      3405.38964915
  Solvation  Ediel_sol  =         0.00000000
  ---------------------------------------------------
  free energy    TOTEN  =       -84.51692664 eV

  energy without entropy =      -84.51972272  energy(sigma->0) =      -84.51785867


--------------------------------------------------------------------------------------------------------




--------------------------------------- Iteration      1(   7)  ---------------------------------------


    POTLOK:  cpu time    0.2400: real time    0.2407
    SETDIJ:  cpu time    0.0229: real time    0.0229
     EDDAV:  cpu time    4.5542: real time    4.5658
       DOS:  cpu time    0.0035: real time    0.0035
    CHARGE:  cpu time    0.3714: real time    0.3722
    MIXING:  cpu time    0.0049: real time    0.0049
    --------------------------------------------
      LOOP:  cpu time    5.1969: real time    5.2100

 eigenvalue-minimisations  :  2944
 total energy-change (2. order) : 0.1527042E+02  (-0.1189475E+02)
 number of electron      71.9999979 magnetization       0.0148422
 augmentation part       11.9713089 magnetization      -0.1071298

 Broyden mixing:
  rms(total) = 0.13223E+01    rms(broyden)= 0.13223E+01
  rms(prec ) = 0.13727E+01
  weight for this iteration     100.00

 eigenvalues of (default mixing * dielectric matrix)
  average eigenvalue GAMMA=   0.3793
  0.4679  0.2908

 Free energy of the ion-electron system (eV)
  ---------------------------------------------------
  alpha Z        PSCENC =       101.49540615
  Ewald energy   TEWEN  =     -2683.79588848
  -Hartree energ DENC   =      -898.38141652
  -exchange      EXHF   =         0.00000000
  -V(xc)+E(xc)   XCENC  =      -727.15275553
  PAW double counting   =      3994.51775819    -3202.92791817
  entropy T*S    EENTRO =        -0.00120783
  eigenvalues    EBANDS =       -58.39013455
  atomic energy  EATOM  =      3405.38964915
  Solvation  Ediel_sol  =         0.00000000
  ---------------------------------------------------
  free energy    TOTEN  =       -69.24650758 eV

  energy without entropy =      -69.24529975  energy(sigma->0) =      -69.24610497


--------------------------------------------------------------------------------------------------------




--------------------------------------- Iteration      1(   8)  ---------------------------------------


    POTLOK:  cpu time    0.2436: real time    0.2443
    SETDIJ:  cpu time    0.0230: real time    0.0231
     EDDAV:  cpu time    4.9871: real time    4.9997
       DOS:  cpu time    0.0034: real time    0.0034
    CHARGE:  cpu time    0.3709: real time    0.3720
    MIXING:  cpu time    0.0047: real time    0.0047
    --------------------------------------------
      LOOP:  cpu time    5.6328: real time    5.6472

 eigenvalue-minimisations  :  3256
 total energy-change (2. order) :-0.6194386E+00  (-0.2044867E+01)
 number of electron      71.9999980 magnetization       0.0332915
 augmentation part       10.5672453 magnetization       0.0375100

 Broyden mixing:
  rms(total) = 0.11369E+01    rms(broyden)= 0.11368E+01
  rms(prec ) = 0.12137E+01
  weight for this iteration     100.00

 eigenvalues of (default mixing * dielectric matrix)
  average eigenvalue GAMMA=   0.5005
  0.8986  0.3015  0.3015

 Free energy of the ion-electron system (eV)
  ---------------------------------------------------
  alpha Z        PSCENC =       101.49540615
  Ewald energy   TEWEN  =     -2683.79588848
  -Hartree energ DENC   =      -909.55582483
  -exchange      EXHF   =         0.00000000
  -V(xc)+E(xc)   XCENC  =      -723.77741539
  PAW double counting   =      4092.66736210    -3305.19269132
  entropy T*S    EENTRO =        -0.00983151
  eigenvalues    EBANDS =       -47.08671210
  atomic energy  EATOM  =      3405.38964915
  Solvation  Ediel_sol  =         0.00000000
  ---------------------------------------------------
  free energy    TOTEN  =       -69.86594622 eV

  energy without entropy =      -69.85611471  energy(sigma->0) =      -69.86266905


--------------------------------------------------------------------------------------------------------




--------------------------------------- Iteration      1(   9)  ---------------------------------------


    POTLOK:  cpu time    0.2417: real time    0.2426
    SETDIJ:  cpu time    0.0229: real time    0.0230
     EDDAV:  cpu time    4.8283: real time    4.8408
       DOS:  cpu time    0.0033: real time    0.0033
    CHARGE:  cpu time    0.3716: real time    0.3725
    MIXING:  cpu time    0.0055: real time    0.0055
    --------------------------------------------
      LOOP:  cpu time    5.4734: real time    5.4877

 eigenvalue-minimisations  :  3192
 total energy-change (2. order) : 0.3955002E-01  (-0.1004048E+01)
 number of electron      71.9999981 magnetization       0.0857124
 augmentation part       10.0271393 magnetization      -0.2968218

 Broyden mixing:
  rms(total) = 0.58375E+00    rms(broyden)= 0.58372E+00
  rms(prec ) = 0.64049E+00
  weight for this iteration     100.00

 eigenvalues of (default mixing * dielectric matrix)
  average eigenvalue GAMMA=   0.6373
  1.4361  0.4922  0.3650  0.2559

 Free energy of the ion-electron system (eV)
  ---------------------------------------------------
  alpha Z        PSCENC =       101.49540615
  Ewald energy   TEWEN  =     -2683.79588848
  -Hartree energ DENC   =      -910.86241367
  -exchange      EXHF   =         0.00000000
  -V(xc)+E(xc)   XCENC  =      -721.23183679
  PAW double counting   =      4189.23205166    -3404.71717567
  entropy T*S    EENTRO =         0.00512043
  eigenvalues    EBANDS =       -45.34130898
  atomic energy  EATOM  =      3405.38964915
  Solvation  Ediel_sol  =         0.00000000
  ---------------------------------------------------
  free energy    TOTEN  =       -69.82639620 eV

  energy without entropy =      -69.83151662  energy(sigma->0) =      -69.82810301


--------------------------------------------------------------------------------------------------------




--------------------------------------- Iteration      1(  10)  ---------------------------------------


    POTLOK:  cpu time    0.2555: real time    0.2562
    SETDIJ:  cpu time    0.0236: real time    0.0237
     EDDAV:  cpu time    4.7537: real time    4.7657
       DOS:  cpu time    0.0034: real time    0.0034
    CHARGE:  cpu time    0.3716: real time    0.3725
    MIXING:  cpu time    0.0053: real time    0.0053
    --------------------------------------------
      LOOP:  cpu time    5.4131: real time    5.4268

 eigenvalue-minimisations  :  3081
 total energy-change (2. order) : 0.8619204E-01  (-0.2849437E+00)
 number of electron      71.9999981 magnetization       0.0639593
 augmentation part       10.2104867 magnetization       0.5585388

 Broyden mixing:
  rms(total) = 0.46200E+00    rms(broyden)= 0.46199E+00
  rms(prec ) = 0.50594E+00
  weight for this iteration     100.00

 eigenvalues of (default mixing * dielectric matrix)
  average eigenvalue GAMMA=   0.6324
  1.6854  0.4515  0.4515  0.2869  0.2869

 Free energy of the ion-electron system (eV)
  ---------------------------------------------------
  alpha Z        PSCENC =       101.49540615
  Ewald energy   TEWEN  =     -2683.79588848
  -Hartree energ DENC   =      -905.19387618
  -exchange      EXHF   =         0.00000000
  -V(xc)+E(xc)   XCENC  =      -719.71984834
  PAW double counting   =      4296.23534242    -3513.94357577
  entropy T*S    EENTRO =         0.00300533
  eigenvalues    EBANDS =       -50.21041844
  atomic energy  EATOM  =      3405.38964915
  Solvation  Ediel_sol  =         0.00000000
  ---------------------------------------------------
  free energy    TOTEN  =       -69.74020416 eV

  energy without entropy =      -69.74320948  energy(sigma->0) =      -69.74120593


--------------------------------------------------------------------------------------------------------




--------------------------------------- Iteration      1(  11)  ---------------------------------------


    POTLOK:  cpu time    0.2411: real time    0.2419
    SETDIJ:  cpu time    0.0232: real time    0.0233
     EDDAV:  cpu time    4.4730: real time    4.4849
       DOS:  cpu time    0.0035: real time    0.0035
    CHARGE:  cpu time    0.3700: real time    0.3711
    MIXING:  cpu time    0.0054: real time    0.0054
    --------------------------------------------
      LOOP:  cpu time    5.1162: real time    5.1301

 eigenvalue-minimisations  :  2848
 total energy-change (2. order) : 0.1155715E+00  (-0.9814663E-01)
 number of electron      71.9999981 magnetization       0.0670098
 augmentation part       10.3611412 magnetization       0.0131998

 Broyden mixing:
  rms(total) = 0.20691E+00    rms(broyden)= 0.20691E+00
  rms(prec ) = 0.21070E+00
  weight for this iteration     100.00

 eigenvalues of (default mixing * dielectric matrix)
  average eigenvalue GAMMA=   0.7243
  2.1295  0.6193  0.6193  0.3975  0.2759  0.3046

 Free energy of the ion-electron system (eV)
  ---------------------------------------------------
  alpha Z        PSCENC =       101.49540615
  Ewald energy   TEWEN  =     -2683.79588848
  -Hartree energ DENC   =      -902.13579790
  -exchange      EXHF   =         0.00000000
  -V(xc)+E(xc)   XCENC  =      -719.28837510
  PAW double counting   =      4343.85534473    -3562.50621040
  entropy T*S    EENTRO =        -0.00365333
  eigenvalues    EBANDS =       -52.63510746
  atomic energy  EATOM  =      3405.38964915
  Solvation  Ediel_sol  =         0.00000000
  ---------------------------------------------------
  free energy    TOTEN  =       -69.62463264 eV

  energy without entropy =      -69.62097931  energy(sigma->0) =      -69.62341486


--------------------------------------------------------------------------------------------------------




--------------------------------------- Iteration      1(  12)  ---------------------------------------


    POTLOK:  cpu time    0.2413: real time    0.2420
    SETDIJ:  cpu time    0.0229: real time    0.0229
     EDDAV:  cpu time    4.6711: real time    4.6829
       DOS:  cpu time    0.0034: real time    0.0035
    CHARGE:  cpu time    0.3703: real time    0.3712
    MIXING:  cpu time    0.0059: real time    0.0059
    --------------------------------------------
      LOOP:  cpu time    5.3149: real time    5.3283

 eigenvalue-minimisations  :  3000
 total energy-change (2. order) :-0.2026888E-01  (-0.3332497E-01)
 number of electron      71.9999980 magnetization       0.0659947
 augmentation part       10.5332349 magnetization       0.0110888

 Broyden mixing:
  rms(total) = 0.19509E+00    rms(broyden)= 0.19509E+00
  rms(prec ) = 0.20351E+00
  weight for this iteration     100.00

 eigenvalues of (default mixing * dielectric matrix)
  average eigenvalue GAMMA=   0.7469
  2.3077  0.6998  0.6998  0.5538  0.2648  0.3511  0.3511

 Free energy of the ion-electron system (eV)
  ---------------------------------------------------
  alpha Z        PSCENC =       101.49540615
  Ewald energy   TEWEN  =     -2683.79588848
  -Hartree energ DENC   =      -899.57827590
  -exchange      EXHF   =         0.00000000
  -V(xc)+E(xc)   XCENC  =      -719.11028269
  PAW double counting   =      4383.23891430    -3602.72507835
  entropy T*S    EENTRO =        -0.00376038
  eigenvalues    EBANDS =       -54.55558532
  atomic energy  EATOM  =      3405.38964915
  Solvation  Ediel_sol  =         0.00000000
  ---------------------------------------------------
  free energy    TOTEN  =       -69.64490152 eV

  energy without entropy =      -69.64114113  energy(sigma->0) =      -69.64364806


--------------------------------------------------------------------------------------------------------




--------------------------------------- Iteration      1(  13)  ---------------------------------------


    POTLOK:  cpu time    0.2411: real time    0.2425
    SETDIJ:  cpu time    0.0229: real time    0.0229
     EDDAV:  cpu time    4.7891: real time    4.8013
       DOS:  cpu time    0.0035: real time    0.0035
    CHARGE:  cpu time    0.3724: real time    0.3733
    MIXING:  cpu time    0.0059: real time    0.0059
    --------------------------------------------
      LOOP:  cpu time    5.4349: real time    5.4494

 eigenvalue-minimisations  :  3096
 total energy-change (2. order) :-0.8363562E-02  (-0.1676140E-01)
 number of electron      71.9999980 magnetization       0.0595198
 augmentation part       10.5616638 magnetization       0.0787342

 Broyden mixing:
  rms(total) = 0.17029E+00    rms(broyden)= 0.17029E+00
  rms(prec ) = 0.18072E+00
  weight for this iteration     100.00

 eigenvalues of (default mixing * dielectric matrix)
  average eigenvalue GAMMA=   0.7838
  2.5675  1.2195  0.6157  0.6157  0.3472  0.3472  0.2786  0.2786

 Free energy of the ion-electron system (eV)
  ---------------------------------------------------
  alpha Z        PSCENC =       101.49540615
  Ewald energy   TEWEN  =     -2683.79588848
  -Hartree energ DENC   =      -899.27847093
  -exchange      EXHF   =         0.00000000
  -V(xc)+E(xc)   XCENC  =      -719.23089537
  PAW double counting   =      4395.19440854    -3614.97001778
  entropy T*S    EENTRO =        -0.00412789
  eigenvalues    EBANDS =       -54.45332848
  atomic energy  EATOM  =      3405.38964915
  Solvation  Ediel_sol  =         0.00000000
  ---------------------------------------------------
  free energy    TOTEN  =       -69.65326508 eV

  energy without entropy =      -69.64913719  energy(sigma->0) =      -69.65188912


--------------------------------------------------------------------------------------------------------




--------------------------------------- Iteration      1(  14)  ---------------------------------------


    POTLOK:  cpu time    0.2341: real time    0.2349
    SETDIJ:  cpu time    0.0228: real time    0.0229
     EDDAV:  cpu time    4.6422: real time    4.6538
       DOS:  cpu time    0.0035: real time    0.0035
    CHARGE:  cpu time    0.3698: real time    0.3709
    MIXING:  cpu time    0.0064: real time    0.0064
    --------------------------------------------
      LOOP:  cpu time    5.2789: real time    5.2924

 eigenvalue-minimisations  :  2981
 total energy-change (2. order) :-0.3695282E-02  (-0.8558353E-02)
 number of electron      71.9999980 magnetization       0.0508781
 augmentation part       10.5511531 magnetization       0.1075972

 Broyden mixing:
  rms(total) = 0.11662E+00    rms(broyden)= 0.11662E+00
  rms(prec ) = 0.12496E+00
  weight for this iteration     100.00

 eigenvalues of (default mixing * dielectric matrix)
  average eigenvalue GAMMA=   0.7687
  2.5480  1.3531  0.6121  0.6121  0.4864  0.4341  0.2637  0.3046  0.3046

 Free energy of the ion-electron system (eV)
  ---------------------------------------------------
  alpha Z        PSCENC =       101.49540615
  Ewald energy   TEWEN  =     -2683.79588848
  -Hartree energ DENC   =      -899.43898571
  -exchange      EXHF   =         0.00000000
  -V(xc)+E(xc)   XCENC  =      -719.45444457
  PAW double counting   =      4405.11047730    -3625.14499250
  entropy T*S    EENTRO =        -0.00388169
  eigenvalues    EBANDS =       -53.81430002
  atomic energy  EATOM  =      3405.38964915
  Solvation  Ediel_sol  =         0.00000000
  ---------------------------------------------------
  free energy    TOTEN  =       -69.65696036 eV

  energy without entropy =      -69.65307868  energy(sigma->0) =      -69.65566647


--------------------------------------------------------------------------------------------------------




--------------------------------------- Iteration      1(  15)  ---------------------------------------


    POTLOK:  cpu time    0.2390: real time    0.2397
    SETDIJ:  cpu time    0.0228: real time    0.0228
     EDDAV:  cpu time    4.5421: real time    4.5534
       DOS:  cpu time    0.0035: real time    0.0035
    CHARGE:  cpu time    0.3694: real time    0.3704
    MIXING:  cpu time    0.0064: real time    0.0064
    --------------------------------------------
      LOOP:  cpu time    5.1832: real time    5.1963

 eigenvalue-minimisations  :  2903
 total energy-change (2. order) : 0.1235440E-02  (-0.3004508E-02)
 number of electron      71.9999980 magnetization       0.0414410
 augmentation part       10.5153732 magnetization       0.0485121

 Broyden mixing:
  rms(total) = 0.65202E-01    rms(broyden)= 0.65201E-01
  rms(prec ) = 0.69176E-01
  weight for this iteration     100.00

 eigenvalues of (default mixing * dielectric matrix)
  average eigenvalue GAMMA=   0.8035
  2.4442  1.6838  0.7966  0.7966  0.5796  0.4259  0.4259  0.3373  0.2690  0.2759

 Free energy of the ion-electron system (eV)
  ---------------------------------------------------
  alpha Z        PSCENC =       101.49540615
  Ewald energy   TEWEN  =     -2683.79588848
  -Hartree energ DENC   =      -899.97751708
  -exchange      EXHF   =         0.00000000
  -V(xc)+E(xc)   XCENC  =      -719.62386572
  PAW double counting   =      4406.34850850    -3626.41820240
  entropy T*S    EENTRO =        -0.00413269
  eigenvalues    EBANDS =       -53.06968236
  atomic energy  EATOM  =      3405.38964915
  Solvation  Ediel_sol  =         0.00000000
  ---------------------------------------------------
  free energy    TOTEN  =       -69.65572492 eV

  energy without entropy =      -69.65159223  energy(sigma->0) =      -69.65434736


--------------------------------------------------------------------------------------------------------




--------------------------------------- Iteration      1(  16)  ---------------------------------------


    POTLOK:  cpu time    0.2412: real time    0.2419
    SETDIJ:  cpu time    0.0230: real time    0.0231
     EDDAV:  cpu time    4.6040: real time    4.6159
       DOS:  cpu time    0.0034: real time    0.0034
    CHARGE:  cpu time    0.3689: real time    0.3698
    MIXING:  cpu time    0.0067: real time    0.0067
    --------------------------------------------
      LOOP:  cpu time    5.2472: real time    5.2607

 eigenvalue-minimisations  :  2957
 total energy-change (2. order) :-0.1664991E-02  (-0.2449624E-02)
 number of electron      71.9999981 magnetization       0.0377983
 augmentation part       10.4704780 magnetization       0.0025676

 Broyden mixing:
  rms(total) = 0.33494E-01    rms(broyden)= 0.33493E-01
  rms(prec ) = 0.36157E-01
  weight for this iteration     100.00

 eigenvalues of (default mixing * dielectric matrix)
  average eigenvalue GAMMA=   0.8104
  2.1315  2.1315  0.9169  0.9169  0.6429  0.4653  0.4653  0.3623  0.3341  0.2681
  0.2794

 Free energy of the ion-electron system (eV)
  ---------------------------------------------------
  alpha Z        PSCENC =       101.49540615
  Ewald energy   TEWEN  =     -2683.79588848
  -Hartree energ DENC   =      -900.61673542
  -exchange      EXHF   =         0.00000000
  -V(xc)+E(xc)   XCENC  =      -719.77949264
  PAW double counting   =      4406.12750050    -3626.17864587
  entropy T*S    EENTRO =        -0.00399416
  eigenvalues    EBANDS =       -52.29518915
  atomic energy  EATOM  =      3405.38964915
  Solvation  Ediel_sol  =         0.00000000
  ---------------------------------------------------
  free energy    TOTEN  =       -69.65738991 eV

  energy without entropy =      -69.65339575  energy(sigma->0) =      -69.65605853


--------------------------------------------------------------------------------------------------------




--------------------------------------- Iteration      1(  17)  ---------------------------------------


    POTLOK:  cpu time    0.2392: real time    0.2398
    SETDIJ:  cpu time    0.0229: real time    0.0229
     EDDAV:  cpu time    4.6011: real time    4.6128
       DOS:  cpu time    0.0036: real time    0.0036
    CHARGE:  cpu time    0.3689: real time    0.3698
    MIXING:  cpu time    0.0071: real time    0.0071
    --------------------------------------------
      LOOP:  cpu time    5.2427: real time    5.2560

 eigenvalue-minimisations  :  2946
 total energy-change (2. order) :-0.1020981E-02  (-0.6916815E-03)
 number of electron      71.9999981 magnetization       0.0342266
 augmentation part       10.4519270 magnetization       0.0196390

 Broyden mixing:
  rms(total) = 0.17724E-01    rms(broyden)= 0.17723E-01
  rms(prec ) = 0.18027E-01
  weight for this iteration     100.00

 eigenvalues of (default mixing * dielectric matrix)
  average eigenvalue GAMMA=   0.8078
  2.1223  2.1223  1.0020  1.0020  0.6423  0.5510  0.5510  0.4293  0.3901  0.3337
  0.2682  0.2793

 Free energy of the ion-electron system (eV)
  ---------------------------------------------------
  alpha Z        PSCENC =       101.49540615
  Ewald energy   TEWEN  =     -2683.79588848
  -Hartree energ DENC   =      -900.87758184
  -exchange      EXHF   =         0.00000000
  -V(xc)+E(xc)   XCENC  =      -719.84291823
  PAW double counting   =      4405.68989502    -3625.70315530
  entropy T*S    EENTRO =        -0.00402849
  eigenvalues    EBANDS =       -52.00978887
  atomic energy  EATOM  =      3405.38964915
  Solvation  Ediel_sol  =         0.00000000
  ---------------------------------------------------
  free energy    TOTEN  =       -69.65841089 eV

  energy without entropy =      -69.65438240  energy(sigma->0) =      -69.65706806


--------------------------------------------------------------------------------------------------------




--------------------------------------- Iteration      1(  18)  ---------------------------------------


    POTLOK:  cpu time    0.2417: real time    0.2425
    SETDIJ:  cpu time    0.0229: real time    0.0229
     EDDAV:  cpu time    4.4352: real time    4.4472
       DOS:  cpu time    0.0035: real time    0.0035
    CHARGE:  cpu time    0.3687: real time    0.3695
    MIXING:  cpu time    0.0074: real time    0.0074
    --------------------------------------------
      LOOP:  cpu time    5.0794: real time    5.0931

 eigenvalue-minimisations  :  2832
 total energy-change (2. order) :-0.8208269E-03  (-0.1488025E-03)
 number of electron      71.9999981 magnetization       0.0253445
 augmentation part       10.4445780 magnetization       0.0259734

 Broyden mixing:
  rms(total) = 0.15401E-01    rms(broyden)= 0.15401E-01
  rms(prec ) = 0.15744E-01
  weight for this iteration     100.00

 eigenvalues of (default mixing * dielectric matrix)
  average eigenvalue GAMMA=   0.8651
  2.2840  2.2840  1.1309  1.0111  1.0111  0.6322  0.5660  0.5660  0.4971  0.3820
  0.3350  0.2681  0.2793

 Free energy of the ion-electron system (eV)
  ---------------------------------------------------
  alpha Z        PSCENC =       101.49540615
  Ewald energy   TEWEN  =     -2683.79588848
  -Hartree energ DENC   =      -901.00155019
  -exchange      EXHF   =         0.00000000
  -V(xc)+E(xc)   XCENC  =      -719.86833032
  PAW double counting   =      4405.58527093    -3625.55772893
  entropy T*S    EENTRO =        -0.00402424
  eigenvalues    EBANDS =       -51.90203579
  atomic energy  EATOM  =      3405.38964915
  Solvation  Ediel_sol  =         0.00000000
  ---------------------------------------------------
  free energy    TOTEN  =       -69.65923172 eV

  energy without entropy =      -69.65520748  energy(sigma->0) =      -69.65789031


--------------------------------------------------------------------------------------------------------




--------------------------------------- Iteration      1(  19)  ---------------------------------------


    POTLOK:  cpu time    0.2327: real time    0.2336
    SETDIJ:  cpu time    0.0227: real time    0.0227
     EDDAV:  cpu time    4.5598: real time    4.5713
       DOS:  cpu time    0.0036: real time    0.0036
    CHARGE:  cpu time    0.3740: real time    0.3750
    MIXING:  cpu time    0.0089: real time    0.0090
    --------------------------------------------
      LOOP:  cpu time    5.2017: real time    5.2152

 eigenvalue-minimisations  :  2800
 total energy-change (2. order) :-0.9108765E-03  (-0.1187127E-03)
 number of electron      71.9999981 magnetization       0.0212737
 augmentation part       10.4412934 magnetization       0.0198970

 Broyden mixing:
  rms(total) = 0.15801E-01    rms(broyden)= 0.15800E-01
  rms(prec ) = 0.16359E-01
  weight for this iteration     100.00

 eigenvalues of (default mixing * dielectric matrix)
  average eigenvalue GAMMA=   0.8971
  2.2779  2.2779  1.9159  1.0053  1.0053  0.6261  0.6261  0.5916  0.4824  0.4824
  0.3862  0.3346  0.2681  0.2794

 Free energy of the ion-electron system (eV)
  ---------------------------------------------------
  alpha Z        PSCENC =       101.49540615
  Ewald energy   TEWEN  =     -2683.79588848
  -Hartree energ DENC   =      -901.14250684
  -exchange      EXHF   =         0.00000000
  -V(xc)+E(xc)   XCENC  =      -719.87911165
  PAW double counting   =      4406.30215781    -3626.23548915
  entropy T*S    EENTRO =        -0.00400234
  eigenvalues    EBANDS =       -51.79035725
  atomic energy  EATOM  =      3405.38964915
  Solvation  Ediel_sol  =         0.00000000
  ---------------------------------------------------
  free energy    TOTEN  =       -69.66014260 eV

  energy without entropy =      -69.65614025  energy(sigma->0) =      -69.65880848


--------------------------------------------------------------------------------------------------------




--------------------------------------- Iteration      1(  20)  ---------------------------------------


    POTLOK:  cpu time    0.2519: real time    0.2526
    SETDIJ:  cpu time    0.0234: real time    0.0234
     EDDAV:  cpu time    4.8535: real time    4.8658
       DOS:  cpu time    0.0036: real time    0.0036
    CHARGE:  cpu time    0.3678: real time    0.3687
    MIXING:  cpu time    0.0082: real time    0.0082
    --------------------------------------------
      LOOP:  cpu time    5.5084: real time    5.5223

 eigenvalue-minimisations  :  2976
 total energy-change (2. order) :-0.2070359E-03  (-0.4152912E-04)
 number of electron      71.9999981 magnetization       0.0140840
 augmentation part       10.4416540 magnetization       0.0149759

 Broyden mixing:
  rms(total) = 0.12704E-01    rms(broyden)= 0.12704E-01
  rms(prec ) = 0.13210E-01
  weight for this iteration     100.00

 eigenvalues of (default mixing * dielectric matrix)
  average eigenvalue GAMMA=   0.9480
  2.9907  2.4545  1.4867  1.1890  1.1890  0.7401  0.7401  0.5978  0.5978  0.4821
  0.4821  0.2681  0.2795  0.3347  0.3875

 Free energy of the ion-electron system (eV)
  ---------------------------------------------------
  alpha Z        PSCENC =       101.49540615
  Ewald energy   TEWEN  =     -2683.79588848
  -Hartree energ DENC   =      -901.15314567
  -exchange      EXHF   =         0.00000000
  -V(xc)+E(xc)   XCENC  =      -719.85798166
  PAW double counting   =      4406.99061727    -3626.93060306
  entropy T*S    EENTRO =        -0.00399931
  eigenvalues    EBANDS =       -51.79440403
  atomic energy  EATOM  =      3405.38964915
  Solvation  Ediel_sol  =         0.00000000
  ---------------------------------------------------
  free energy    TOTEN  =       -69.66034963 eV

  energy without entropy =      -69.65635032  energy(sigma->0) =      -69.65901653


--------------------------------------------------------------------------------------------------------




--------------------------------------- Iteration      1(  21)  ---------------------------------------


    POTLOK:  cpu time    0.2310: real time    0.2317
    SETDIJ:  cpu time    0.0227: real time    0.0227
     EDDAV:  cpu time    4.8716: real time    4.8852
       DOS:  cpu time    0.0036: real time    0.0036
    CHARGE:  cpu time    0.3779: real time    0.3789
    MIXING:  cpu time    0.0095: real time    0.0096
    --------------------------------------------
      LOOP:  cpu time    5.5163: real time    5.5317

 eigenvalue-minimisations  :  2904
 total energy-change (2. order) :-0.2610193E-03  (-0.3165370E-04)
 number of electron      71.9999981 magnetization       0.0075968
 augmentation part       10.4447619 magnetization       0.0049797

 Broyden mixing:
  rms(total) = 0.90744E-02    rms(broyden)= 0.90743E-02
  rms(prec ) = 0.93427E-02
  weight for this iteration     100.00

 eigenvalues of (default mixing * dielectric matrix)
  average eigenvalue GAMMA=   1.0341
  4.0431  2.3675  1.7137  1.7137  0.9076  0.9076  0.7185  0.7185  0.6046  0.6046
  0.4881  0.4881  0.3884  0.2681  0.2795  0.3346

 Free energy of the ion-electron system (eV)
  ---------------------------------------------------
  alpha Z        PSCENC =       101.49540615
  Ewald energy   TEWEN  =     -2683.79588848
  -Hartree energ DENC   =      -901.12297963
  -exchange      EXHF   =         0.00000000
  -V(xc)+E(xc)   XCENC  =      -719.84542492
  PAW double counting   =      4407.64400170    -3627.59371181
  entropy T*S    EENTRO =        -0.00400280
  eigenvalues    EBANDS =       -51.82766002
  atomic energy  EATOM  =      3405.38964915
  Solvation  Ediel_sol  =         0.00000000
  ---------------------------------------------------
  free energy    TOTEN  =       -69.66061065 eV

  energy without entropy =      -69.65660785  energy(sigma->0) =      -69.65927639


--------------------------------------------------------------------------------------------------------




--------------------------------------- Iteration      1(  22)  ---------------------------------------


    POTLOK:  cpu time    0.2625: real time    0.2632
    SETDIJ:  cpu time    0.0251: real time    0.0252
     EDDAV:  cpu time    5.2736: real time    5.2870
       DOS:  cpu time    0.0035: real time    0.0036
    CHARGE:  cpu time    0.3781: real time    0.3791
    MIXING:  cpu time    0.0101: real time    0.0101
    --------------------------------------------
      LOOP:  cpu time    5.9530: real time    5.9683

 eigenvalue-minimisations  :  3040
 total energy-change (2. order) :-0.1560068E-03  (-0.3437110E-04)
 number of electron      71.9999981 magnetization       0.0023421
 augmentation part       10.4490531 magnetization       0.0012412

 Broyden mixing:
  rms(total) = 0.52358E-02    rms(broyden)= 0.52356E-02
  rms(prec ) = 0.53525E-02
  weight for this iteration     100.00

 eigenvalues of (default mixing * dielectric matrix)
  average eigenvalue GAMMA=   1.1358
  5.7557  2.4102  1.8687  1.8687  0.9509  0.9509  0.7273  0.7273  0.7139  0.5386
  0.5386  0.4941  0.4941  0.2681  0.2795  0.3347  0.3876

 Free energy of the ion-electron system (eV)
  ---------------------------------------------------
  alpha Z        PSCENC =       101.49540615
  Ewald energy   TEWEN  =     -2683.79588848
  -Hartree energ DENC   =      -901.06472214
  -exchange      EXHF   =         0.00000000
  -V(xc)+E(xc)   XCENC  =      -719.82897973
  PAW double counting   =      4407.38432921    -3627.33632139
  entropy T*S    EENTRO =        -0.00401384
  eigenvalues    EBANDS =       -51.90022560
  atomic energy  EATOM  =      3405.38964915
  Solvation  Ediel_sol  =         0.00000000
  ---------------------------------------------------
  free energy    TOTEN  =       -69.66076666 eV

  energy without entropy =      -69.65675281  energy(sigma->0) =      -69.65942871


--------------------------------------------------------------------------------------------------------




--------------------------------------- Iteration      1(  23)  ---------------------------------------


    POTLOK:  cpu time    0.2545: real time    0.2552
    SETDIJ:  cpu time    0.0252: real time    0.0253
     EDDAV:  cpu time    5.1427: real time    5.1556
       DOS:  cpu time    0.0036: real time    0.0036
    CHARGE:  cpu time    0.3778: real time    0.3789
    MIXING:  cpu time    0.0104: real time    0.0104
    --------------------------------------------
      LOOP:  cpu time    5.8141: real time    5.8290

 eigenvalue-minimisations  :  2952
 total energy-change (2. order) :-0.7126739E-04  (-0.1501666E-04)
 number of electron      71.9999981 magnetization       0.0001262
 augmentation part       10.4523753 magnetization      -0.0009495

 Broyden mixing:
  rms(total) = 0.24379E-02    rms(broyden)= 0.24378E-02
  rms(prec ) = 0.25768E-02
  weight for this iteration     100.00

 eigenvalues of (default mixing * dielectric matrix)
  average eigenvalue GAMMA=   1.2255
  7.6393  2.4513  1.8703  1.8703  1.1773  0.8541  0.8541  0.7578  0.7578  0.5675
  0.5675  0.4872  0.4872  0.2681  0.2795  0.3347  0.3880  0.4473

 Free energy of the ion-electron system (eV)
  ---------------------------------------------------
  alpha Z        PSCENC =       101.49540615
  Ewald energy   TEWEN  =     -2683.79588848
  -Hartree energ DENC   =      -901.02108180
  -exchange      EXHF   =         0.00000000
  -V(xc)+E(xc)   XCENC  =      -719.81379651
  PAW double counting   =      4406.92519773    -3626.87036279
  entropy T*S    EENTRO =        -0.00401560
  eigenvalues    EBANDS =       -51.96594578
  atomic energy  EATOM  =      3405.38964915
  Solvation  Ediel_sol  =         0.00000000
  ---------------------------------------------------
  free energy    TOTEN  =       -69.66083793 eV

  energy without entropy =      -69.65682233  energy(sigma->0) =      -69.65949939


--------------------------------------------------------------------------------------------------------




--------------------------------------- Iteration      1(  24)  ---------------------------------------


    POTLOK:  cpu time    0.2584: real time    0.2591
    SETDIJ:  cpu time    0.0251: real time    0.0252
     EDDAV:  cpu time    5.1468: real time    5.1598
       DOS:  cpu time    0.0035: real time    0.0036
    CHARGE:  cpu time    0.3739: real time    0.3748
    MIXING:  cpu time    0.0109: real time    0.0109
    --------------------------------------------
      LOOP:  cpu time    5.8186: real time    5.8332

 eigenvalue-minimisations  :  2952
 total energy-change (2. order) :-0.1141893E-04  (-0.4063608E-05)
 number of electron      71.9999981 magnetization      -0.0002189
 augmentation part       10.4536120 magnetization      -0.0011624

 Broyden mixing:
  rms(total) = 0.16045E-02    rms(broyden)= 0.16045E-02
  rms(prec ) = 0.16970E-02
  weight for this iteration     100.00

 eigenvalues of (default mixing * dielectric matrix)
  average eigenvalue GAMMA=   1.2820
  8.8056  2.4304  1.8626  1.6688  1.6688  0.9892  0.8743  0.8743  0.6918  0.6918
  0.5701  0.5701  0.4875  0.4875  0.2681  0.2795  0.3347  0.3882  0.4149

 Free energy of the ion-electron system (eV)
  ---------------------------------------------------
  alpha Z        PSCENC =       101.49540615
  Ewald energy   TEWEN  =     -2683.79588848
  -Hartree energ DENC   =      -901.00451497
  -exchange      EXHF   =         0.00000000
  -V(xc)+E(xc)   XCENC  =      -719.80709364
  PAW double counting   =      4406.72570344    -3626.66905681
  entropy T*S    EENTRO =        -0.00401397
  eigenvalues    EBANDS =       -51.99104022
  atomic energy  EATOM  =      3405.38964915
  Solvation  Ediel_sol  =         0.00000000
  ---------------------------------------------------
  free energy    TOTEN  =       -69.66084934 eV

  energy without entropy =      -69.65683537  energy(sigma->0) =      -69.65951135


--------------------------------------------------------------------------------------------------------




--------------------------------------- Iteration      1(  25)  ---------------------------------------


    POTLOK:  cpu time    0.2625: real time    0.2635
    SETDIJ:  cpu time    0.0252: real time    0.0252
     EDDAV:  cpu time    4.7678: real time    4.7804
       DOS:  cpu time    0.0036: real time    0.0036
    CHARGE:  cpu time    0.3775: real time    0.3786
    MIXING:  cpu time    0.0114: real time    0.0115
    --------------------------------------------
      LOOP:  cpu time    5.4480: real time    5.4628

 eigenvalue-minimisations  :  2680
 total energy-change (2. order) :-0.1477397E-05  (-0.1440877E-05)
 number of electron      71.9999981 magnetization      -0.0001584
 augmentation part       10.4531357 magnetization      -0.0000424

 Broyden mixing:
  rms(total) = 0.10382E-02    rms(broyden)= 0.10381E-02
  rms(prec ) = 0.10948E-02
  weight for this iteration     100.00

 eigenvalues of (default mixing * dielectric matrix)
  average eigenvalue GAMMA=   1.2915
  9.0321  2.2934  1.9736  1.7772  1.7772  1.3273  0.8810  0.8810  0.7368  0.7368
  0.5977  0.5977  0.2681  0.2795  0.3347  0.4899  0.4899  0.3879  0.5147  0.4534

 Free energy of the ion-electron system (eV)
  ---------------------------------------------------
  alpha Z        PSCENC =       101.49540615
  Ewald energy   TEWEN  =     -2683.79588848
  -Hartree energ DENC   =      -901.00785982
  -exchange      EXHF   =         0.00000000
  -V(xc)+E(xc)   XCENC  =      -719.80955432
  PAW double counting   =      4406.69623942    -3626.64037154
  entropy T*S    EENTRO =        -0.00401019
  eigenvalues    EBANDS =       -51.98446119
  atomic energy  EATOM  =      3405.38964915
  Solvation  Ediel_sol  =         0.00000000
  ---------------------------------------------------
  free energy    TOTEN  =       -69.66085082 eV

  energy without entropy =      -69.65684063  energy(sigma->0) =      -69.65951409


--------------------------------------------------------------------------------------------------------




--------------------------------------- Iteration      1(  26)  ---------------------------------------


    POTLOK:  cpu time    0.2541: real time    0.2549
    SETDIJ:  cpu time    0.0251: real time    0.0252
     EDDAV:  cpu time    3.9697: real time    3.9797
       DOS:  cpu time    0.0036: real time    0.0036
    --------------------------------------------
      LOOP:  cpu time    4.2525: real time    4.2634

 eigenvalue-minimisations  :  2104
 total energy-change (2. order) :-0.4103035E-06  (-0.5941952E-06)
 number of electron      71.9999981 magnetization      -0.0001584
 augmentation part       10.4531357 magnetization      -0.0000424

 Free energy of the ion-electron system (eV)
  ---------------------------------------------------
  alpha Z        PSCENC =       101.49540615
  Ewald energy   TEWEN  =     -2683.79588848
  -Hartree energ DENC   =      -901.00796216
  -exchange      EXHF   =         0.00000000
  -V(xc)+E(xc)   XCENC  =      -719.81166773
  PAW double counting   =      4406.69590039    -3626.64380532
  entropy T*S    EENTRO =        -0.00400962
  eigenvalues    EBANDS =       -51.97847362
  atomic energy  EATOM  =      3405.38964915
  Solvation  Ediel_sol  =         0.00000000
  ---------------------------------------------------
  free energy    TOTEN  =       -69.66085123 eV

  energy without entropy =      -69.65684161  energy(sigma->0) =      -69.65951469


--------------------------------------------------------------------------------------------------------




 average (electrostatic) potential at core
  the test charge radii are     1.0210  1.4024
  (the norm of the test charge is              1.0000)
       1 -47.1047       2 -47.2431       3 -47.0666       4 -47.1045       5 -47.2431
       6 -47.0672       7 -63.2519       8 -63.4000       9 -63.3873      10 -63.2514
      11 -63.3999      12 -63.3874
 
 
 
 E-fermi :   2.8465     XC(G=0):  -8.7821     alpha+bet : -8.1043


 spin component 1

 k-point     1 :       0.0000    0.0000    0.0000
  band No.  band energies     occupation 
      1      -8.1142      1.00000
      2      -7.9698      1.00000
      3      -7.9114      1.00000
      4      -7.6342      1.00000
      5      -7.5365      1.00000
      6      -7.3575      1.00000
      7      -0.7725      1.00000
      8      -0.5496      1.00000
      9      -0.4905      1.00000
     10      -0.3570      1.00000
     11      -0.3570      1.00000
     12      -0.2660      1.00000
     13      -0.2660      1.00000
     14      -0.2447      1.00000
     15      -0.1550      1.00000
     16      -0.1550      1.00000
     17       0.1273      1.00000
     18       0.1273      1.00000
     19       0.2044      1.00000
     20       0.2044      1.00000
     21       0.2886      1.00000
     22       0.2886      1.00000
     23       0.3268      1.00000
     24       0.8243      1.00000
     25       1.4345      1.00000
     26       1.8001      1.00000
     27       1.8001      1.00000
     28       1.8563      1.00000
     29       1.8563      1.00000
     30       2.0027      1.00000
     31       2.0027      1.00000
     32       2.2797      1.00000
     33       3.5904     -0.00000
     34       3.7397     -0.00000
     35       3.7397     -0.00000
     36       3.8539     -0.00000
     37       3.8540     -0.00000
     38       3.9630     -0.00000
     39       3.9630     -0.00000
     40       4.1055     -0.00000
     41       4.1828     -0.00000
     42       4.1828     -0.00000
     43       4.5287     -0.00000

 k-point     2 :       0.2500   -0.0000    0.0000
  band No.  band energies     occupation 
      1      -7.8300      1.00000
      2      -7.6945      1.00000
      3      -7.6465      1.00000
      4      -7.4394      1.00000
      5      -7.3345      1.00000
      6      -7.1973      1.00000
      7      -0.7675      1.00000
      8      -0.5917      1.00000
      9      -0.5337      1.00000
     10      -0.3412      1.00000
     11      -0.2748      1.00000
     12      -0.2514      1.00000
     13      -0.1554      1.00000
     14      -0.1487      1.00000
     15      -0.0963      1.00000
     16      -0.0420      1.00000
     17       0.1075      1.00000
     18       0.1344      1.00000
     19       0.1667      1.00000
     20       0.1920      1.00000
     21       0.2542      1.00000
     22       0.2884      1.00000
     23       0.3774      1.00000
     24       0.6113      1.00000
     25       0.8985      1.00000
     26       1.1401      1.00000
     27       1.2374      1.00000
     28       1.5628      1.00000
     29       1.7731      1.00000
     30       1.8026      1.00000
     31       1.8590      1.00000
     32       1.9939      1.00000
     33       2.1089      1.00000
     34       2.4152      1.00000
     35       2.8281      0.65257
     36       3.1249     -0.00030
     37       3.4841     -0.00000
     38       3.5206     -0.00000
     39       3.6725     -0.00000
     40       3.8020     -0.00000
     41       3.8130     -0.00000
     42       3.9535     -0.00000
     43       3.9765     -0.00000

 k-point     3 :       0.5000   -0.0000    0.0000
  band No.  band energies     occupation 
      1      -7.4581      1.00000
      2      -7.3576      1.00000
      3      -7.3107      1.00000
      4      -7.2337      1.00000
      5      -7.1453      1.00000
      6      -7.0660      1.00000
      7      -1.0336      1.00000
      8      -0.8386      1.00000
      9      -0.7341      1.00000
     10      -0.5086      1.00000
     11      -0.3598      1.00000
     12      -0.3448      1.00000
     13      -0.2261      1.00000
     14      -0.2025      1.00000
     15      -0.0379      1.00000
     16      -0.0005      1.00000
     17       0.0826      1.00000
     18       0.1619      1.00000
[...]
     34       1.8582      1.00000
     35       2.2002      1.00000
     36       2.3399      1.00000
     37       2.5042      1.00001
     38       2.6932      1.02615
     39       3.2470     -0.00000
     40       3.4294     -0.00000
     41       3.6323     -0.00000
     42       3.7422     -0.00000
     43       3.7762     -0.00000

 k-point    10 :       0.5000    0.5000   -0.0000
  band No.  band energies     occupation 
      1      -7.4582      1.00000
      2      -7.3576      1.00000
      3      -7.3106      1.00000
      4      -7.2335      1.00000
      5      -7.1452      1.00000
      6      -7.0662      1.00000
      7      -1.0336      1.00000
      8      -0.8385      1.00000
      9      -0.7343      1.00000
     10      -0.5084      1.00000
     11      -0.3599      1.00000
     12      -0.3450      1.00000
     13      -0.2260      1.00000
     14      -0.2025      1.00000
     15      -0.0379      1.00000
     16      -0.0006      1.00000
     17       0.0824      1.00000
     18       0.1621      1.00000
     19       0.1687      1.00000
     20       0.2390      1.00000
     21       0.2501      1.00000
     22       0.3304      1.00000
     23       0.3547      1.00000
     24       0.3914      1.00000
     25       0.4966      1.00000
     26       0.6033      1.00000
     27       0.7073      1.00000
     28       1.3501      1.00000
     29       1.5079      1.00000
     30       1.7483      1.00000
     31       1.7604      1.00000
     32       1.8323      1.00000
     33       1.8986      1.00000
     34       2.0924      1.00000
     35       2.2794      1.00000
     36       2.4703      1.00000
     37       3.0053     -0.02361
     38       3.1500     -0.00008
     39       3.4095     -0.00000
     40       3.5878     -0.00000
     41       3.6268     -0.00000
     42       3.7997     -0.00000
     43       3.8211     -0.00000


--------------------------------------------------------------------------------------------------------


 soft charge-density along one line, spin component           1
         0         1         2         3         4         5         6         7         8         9
 total charge-density along one line
 
 soft charge-density along one line, spin component           2
         0         1         2         3         4         5         6         7         8         9
 total charge-density along one line
 
 pseudopotential strength for first ion, spin component:           1
 -8.493  -0.000  -0.000   0.038   0.000  -9.008  -0.000  -0.000
 -0.000  -8.495  -0.000  -0.000   0.038  -0.000  -9.010  -0.000
 -0.000  -0.000  -8.411   0.000   0.000  -0.000  -0.000  -8.927
  0.038  -0.000   0.000  -8.495  -0.000   0.037  -0.000   0.000
  0.000   0.038   0.000  -0.000  -8.493   0.000   0.037   0.000
 -9.008  -0.000  -0.000   0.037   0.000  -9.499  -0.000  -0.000
 -0.000  -9.010  -0.000  -0.000   0.037  -0.000  -9.500  -0.000
 -0.000  -0.000  -8.927   0.000   0.000  -0.000  -0.000  -9.419
  0.037  -0.000   0.000  -9.010  -0.000   0.037  -0.000   0.000
  0.000   0.037   0.000  -0.000  -9.008   0.000   0.037   0.000
 -0.000   0.000  -0.006   0.000   0.000  -0.000   0.000  -0.006
 -0.000   0.000  -0.012   0.000   0.000  -0.000   0.000  -0.012
 -0.000   0.007   0.000   0.000   0.009  -0.000   0.007   0.000
  0.000   0.000  -0.012  -0.000  -0.000   0.000   0.000  -0.012
  0.009   0.000   0.000   0.007  -0.000   0.009   0.000   0.000
  0.000   0.008  -0.000   0.000   0.010   0.000   0.008   0.000
  0.000   0.000  -0.014  -0.000   0.000   0.000   0.000  -0.014
  0.010   0.000  -0.000   0.008  -0.000   0.010   0.000  -0.000
 pseudopotential strength for first ion, spin component:           2
 -6.214  -0.000  -0.000  -0.062  -0.000  -6.773  -0.000  -0.000
 -0.000  -6.137   0.000  -0.000  -0.062  -0.000  -6.696   0.000
 -0.000   0.000  -6.238  -0.000  -0.000  -0.000   0.000  -6.796
 -0.062  -0.000  -0.000  -6.137   0.000  -0.062  -0.000  -0.000
 -0.000  -0.062  -0.000   0.000  -6.214  -0.000  -0.062  -0.000
 -6.773  -0.000  -0.000  -0.062  -0.000  -7.306  -0.000  -0.000
 -0.000  -6.696   0.000  -0.000  -0.062  -0.000  -7.231   0.000
 -0.000   0.000  -6.796  -0.000  -0.000  -0.000   0.000  -7.329
 -0.062  -0.000  -0.000  -6.696   0.000  -0.061  -0.000  -0.000
 -0.000  -0.062  -0.000   0.000  -6.773  -0.000  -0.061  -0.000
  0.000  -0.000  -0.004   0.000  -0.000   0.000  -0.000  -0.004
  0.000  -0.000  -0.007   0.000  -0.000   0.000  -0.000  -0.007
 -0.000  -0.001   0.000   0.000  -0.004  -0.000  -0.001   0.000
  0.000   0.000   0.013  -0.000  -0.000   0.000   0.000   0.013
 -0.004   0.000   0.000  -0.001  -0.000  -0.004   0.000   0.000
 -0.000  -0.002   0.000   0.000  -0.006  -0.000  -0.002   0.000
  0.000   0.000   0.018  -0.000  -0.000   0.000   0.000   0.017
 -0.006   0.000   0.000  -0.002  -0.000  -0.006   0.000   0.000
 total augmentation occupancy for first ion, spin component:           1
  2.767   0.000  -0.000  -0.015   0.000  -1.305  -0.000  -0.000  -0.083  -0.000  -0.000   0.000   0.000   0.000  -0.123   0.000
  0.000   2.799   0.000   0.000  -0.015  -0.000  -1.260  -0.000   0.000  -0.085  -0.000   0.000  -0.090  -0.000  -0.000   0.003
 -0.000   0.000   2.917  -0.000  -0.000   0.000  -0.000  -1.463   0.000   0.000   0.042  -0.018  -0.000   0.208  -0.000   0.000
 -0.015   0.000  -0.000   2.799  -0.000  -0.085   0.000   0.000  -1.260   0.000  -0.000   0.000  -0.000  -0.000  -0.090   0.000
  0.000  -0.015  -0.000  -0.000   2.767  -0.000  -0.083  -0.000   0.000  -1.305  -0.000   0.000  -0.123   0.000  -0.000   0.006
 -1.305  -0.000   0.000  -0.085  -0.000   0.983   0.000   0.000   0.220   0.000   0.000   0.000  -0.000  -0.000   0.177   0.000
 -0.000  -1.260  -0.000   0.000  -0.083   0.000   0.834   0.000  -0.000   0.220   0.000  -0.000   0.129   0.000   0.000  -0.006
 -0.000  -0.000  -1.463   0.000  -0.000   0.000   0.000   1.220   0.000  -0.000  -0.008   0.007  -0.000  -0.263   0.000  -0.000
 -0.083   0.000   0.000  -1.260   0.000   0.220  -0.000   0.000   0.834  -0.000   0.000  -0.000   0.000   0.000   0.129  -0.000
 -0.000  -0.085   0.000   0.000  -1.305   0.000   0.220  -0.000  -0.000   0.983   0.000  -0.000   0.177   0.000   0.000  -0.008
 -0.000  -0.000   0.042  -0.000  -0.000   0.000   0.000  -0.008   0.000   0.000   1.576  -0.091  -0.000   0.004  -0.000  -0.000
  0.000   0.000  -0.018   0.000   0.000   0.000  -0.000   0.007  -0.000  -0.000  -0.091   0.017   0.000   0.001   0.000  -0.000
  0.000  -0.090  -0.000  -0.000  -0.123  -0.000   0.129  -0.000   0.000   0.177  -0.000   0.000   0.114   0.000   0.000  -0.005
  0.000  -0.000   0.208  -0.000   0.000  -0.000   0.000  -0.263   0.000   0.000   0.004   0.001   0.000   0.128   0.000  -0.000
 -0.123  -0.000  -0.000  -0.090  -0.000   0.177   0.000   0.000   0.129   0.000  -0.000   0.000   0.000   0.000   0.114   0.000
  0.000   0.003   0.000   0.000   0.006   0.000  -0.006  -0.000  -0.000  -0.008  -0.000  -0.000  -0.005  -0.000   0.000   0.000
  0.000   0.000  -0.008   0.000  -0.000  -0.000   0.000   0.011  -0.000   0.000  -0.000   0.000  -0.000  -0.005  -0.000   0.000
  0.006   0.000   0.000   0.003  -0.000  -0.008  -0.000  -0.000  -0.006   0.000   0.000  -0.000  -0.000   0.000  -0.005  -0.000
 total augmentation occupancy for first ion, spin component:           2
  2.531   0.000  -0.000  -0.118   0.000  -0.913  -0.000   0.000   0.073  -0.000  -0.000   0.000  -0.000  -0.000  -0.027   0.000
  0.000   2.641   0.000   0.000  -0.118  -0.000  -0.994  -0.000  -0.000   0.076  -0.000   0.000  -0.018   0.000  -0.000  -0.002
 -0.000   0.000   2.599  -0.000  -0.000   0.000  -0.000  -1.006   0.000   0.000  -0.009  -0.015  -0.000   0.114  -0.000   0.000
 -0.118   0.000  -0.000   2.641   0.000   0.076  -0.000   0.000  -0.994  -0.000  -0.000   0.000  -0.000  -0.000  -0.018   0.000
  0.000  -0.118  -0.000   0.000   2.531  -0.000   0.073   0.000  -0.000  -0.913  -0.000   0.000  -0.027  -0.000   0.000  -0.000
 -0.913  -0.000   0.000   0.076  -0.000   0.198   0.000  -0.000  -0.107   0.000  -0.000  -0.000   0.000   0.000  -0.020  -0.000
 -0.000  -0.994  -0.000  -0.000   0.073   0.000   0.303   0.000   0.000  -0.107   0.000  -0.000  -0.015  -0.000   0.000   0.002
  0.000  -0.000  -1.006   0.000   0.000  -0.000   0.000   0.231  -0.000  -0.000  -0.004   0.004   0.000  -0.028   0.000  -0.000
  0.073  -0.000   0.000  -0.994  -0.000  -0.107   0.000  -0.000   0.303   0.000   0.000  -0.000   0.000   0.000  -0.015  -0.000
 -0.000   0.076   0.000  -0.000  -0.913   0.000  -0.107  -0.000   0.000   0.198   0.000  -0.000  -0.020   0.000  -0.000   0.001
 -0.000  -0.000  -0.009  -0.000  -0.000  -0.000   0.000  -0.004   0.000   0.000  -0.064   0.089   0.000   0.010  -0.000  -0.000
  0.000   0.000  -0.015   0.000   0.000  -0.000  -0.000   0.004  -0.000  -0.000   0.089  -0.006  -0.000   0.002   0.000  -0.000
 -0.000  -0.018  -0.000  -0.000  -0.027   0.000  -0.015   0.000   0.000  -0.020   0.000  -0.000   0.009   0.000   0.000   0.000
 -0.000   0.000   0.114  -0.000  -0.000   0.000  -0.000  -0.028   0.000   0.000   0.010   0.002   0.000   0.026   0.000   0.000
 -0.027  -0.000  -0.000  -0.018   0.000  -0.020   0.000   0.000  -0.015  -0.000  -0.000   0.000   0.000   0.000   0.009  -0.000
  0.000  -0.002   0.000   0.000  -0.000  -0.000   0.002  -0.000  -0.000   0.001  -0.000  -0.000   0.000   0.000  -0.000  -0.000
  0.000  -0.000  -0.001   0.000  -0.000  -0.000   0.000  -0.000  -0.000   0.000   0.001  -0.000  -0.000  -0.000  -0.000   0.000
 -0.000   0.000   0.000  -0.002  -0.000   0.001  -0.000  -0.000   0.002   0.000   0.000  -0.000  -0.000   0.000   0.000   0.000


------------------------ aborting loop because EDIFF is reached ----------------------------------------


 


 total charge     
 
# of ion       s       p       d       tot
------------------------------------------
    1        0.313   0.203   4.941   5.457
    2        0.321   0.202   4.926   5.449
    3        0.313   0.198   4.945   5.456
    4        0.313   0.203   4.941   5.457
    5        0.321   0.202   4.926   5.449
    6        0.313   0.198   4.945   5.456
    7        1.678   2.247   0.062   3.987
    8        1.684   2.226   0.060   3.971
    9        1.685   2.233   0.059   3.977
   10        1.678   2.247   0.062   3.987
   11        1.684   2.226   0.060   3.971
   12        1.684   2.233   0.059   3.977
--------------------------------------------------
tot         11.989  14.620  29.985  56.594
 


 magnetization (x)
 
# of ion       s       p       d       tot
------------------------------------------
    1        0.059   0.029   3.791   3.879
    2        0.071   0.025   3.807   3.903
    3        0.057   0.020   3.782   3.858
    4       -0.059  -0.029  -3.791  -3.879
    5       -0.071  -0.025  -3.807  -3.903
    6       -0.057  -0.020  -3.782  -3.858
    7       -0.000   0.234  -0.015   0.218
    8        0.002  -0.374   0.032  -0.340
    9        0.004  -0.352   0.030  -0.318
   10        0.000  -0.234   0.015  -0.218
   11       -0.002   0.374  -0.032   0.340
   12       -0.004   0.352  -0.030   0.318
--------------------------------------------------
tot          0.000  -0.000   0.000  -0.000
 
    CHARGE:  cpu time    0.3775: real time    0.3784
    FORLOC:  cpu time    0.0161: real time    0.0163
    FORNL :  cpu time    1.4449: real time    1.4485
    STRESS:  cpu time    1.5274: real time    1.5313
    FORCOR:  cpu time    0.2705: real time    0.2712
    FORHAR:  cpu time    0.0383: real time    0.0384
    MIXING:  cpu time    0.0119: real time    0.0120
    OFIELD:  cpu time    0.0000: real time    0.0000

  FORCE on cell =-STRESS in cart. coord.  units (eV):
  Direction    XX          YY          ZZ          XY          YZ          ZX
  --------------------------------------------------------------------------------------
  Alpha Z   101.49541   101.49541   101.49541
  Ewald    -894.60019  -894.60028  -894.60037     0.00003     0.00004     0.00002
  Hartree   300.20827   300.20823   300.59950    -0.00001     0.00004     0.00004
  E(xc)    -341.40147  -341.40146  -341.72357     0.00001    -0.00001    -0.00001
  Local    -152.48428  -152.48411  -155.25670     0.00001    -0.00013    -0.00011
  n-local   331.68659   331.68659   332.86239     0.00001     0.00004     0.00002
  augment    25.04119    25.04121    24.97367     0.00000    -0.00006    -0.00002
  Kinetic   628.59576   628.59577   634.03265    -0.00003    -0.00001     0.00006
  Fock        0.00000     0.00000     0.00000     0.00000     0.00000     0.00000
  -------------------------------------------------------------------------------------
  Total      -1.45872    -1.45865     2.38297     0.00002    -0.00009    -0.00000
  in kB      -6.04291    -6.04265     9.87174     0.00009    -0.00038    -0.00002
  external pressure =       -0.74 kB  Pullay stress =        0.00 kB


 VOLUME and BASIS-vectors are now :
 -----------------------------------------------------------------------------
  energy-cutoff  :      500.00
  volume of cell :      386.75
      direct lattice vectors                 reciprocal lattice vectors
     4.500557900  0.000000000  0.000000000     0.222194675 -0.128284152  0.000000003
     2.250278900  3.897597500  0.000000000     0.000000000  0.256568309 -0.000000002
    -0.000000200  0.000000200 22.048140600     0.000000000  0.000000000  0.045355299

  length of vectors
     4.500557900  4.500557899 22.048140600     0.256568309  0.256568309  0.045355299


 FORCES acting on ions
    electron-ion (+dipol)            ewald-force                    non-local-force                 convergence-correction
 -----------------------------------------------------------------------------------------------
   -.288E-06 0.174E-06 0.203E+00   -.287E-05 -.254E-05 -.393E-05   -.475E-05 -.648E-05 -.204E+00   0.744E-05 0.930E-05 0.791E-02
   -.621E-05 0.121E-04 -.148E+00   -.265E-05 -.251E-05 -.115E-06   -.364E-06 -.431E-05 0.228E+00   0.745E-05 -.913E-05 0.862E-02
   0.860E-05 0.587E-05 0.498E+00   -.288E-05 -.255E-05 -.227E-05   -.354E-05 0.729E-05 -.309E+00   -.683E-05 -.107E-04 0.430E-02
   0.967E-05 0.220E-04 0.213E+00   -.287E-05 -.254E-05 -.393E-05   0.211E-05 -.153E-05 -.204E+00   -.904E-05 -.232E-04 -.170E-02
   0.300E-04 -.583E-05 -.129E+00   -.265E-05 -.251E-05 -.115E-06   0.198E-04 -.193E-05 0.228E+00   -.418E-04 0.690E-05 -.101E-01
   -.500E-05 -.396E-05 0.509E+00   -.288E-05 -.255E-05 -.227E-05   -.117E-04 -.735E-06 -.308E+00   0.164E-04 0.115E-04 -.774E-02
   0.167E-04 0.104E-04 -.189E+00   0.288E-05 0.255E-05 0.227E-05   -.219E-04 -.101E-04 -.134E-01   0.219E-05 -.445E-05 -.183E-02
   -.858E-05 0.212E-05 -.342E+00   0.286E-05 0.251E-05 0.576E-06   -.299E-06 -.281E-05 0.411E+00   0.316E-05 -.542E-06 0.731E-02
   -.631E-05 0.121E-05 0.100E+00   0.267E-05 0.254E-05 0.346E-05   0.832E-05 -.413E-05 -.266E+00   -.102E-05 0.146E-05 0.369E-02
   -.180E-06 0.188E-05 -.194E+00   0.288E-05 0.255E-05 0.227E-05   0.112E-05 -.371E-05 -.136E-01   -.266E-05 0.230E-05 0.280E-02
   0.450E-05 -.106E-04 -.332E+00   0.286E-05 0.251E-05 0.576E-06   -.706E-05 0.120E-06 0.410E+00   -.170E-05 0.891E-05 -.194E-02
   -.221E-04 0.109E-04 0.114E+00   0.267E-05 0.254E-05 0.346E-05   0.185E-04 -.662E-05 -.266E+00   0.753E-05 -.772E-05 -.100E-01
 -----------------------------------------------------------------------------------------------
   0.208E-04 0.463E-04 0.305E+00   -.832E-14 0.926E-14 -.140E-13   0.191E-06 -.349E-04 -.307E+00   -.189E-04 -.154E-04 0.135E-02
 
 
 POSITION                                       TOTAL-FORCE (eV/Angst)
 -----------------------------------------------------------------------------------
      4.50056      0.00000      2.75602        -0.000001      0.000001      0.007023
      2.25028      1.29920      6.43071        -0.000002     -0.000003      0.089436
      4.50056      2.59840     10.10540        -0.000005      0.000000      0.193601
      4.50056      0.00000     13.78009        -0.000000     -0.000005      0.007142
      2.25028      1.29920     17.45478         0.000005     -0.000003      0.089283
      4.50056      2.59840     21.12947        -0.000003      0.000005      0.193429
      0.00000      0.00000      0.00000        -0.000000     -0.000001     -0.204174
      2.25028      1.29920      3.67469        -0.000003      0.000002      0.075904
      4.50056      2.59840      7.34938         0.000003      0.000001     -0.161584
     -0.00000      0.00000     11.02407         0.000001      0.000003     -0.204383
      2.25028      1.29920     14.69876        -0.000002      0.000001      0.075866
      4.50056      2.59840     18.37345         0.000006     -0.000001     -0.161543
 -----------------------------------------------------------------------------------
    total drift:                                0.000002     -0.000004     -0.000067


--------------------------------------------------------------------------------------------------------



  FREE ENERGIE OF THE ION-ELECTRON SYSTEM (eV)
  ---------------------------------------------------
  free  energy   TOTEN  =       -69.66085123 eV

  energy  without entropy=      -69.65684161  energy(sigma->0) =      -69.65951469
 


--------------------------------------------------------------------------------------------------------


    POTLOK:  cpu time    0.2872: real time    0.2879


--------------------------------------------------------------------------------------------------------


     LOOP+:  cpu time  137.9662: real time  138.3344
    4ORBIT:  cpu time    0.0000: real time    0.0000
 


 total charge     
 
# of ion       s       p       d       tot
------------------------------------------
    1        0.313   0.203   4.941   5.457
    2        0.321   0.202   4.926   5.449
    3        0.313   0.198   4.945   5.456
    4        0.313   0.203   4.941   5.457
    5        0.321   0.202   4.926   5.449
    6        0.313   0.198   4.945   5.456
    7        1.678   2.247   0.062   3.987
    8        1.684   2.226   0.060   3.971
    9        1.685   2.233   0.059   3.977
   10        1.678   2.247   0.062   3.987
   11        1.684   2.226   0.060   3.971
   12        1.684   2.233   0.059   3.977
--------------------------------------------------
tot         11.989  14.620  29.985  56.594
 


 magnetization (x)
 
# of ion       s       p       d       tot
------------------------------------------
    1        0.059   0.029   3.791   3.879
    2        0.071   0.025   3.807   3.903
    3        0.057   0.020   3.782   3.858
    4       -0.059  -0.029  -3.791  -3.879
    5       -0.071  -0.025  -3.807  -3.903
    6       -0.057  -0.020  -3.782  -3.858
    7       -0.000   0.234  -0.015   0.218
    8        0.002  -0.374   0.032  -0.340
    9        0.004  -0.352   0.030  -0.318
   10        0.000  -0.234   0.015  -0.218
   11       -0.002   0.374  -0.032   0.340
   12       -0.004   0.352  -0.030   0.318
--------------------------------------------------
tot          0.000  -0.000   0.000  -0.000
 

 total amount of memory used by VASP MPI-rank0    78361. kBytes
=======================================================================

   base      :      30000. kBytes
   nonl-proj :       3775. kBytes
   fftplans  :       7970. kBytes
   grid      :      19217. kBytes
   one-center:         62. kBytes
   wavefun   :      17337. kBytes
 
  
  
 General timing and accounting informations for this job:
 ========================================================
  
                  Total CPU time used (sec):      139.556
                            User time (sec):      139.284
                          System time (sec):        0.272
                         Elapsed time (sec):      139.937
  
                   Maximum memory used (kb):      128600.
                   Average memory used (kb):           0.
  
                          Minor page faults:        58732
                          Major page faults:            0
                 Voluntary context switches:          142
