       N       E                     dE             d eps       ncg     rms          rms(c)
DAV:   1     0.160133865848E+03    0.16013E+03   -0.98706E+03  1876   0.238E+03
DAV:   2     0.254830117746E+01   -0.15759E+03   -0.13996E+03  1776   0.277E+02
DAV:   3    -0.150014297962E+02   -0.17550E+02   -0.16999E+02  1848   0.102E+02
DAV:   4    -0.159882765854E+02   -0.98685E+00   -0.97277E+00  2676   0.213E+01
DAV:   5    -0.160330352877E+02   -0.44759E-01   -0.44655E-01  2268   0.356E+00    0.132E+01
DAV:   6    -0.202066025037E+02   -0.41736E+01   -0.46468E+01  2304   0.680E+01    0.177E+01
DAV:   7    -0.190860672110E+02    0.11205E+01   -0.28769E+00  1984   0.388E+01    0.656E+00
DAV:   8    -0.187618115841E+02    0.32426E+00   -0.14282E+00  2724   0.142E+01    0.253E+00
DAV:   9    -0.188333079983E+02   -0.71496E-01   -0.13637E+00  2172   0.985E+00    0.333E+00
DAV:  10    -0.187493090219E+02    0.83999E-01   -0.80226E-01  2088   0.738E+00    0.104E+00
DAV:  11    -0.187615179179E+02   -0.12209E-01   -0.18558E-02  2512   0.976E-01    0.540E-01
DAV:  12    -0.187601115162E+02    0.14064E-02   -0.51631E-03  2516   0.685E-01    0.511E-01
DAV:  13    -0.187584038335E+02    0.17077E-02   -0.45613E-03  2396   0.567E-01    0.267E-01
DAV:  14    -0.187581439602E+02    0.25987E-03   -0.14178E-03  2660   0.309E-01    0.154E-01
DAV:  15    -0.187582175573E+02   -0.73597E-04   -0.19660E-03  2092   0.371E-01    0.101E-02
DAV:  16    -0.187582207649E+02   -0.32076E-05   -0.89103E-05  2476   0.469E-02    0.106E-02
DAV:  17    -0.187582202816E+02    0.48334E-06   -0.29305E-06  2444   0.859E-03    0.967E-03
DAV:  18    -0.187582279700E+02   -0.76885E-05   -0.10375E-06  2392   0.825E-03    0.114E-02
DAV:  19    -0.187582129554E+02    0.15015E-04   -0.25716E-06  2052   0.137E-02    0.473E-03
DAV:  20    -0.187582067427E+02    0.62128E-05   -0.69868E-07  1796   0.679E-03    0.216E-03
DAV:  21    -0.187582055153E+02    0.12274E-05   -0.73294E-08  1044   0.234E-03    0.162E-03
DAV:  22    -0.187582070930E+02   -0.15778E-05   -0.54996E-08   960   0.267E-03    0.845E-04
DAV:  23    -0.187582081009E+02   -0.10079E-05   -0.28910E-08   916   0.148E-03    0.320E-04
DAV:  24    -0.187582087181E+02   -0.61715E-06   -0.12138E-08   932   0.907E-04    0.957E-05
DAV:  25    -0.187582088132E+02   -0.95077E-07   -0.33151E-09   908   0.603E-04
   1 F= -.18758209E+02 E0= -.18758209E+02  d E =0.000000E+00  mag=     6.9956
