=========================================
SLURM_JOB_ID = 30545224
SLURM_JOB_NODELIST = lnode57
SLURM_GPUS = 
SLURM_CPUS_ON_NODE = 8
SLURM_JOB_PARTITION = lenovo
SLURM_TASK_PID = 978870
CUDA_VISIBLE_DEVICES = 
==========================================
 running on    8 total cores
 distrk:  each k-point on    8 cores,    1 groups
 distr:  one band on    4 cores,    2 groups
 using from now: INCAR     
 vasp.5.4.4.18Apr17-6-g9f103f2a35 (build Apr 28 2018 00:24:27) complex          
  
 POSCAR found type information on POSCAR  Eu O 
 POSCAR found :  2 types and       4 ions
 scaLAPACK will be used
 LDA part: xc-table for Pade appr. of Perdew
 POSCAR, INCAR and KPOINTS ok, starting setup
 FFT: planning ...
 WAVECAR not read
 entering main loop
       N       E                     dE             d eps       ncg     rms          rms(c)
DAV:   1     0.437557905274E+03    0.43756E+03   -0.18337E+04  4240   0.350E+03
DAV:   2     0.546660725605E+02   -0.38289E+03   -0.36005E+03  4832   0.419E+02
DAV:   3    -0.364179494347E+02   -0.91084E+02   -0.89136E+02  6068   0.261E+02
DAV:   4    -0.441526962980E+02   -0.77347E+01   -0.73390E+01  6204   0.686E+01
DAV:   5    -0.450133468451E+02   -0.86065E+00   -0.81123E+00  6604   0.194E+01    0.268E+01
DAV:   6    -0.859555875751E+02   -0.40942E+02   -0.66687E+02  5932   0.227E+02    0.108E+02
DAV:   7    -0.269928122912E+02    0.58963E+02   -0.45924E+02  5564   0.122E+02    0.245E+01
DAV:   8    -0.409766077160E+02   -0.13984E+02   -0.10661E+02  5720   0.628E+01    0.216E+01
DAV:   9    -0.414565730868E+02   -0.47997E+00   -0.11011E+01  5724   0.230E+01    0.131E+01
DAV:  10    -0.415874453939E+02   -0.13087E+00   -0.21597E+00  6480   0.113E+01    0.872E+00
DAV:  11    -0.417327246349E+02   -0.14528E+00   -0.48909E-01  6800   0.521E+00    0.590E+00
DAV:  12    -0.416879506416E+02    0.44774E-01   -0.13751E+00  6368   0.977E+00    0.253E+00
DAV:  13    -0.416256703206E+02    0.62280E-01   -0.32239E-01  6292   0.452E+00    0.180E+00
DAV:  14    -0.416177365848E+02    0.79337E-02   -0.45366E-02  5976   0.146E+00    0.156E+00
DAV:  15    -0.416123028382E+02    0.54337E-02   -0.18540E-02  6436   0.102E+00    0.116E+00
DAV:  16    -0.416118357941E+02    0.46704E-03   -0.16256E-02  6828   0.117E+00    0.697E-01
DAV:  17    -0.416118701425E+02   -0.34348E-04   -0.34695E-03  6504   0.471E-01    0.456E-01
DAV:  18    -0.416119551784E+02   -0.85036E-04   -0.17417E-03  5792   0.354E-01    0.292E-01
DAV:  19    -0.416120446316E+02   -0.89453E-04   -0.37443E-04  7128   0.153E-01    0.176E-01
DAV:  20    -0.416120530793E+02   -0.84477E-05   -0.74997E-04  5760   0.249E-01    0.423E-02
DAV:  21    -0.416120516184E+02    0.14610E-05   -0.80711E-05  7008   0.660E-02    0.621E-02
DAV:  22    -0.416120481394E+02    0.34789E-05   -0.42729E-05  5956   0.466E-02    0.306E-02
DAV:  23    -0.416120517223E+02   -0.35829E-05   -0.15415E-05  5960   0.255E-02    0.106E-02
DAV:  24    -0.416120515171E+02    0.20522E-06   -0.92816E-07  2552   0.126E-02
   1 F= -.41612052E+02 E0= -.41617217E+02  d E =0.154974E-01  mag=     0.0000
