=========================================
SLURM_JOB_ID = 31881293
SLURM_JOB_NODELIST = lnode51
SLURM_GPUS = 
SLURM_CPUS_ON_NODE = 8
SLURM_JOB_PARTITION = lenovo
SLURM_TASK_PID = 1585530
CUDA_VISIBLE_DEVICES = 
==========================================
 running on    8 total cores
 distrk:  each k-point on    8 cores,    1 groups
 distr:  one band on    4 cores,    2 groups
 using from now: INCAR     
 vasp.5.4.4.18Apr17-6-g9f103f2a35 (build Apr 28 2018 00:24:27) complex          
  
 POSCAR found type information on POSCAR  Eu O 
 POSCAR found :  2 types and       4 ions
 scaLAPACK will be used
 LDA part: xc-table for Pade appr. of Perdew
 generate k-points for:    5    3    5
 POSCAR, INCAR and KPOINTS ok, starting setup
 FFT: planning ...
 WAVECAR not read
 entering main loop
       N       E                     dE             d eps       ncg     rms          rms(c)
DAV:   1     0.431313015671E+03    0.43131E+03   -0.18343E+04  3240   0.352E+03
DAV:   2     0.516313369006E+02   -0.37968E+03   -0.35572E+03  3680   0.416E+02
DAV:   3    -0.365344053512E+02   -0.88166E+02   -0.86324E+02  4468   0.259E+02
DAV:   4    -0.441658904274E+02   -0.76315E+01   -0.72832E+01  4732   0.678E+01
DAV:   5    -0.450228291457E+02   -0.85694E+00   -0.79596E+00  4980   0.190E+01    0.268E+01
DAV:   6    -0.854539058315E+02   -0.40431E+02   -0.66649E+02  4416   0.227E+02    0.108E+02
DAV:   7    -0.285781110529E+02    0.56876E+02   -0.47061E+02  4324   0.122E+02    0.264E+01
DAV:   8    -0.408697172412E+02   -0.12292E+02   -0.92593E+01  4152   0.620E+01    0.206E+01
DAV:   9    -0.414554705183E+02   -0.58575E+00   -0.99231E+00  4300   0.235E+01    0.118E+01
DAV:  10    -0.416603911783E+02   -0.20492E+00   -0.18163E+00  5080   0.105E+01    0.785E+00
DAV:  11    -0.416783267226E+02   -0.17936E-01   -0.48421E-01  5048   0.619E+00    0.505E+00
DAV:  12    -0.416213776317E+02    0.56949E-01   -0.91085E-01  4192   0.834E+00    0.179E+00
DAV:  13    -0.416172244651E+02    0.41532E-02   -0.18916E-01  5064   0.397E+00    0.183E+00
DAV:  14    -0.416152986393E+02    0.19258E-02   -0.14452E-02  3680   0.850E-01    0.170E+00
DAV:  15    -0.416054575434E+02    0.98411E-02   -0.35512E-02  4416   0.148E+00    0.139E+00
DAV:  16    -0.416057736934E+02   -0.31615E-03   -0.14844E-02  4380   0.126E+00    0.969E-01
DAV:  17    -0.416065661737E+02   -0.79248E-03   -0.68279E-03  5036   0.676E-01    0.596E-01
DAV:  18    -0.416070082398E+02   -0.44207E-03   -0.13081E-03  4888   0.330E-01    0.363E-01
DAV:  19    -0.416071603483E+02   -0.15211E-03   -0.49383E-04  5024   0.231E-01    0.209E-01
DAV:  20    -0.416071705671E+02   -0.10219E-04   -0.68061E-04  4568   0.276E-01    0.545E-02
DAV:  21    -0.416071690438E+02    0.15232E-05   -0.71079E-05  4344   0.698E-02    0.261E-02
DAV:  22    -0.416071586605E+02    0.10383E-04   -0.59220E-05  4016   0.586E-02    0.964E-03
DAV:  23    -0.416071589111E+02   -0.25063E-06   -0.78167E-06  3320   0.275E-02
   1 F= -.41607159E+02 E0= -.41610170E+02  d E =0.903397E-02  mag=     0.0000
