=========================================
SLURM_JOB_ID = 37466379
SLURM_JOB_NODELIST = lnode16
SLURM_GPUS = 
SLURM_CPUS_ON_NODE = 8
SLURM_JOB_PARTITION = lenovo
SLURM_TASK_PID = 1588873
CUDA_VISIBLE_DEVICES = 
==========================================
 running on    8 total cores
 distrk:  each k-point on    8 cores,    1 groups
 distr:  one band on    4 cores,    2 groups
 using from now: INCAR     
 vasp.5.4.4.18Apr17-6-g9f103f2a35 (build Apr 28 2018 00:24:27) complex          
  
 POSCAR found type information on POSCAR  Eu O 
 POSCAR found :  2 types and       8 ions
 scaLAPACK will be used

 ----------------------------------------------------------------------------- 
|                                                                             |
|  ADVICE TO THIS USER RUNNING 'VASP/VAMP'   (HEAR YOUR MASTER'S VOICE ...):  |
|                                                                             |
|      You have a (more or less) 'small supercell' and for smaller cells      |
|      it is recommended  to use the reciprocal-space projection scheme!      |
|      The real space optimization is not  efficient for small cells and it   |
|      is also less accurate ...                                              |
|      Therefore set LREAL=.FALSE. in the  INCAR file                         |
|                                                                             |
 ----------------------------------------------------------------------------- 

 LDA part: xc-table for Pade appr. of Perdew
 POSCAR, INCAR and KPOINTS ok, starting setup
 FFT: planning ...
 WAVECAR not read
 entering main loop
       N       E                     dE             d eps       ncg     rms          rms(c)
DAV:   1     0.127993981381E+04    0.12799E+04   -0.31118E+04 53056   0.355E+03
DAV:   2     0.337542634835E+03   -0.94240E+03   -0.85188E+03 61072   0.706E+02
DAV:   3    -0.963305323993E+01   -0.34718E+03   -0.33699E+03 70320   0.366E+02
DAV:   4    -0.756988915776E+02   -0.66066E+02   -0.64415E+02 85232   0.149E+02
DAV:   5    -0.817648662183E+02   -0.60660E+01   -0.56238E+01 87088   0.490E+01    0.382E+01
RMM:   6    -0.101002101901E+03   -0.19237E+02   -0.24358E+02 63392   0.112E+02    0.671E+01
RMM:   7    -0.840836270386E+02    0.16918E+02   -0.11979E+02 51912   0.117E+02    0.265E+01
RMM:   8    -0.830065933200E+02    0.10770E+01   -0.26533E+01 57803   0.394E+01    0.892E+00
RMM:   9    -0.832081339175E+02   -0.20154E+00   -0.13389E+01 59811   0.238E+01    0.526E+00
RMM:  10    -0.833323621283E+02   -0.12423E+00   -0.14564E+00 67774   0.838E+00    0.619E+00
RMM:  11    -0.831973426601E+02    0.13502E+00   -0.59713E-01 70271   0.458E+00    0.291E+00
RMM:  12    -0.832218316244E+02   -0.24489E-01   -0.25055E-01 74861   0.274E+00    0.235E+00
RMM:  13    -0.832213530949E+02    0.47853E-03   -0.19510E-01 77063   0.217E+00    0.136E+00
RMM:  14    -0.832347268049E+02   -0.13374E-01   -0.95226E-02 80326   0.108E+00    0.899E-01
RMM:  15    -0.832356515011E+02   -0.92470E-03   -0.52984E-02 72229   0.124E+00    0.918E-01
RMM:  16    -0.832377753770E+02   -0.21239E-02   -0.40458E-02 77261   0.757E-01    0.397E-01
RMM:  17    -0.832402343847E+02   -0.24590E-02   -0.23945E-02 73103   0.511E-01    0.199E-01
RMM:  18    -0.832420499202E+02   -0.18155E-02   -0.19004E-02 64161   0.437E-01    0.132E-01
WARNING in EDDRMM: call to ZHEGV failed, returncode =   8  4     17
RMM:  19    -0.832430863328E+02   -0.10364E-02   -0.11533E-02 52614   0.400E-01    0.128E-01
WARNING in EDDRMM: call to ZHEGV failed, returncode =   6  3     20
RMM:  20    -0.832440560786E+02   -0.96975E-03   -0.10551E-02 48853   0.386E-01    0.725E-02
RMM:  21    -0.832448470807E+02   -0.79100E-03   -0.80902E-03 47362   0.364E-01    0.280E-02
RMM:  22    -0.832454729261E+02   -0.62585E-03   -0.63485E-03 44849   0.363E-01    0.211E-02
RMM:  23    -0.832459588047E+02   -0.48588E-03   -0.49876E-03 44512   0.354E-01    0.151E-02
RMM:  24    -0.832463533526E+02   -0.39455E-03   -0.40665E-03 43630   0.323E-01    0.133E-02
RMM:  25    -0.832466668441E+02   -0.31349E-03   -0.32315E-03 42358   0.298E-01    0.865E-03
RMM:  26    -0.832469160312E+02   -0.24919E-03   -0.26147E-03 41604   0.271E-01    0.108E-02
RMM:  27    -0.832471175652E+02   -0.20153E-03   -0.20998E-03 40364   0.255E-01    0.494E-03
RMM:  28    -0.832472819330E+02   -0.16437E-03   -0.17217E-03 40144   0.244E-01    0.575E-03
RMM:  29    -0.832474121432E+02   -0.13021E-03   -0.13801E-03 39039   0.239E-01    0.671E-03
RMM:  30    -0.832475206516E+02   -0.10851E-03   -0.11525E-03 39018   0.231E-01    0.526E-03
WARNING in EDDRMM: call to ZHEGV failed, returncode =   6  3     17
RMM:  31    -0.832476082226E+02   -0.87571E-04   -0.93747E-04 38366   0.227E-01
   1 F= -.83247608E+02 E0= -.83247391E+02  d E =-.832476E+02  mag=    -0.0001
 curvature:   0.00 expect dE= 0.000E+00 dE for cont linesearch  0.000E+00
 trial: gam= 0.00000 g(F)=  0.151E-03 g(S)=  0.683E-03 ort = 0.000E+00 (trialstep = 0.100E+01)
 search vector abs. value=  0.834E-03
 bond charge predicted
       N       E                     dE             d eps       ncg     rms          rms(c)
DAV:   1    -0.832466714071E+02    0.84924E-03   -0.76446E-02 62368   0.657E+00    0.325E-01
RMM:   2    -0.832488909399E+02   -0.22195E-02   -0.34042E-02 65970   0.125E+00    0.178E-01
RMM:   3    -0.832489988363E+02   -0.10790E-03   -0.67165E-03 67866   0.509E-01    0.212E-01
RMM:   4    -0.832493444096E+02   -0.34557E-03   -0.14263E-03 50495   0.309E-01    0.464E-01
RMM:   5    -0.832486483088E+02    0.69610E-03   -0.71433E-04 44402   0.256E-01    0.144E-01
RMM:   6    -0.832486993267E+02   -0.51018E-04   -0.60020E-04 41526   0.216E-01
   2 F= -.83248699E+02 E0= -.83248486E+02  d E =-.109110E-02  mag=    -0.0022
 ZBRENT: can't locate minimum, use default step
 trial-energy change:   -0.001091  1 .order   -0.001015   -0.000834   -0.001195
 step:   4.0000(harm=  4.0000)  dis= 0.00400  next Energy=   -83.253833 (dE=-0.622E-02)
 bond charge predicted
       N       E                     dE             d eps       ncg     rms          rms(c)
DAV:   1    -0.832319736696E+02    0.16675E-01   -0.68803E-01 63640   0.196E+01    0.980E-01
RMM:   2    -0.832570549098E+02   -0.25081E-01   -0.29235E-01 65122   0.384E+00    0.142E+00
RMM:   3    -0.832608850668E+02   -0.38302E-02   -0.65479E-02 68122   0.173E+00    0.153E+00
RMM:   4    -0.832513466790E+02    0.95384E-02   -0.12355E-02 67318   0.869E-01    0.447E-01
RMM:   5    -0.832497109190E+02    0.16358E-02   -0.57502E-03 64164   0.662E-01    0.531E-01
RMM:   6    -0.832491143913E+02    0.59653E-03   -0.34970E-03 65358   0.450E-01    0.266E-01
WARNING in EDDRMM: call to ZHEGV failed, returncode =   6  3     18
RMM:   7    -0.832490594332E+02    0.54958E-04   -0.13353E-03 50767   0.260E-01    0.204E-01
RMM:   8    -0.832491192690E+02   -0.59836E-04   -0.53436E-04 41829   0.232E-01
   3 F= -.83249119E+02 E0= -.83248888E+02  d E =-.151105E-02  mag=     0.0020
 curvature:  -3.04 expect dE=-0.139E-03 dE for cont linesearch -0.385E-05
 ZBRENT: interpolating
 opt :   3.9206  next Energy=   -83.249121 (dE=-0.151E-02)
 bond charge predicted
       N       E                     dE             d eps       ncg     rms          rms(c)
DAV:   1    -0.832492210665E+02   -0.16163E-03   -0.17137E-03 75776   0.653E-01    0.835E-02
RMM:   2    -0.832507922470E+02   -0.15712E-02   -0.69023E-04 33458   0.268E-01    0.767E-01
RMM:   3    -0.832490541854E+02    0.17381E-02   -0.40267E-04 32573   0.301E-01    0.187E-01
RMM:   4    -0.832491492079E+02   -0.95022E-04   -0.43777E-05 26505   0.211E-01
   4 F= -.83249149E+02 E0= -.83248918E+02  d E =-.154099E-02  mag=     0.0018
 curvature:  -1.02 expect dE=-0.347E-03 dE for cont linesearch -0.201E-03
 ZBRENT: bisectioning
 opt :   2.4603  next Energy=   -83.254743 (dE=-0.713E-02)
 bond charge predicted
       N       E                     dE             d eps       ncg     rms          rms(c)
DAV:   1    -0.832458446871E+02    0.32095E-02   -0.17470E-01 65816   0.958E+00    0.497E-01
RMM:   2    -0.832557762365E+02   -0.99315E-02   -0.65646E-02 63303   0.199E+00    0.135E+00
RMM:   3    -0.832500008427E+02    0.57754E-02   -0.15850E-02 60216   0.959E-01    0.430E-01
RMM:   4    -0.832498873422E+02    0.11350E-03   -0.24856E-03 57913   0.422E-01    0.202E-01
RMM:   5    -0.832492949828E+02    0.59236E-03   -0.11061E-03 47873   0.353E-01    0.192E-01
RMM:   6    -0.832492451670E+02    0.49816E-04   -0.45239E-04 36691   0.293E-01
   5 F= -.83249245E+02 E0= -.83249016E+02  d E =-.163694E-02  mag=     0.0008
 curvature: -28.42 expect dE=-0.429E-01 dE for cont linesearch -0.290E-01
 ZBRENT: bisectioning
 opt :   1.7301  next Energy=   -83.250013 (dE=-0.240E-02)
 bond charge predicted
       N       E                     dE             d eps       ncg     rms          rms(c)
DAV:   1    -0.832483457787E+02    0.94920E-03   -0.40533E-02 65288   0.465E+00    0.233E-01
RMM:   2    -0.832494951682E+02   -0.11494E-02   -0.14511E-02 60666   0.929E-01    0.396E-01
RMM:   3    -0.832498059521E+02   -0.31078E-03   -0.39403E-03 59413   0.469E-01    0.510E-01
RMM:   4    -0.832492044547E+02    0.60150E-03   -0.67659E-04 41471   0.273E-01    0.191E-01
RMM:   5    -0.832490961714E+02    0.10828E-03   -0.29960E-04 32812   0.232E-01    0.144E-01
RMM:   6    -0.832491465520E+02   -0.50381E-04   -0.16983E-04 28345   0.247E-01
   6 F= -.83249147E+02 E0= -.83248930E+02  d E =-.153833E-02  mag=     0.0004
 curvature:  -0.75 expect dE=-0.420E-03 dE for cont linesearch -0.250E-04
 ZBRENT: interpolating
 opt :   1.6004  next Energy=   -83.249159 (dE=-0.155E-02)
 bond charge predicted
       N       E                     dE             d eps       ncg     rms          rms(c)
DAV:   1    -0.832490548772E+02    0.41294E-04   -0.12921E-03 63488   0.848E-01    0.561E-02
RMM:   2    -0.832496666825E+02   -0.61181E-03   -0.49363E-04 36207   0.223E-01    0.500E-01
RMM:   3    -0.832490570564E+02    0.60963E-03   -0.19005E-04 29614   0.242E-01    0.195E-01
RMM:   4    -0.832490310299E+02    0.26027E-04   -0.52639E-05 25743   0.213E-01
   7 F= -.83249031E+02 E0= -.83248808E+02  d E =-.142281E-02  mag=    -0.0014
 curvature:  -0.39 expect dE=-0.370E-03 dE for cont linesearch -0.195E-03
 ZBRENT: interpolating
 opt :   1.7036  next Energy=   -83.249149 (dE=-0.154E-02)
 bond charge predicted
       N       E                     dE             d eps       ncg     rms          rms(c)
DAV:   1    -0.832491520605E+02   -0.95004E-04   -0.97567E-04 60312   0.730E-01    0.926E-02
RMM:   2    -0.832513734148E+02   -0.22214E-02   -0.85604E-04 32539   0.299E-01    0.904E-01
RMM:   3    -0.832489579658E+02    0.24154E-02   -0.55343E-04 33123   0.329E-01    0.222E-01
RMM:   4    -0.832490529298E+02   -0.94964E-04   -0.17530E-05 24695   0.196E-01
   8 F= -.83249053E+02 E0= -.83248832E+02  d E =-.144471E-02  mag=    -0.0014
 curvature:  -0.00 expect dE=-0.532E-06 dE for cont linesearch -0.307E-06
 ZBRENT: interpolating
 opt :   1.7193  next Energy=   -83.249147 (dE=-0.154E-02)
 bond charge predicted
       N       E                     dE             d eps       ncg     rms          rms(c)
DAV:   1    -0.832491758940E+02   -0.21793E-03   -0.20034E-04 38192   0.336E-01    0.104E-01
RMM:   2    -0.832522594333E+02   -0.30835E-02   -0.10649E-03 33317   0.318E-01    0.104E+00
RMM:   3    -0.832489426907E+02    0.33167E-02   -0.72258E-04 33328   0.347E-01    0.256E-01
RMM:   4    -0.832490461011E+02   -0.10341E-03   -0.19502E-05 24616   0.175E-01    0.445E-02
RMM:   5    -0.832491494509E+02   -0.10335E-03    0.19391E-05 23976   0.179E-01    0.781E-02
RMM:   6    -0.832491832889E+02   -0.33838E-04    0.60562E-06 25236   0.218E-01
   9 F= -.83249183E+02 E0= -.83248964E+02  d E =-.157507E-02  mag=    -0.0003
 curvature:  -0.01 expect dE=-0.218E-05 dE for cont linesearch -0.180E-05
 ZBRENT: interpolating
 opt :   1.7266  next Energy=   -83.249147 (dE=-0.154E-02)
 bond charge predicted
       N       E                     dE             d eps       ncg     rms          rms(c)
DAV:   1    -0.832491911926E+02   -0.41742E-04   -0.12985E-04 37808   0.257E-01    0.123E-01
RMM:   2    -0.832537158783E+02   -0.45247E-02   -0.16472E-03 36390   0.372E-01    0.120E+00
RMM:   3    -0.832490354222E+02    0.46805E-02   -0.10215E-03 34652   0.393E-01    0.347E-01
RMM:   4    -0.832490372282E+02   -0.18059E-05   -0.18233E-05 24742   0.182E-01
  10 F= -.83249037E+02 E0= -.83248830E+02  d E =-.142901E-02  mag=    -0.0006
 curvature:  -0.00 expect dE=-0.380E-06 dE for cont linesearch -0.290E-06
 ZBRENT: interpolating
 opt :   1.7290  next Energy=   -83.249147 (dE=-0.154E-02)
 bond charge predicted
       N       E                     dE             d eps       ncg     rms          rms(c)
DAV:   1    -0.832491184979E+02   -0.83076E-04   -0.15296E-04 37608   0.279E-01    0.732E-03
RMM:   2    -0.832491674488E+02   -0.48951E-04   -0.18976E-05 23047   0.566E-02
  11 F= -.83249167E+02 E0= -.83248942E+02  d E =-.155923E-02  mag=    -0.0003
 curvature:  -0.00 expect dE=-0.115E-06 dE for cont linesearch -0.830E-07
 ZBRENT: interpolating
 opt :   1.7297  next Energy=   -83.249147 (dE=-0.154E-02)
 bond charge predicted
       N       E                     dE             d eps       ncg     rms          rms(c)
DAV:   1    -0.832491922420E+02   -0.73744E-04   -0.15893E-05 29584   0.899E-02    0.982E-02
RMM:   2    -0.832520674478E+02   -0.28752E-02   -0.94004E-04 33209   0.289E-01    0.101E+00
RMM:   3    -0.832490023301E+02    0.30651E-02   -0.62172E-04 32957   0.333E-01    0.283E-01
RMM:   4    -0.832490517062E+02   -0.49376E-04   -0.11583E-05 24895   0.187E-01
  12 F= -.83249052E+02 E0= -.83248836E+02  d E =-.144348E-02  mag=    -0.0007
 curvature:  -0.00 expect dE=-0.529E-07 dE for cont linesearch -0.392E-07
 ZBRENT: interpolating
 opt :   1.7300  next Energy=   -83.249147 (dE=-0.154E-02)
 bond charge predicted
       N       E                     dE             d eps       ncg     rms          rms(c)
DAV:   1    -0.832491479880E+02   -0.14566E-03   -0.11781E-04 34304   0.270E-01    0.435E-02
RMM:   2    -0.832496947586E+02   -0.54677E-03   -0.14175E-04 28098   0.130E-01    0.475E-01
RMM:   3    -0.832490759332E+02    0.61883E-03   -0.11227E-04 27591   0.152E-01    0.935E-02
RMM:   4    -0.832491509037E+02   -0.74971E-04   -0.26331E-05 24355   0.117E-01
  13 F= -.83249151E+02 E0= -.83248927E+02  d E =-.154268E-02  mag=    -0.0005
 curvature:  -0.00 expect dE=-0.159E-07 dE for cont linesearch -0.123E-07
 ZBRENT: interpolating
 opt :   1.7301  next Energy=   -83.249147 (dE=-0.154E-02)
 bond charge predicted
       N       E                     dE             d eps       ncg     rms          rms(c)
DAV:   1    -0.832491938810E+02   -0.11795E-03   -0.46188E-05 28296   0.150E-01    0.101E-01
RMM:   2    -0.832521780338E+02   -0.29842E-02   -0.96876E-04 32846   0.294E-01    0.103E+00
RMM:   3    -0.832489902522E+02    0.31878E-02   -0.65848E-04 33137   0.343E-01    0.278E-01
RMM:   4    -0.832490547003E+02   -0.64448E-04   -0.60717E-06 24787   0.183E-01
  14 F= -.83249055E+02 E0= -.83248839E+02  d E =-.144648E-02  mag=    -0.0006
 curvature:  -0.00 expect dE=-0.482E-08 dE for cont linesearch -0.358E-08
 ZBRENT: interpolating
 opt :   1.7301  next Energy=   -83.249147 (dE=-0.154E-02)
 bond charge predicted
       N       E                     dE             d eps       ncg     rms          rms(c)
DAV:   1    -0.832491466620E+02   -0.15641E-03   -0.11549E-04 34408   0.270E-01    0.343E-02
RMM:   2    -0.832494828718E+02   -0.33621E-03   -0.82224E-05 26126   0.104E-01    0.376E-01
RMM:   3    -0.832491042292E+02    0.37864E-03   -0.63134E-05 25986   0.123E-01    0.626E-02
RMM:   4    -0.832491645486E+02   -0.60319E-04   -0.14138E-05 23732   0.981E-02
  15 F= -.83249165E+02 E0= -.83248940E+02  d E =-.155633E-02  mag=    -0.0003
 curvature:  -0.00 expect dE=-0.161E-08 dE for cont linesearch -0.125E-08
 ZBRENT: interpolating
 opt :   1.7301  next Energy=   -83.249147 (dE=-0.154E-02)
 bond charge predicted
       N       E                     dE             d eps       ncg     rms          rms(c)
DAV:   1    -0.832491936278E+02   -0.89399E-04   -0.32351E-05 27600   0.141E-01    0.997E-02
RMM:   2    -0.832521274975E+02   -0.29339E-02   -0.94540E-04 32948   0.290E-01    0.102E+00
RMM:   3    -0.832490013837E+02    0.31261E-02   -0.64018E-04 32950   0.339E-01    0.282E-01
RMM:   4    -0.832490579387E+02   -0.56555E-04   -0.63951E-06 24916   0.186E-01
  16 F= -.83249058E+02 E0= -.83248843E+02  d E =-.144972E-02  mag=    -0.0005
 curvature:  -0.00 expect dE=-0.504E-09 dE for cont linesearch -0.383E-09
 ZBRENT: interpolating
 opt :   1.7301  next Energy=   -83.249147 (dE=-0.154E-02)
 bond charge predicted
       N       E                     dE             d eps       ncg     rms          rms(c)
DAV:   1    -0.832491422983E+02   -0.14091E-03   -0.11188E-04 34168   0.264E-01    0.219E-02
RMM:   2    -0.832492758607E+02   -0.13356E-03   -0.32261E-05 25201   0.714E-02    0.225E-01
RMM:   3    -0.832491428058E+02    0.13305E-03   -0.25638E-05 24736   0.827E-02    0.100E-02
RMM:   4    -0.832491744817E+02   -0.31676E-04    0.68429E-06 22771   0.742E-02
  17 F= -.83249174E+02 E0= -.83248950E+02  d E =-.156626E-02  mag=    -0.0001
 curvature:  -0.00 expect dE=-0.168E-09 dE for cont linesearch -0.131E-09
 ZBRENT: interpolating
 opt :   1.7301  next Energy=   -83.249147 (dE=-0.154E-02)
 bond charge predicted
       N       E                     dE             d eps       ncg     rms          rms(c)
DAV:   1    -0.832491914796E+02   -0.48674E-04   -0.29231E-05 28400   0.130E-01    0.950E-02
RMM:   2    -0.832519063301E+02   -0.27149E-02   -0.86812E-04 32791   0.278E-01    0.987E-01
RMM:   3    -0.832490176409E+02    0.28887E-02   -0.58052E-04 32844   0.325E-01    0.281E-01
RMM:   4    -0.832490629163E+02   -0.45275E-04   -0.60791E-06 24867   0.182E-01
  18 F= -.83249063E+02 E0= -.83248849E+02  d E =-.145469E-02  mag=    -0.0005
 curvature:  -0.00 expect dE=-0.533E-10 dE for cont linesearch -0.406E-10
 ZBRENT: interpolating
 opt :   1.7301  next Energy=   -83.249147 (dE=-0.154E-02)
 bond charge predicted
       N       E                     dE             d eps       ncg     rms          rms(c)
DAV:   1    -0.832491409473E+02   -0.12331E-03   -0.10413E-04 33488   0.256E-01    0.151E-02
RMM:   2    -0.832492070419E+02   -0.66095E-04   -0.16643E-05 24377   0.542E-02
  19 F= -.83249207E+02 E0= -.83248986E+02  d E =-.159882E-02  mag=    -0.0000
 curvature:  -0.00 expect dE=-0.177E-10 dE for cont linesearch -0.138E-10
 ZBRENT:  can not reach accuracy
 opt :   0.0000  next Energy=     0.000000 (dE= 0.832E+02)
 bond charge predicted
       N       E                     dE             d eps       ncg     rms          rms(c)
DAV:   1    -0.832434893068E+02    0.56516E-02   -0.25152E-01 63584   0.113E+01    0.556E-01
RMM:   2    -0.832488585839E+02   -0.53693E-02   -0.87971E-02 64112   0.221E+00    0.376E-01
RMM:   3    -0.832551503874E+02   -0.62918E-02   -0.21171E-02 65751   0.106E+00    0.134E+00
RMM:   4    -0.832485207121E+02    0.66297E-02   -0.54250E-03 56195   0.635E-01    0.286E-01
RMM:   5    -0.832483665912E+02    0.15412E-03   -0.17234E-03 49642   0.397E-01    0.409E-01
RMM:   6    -0.832480854433E+02    0.28115E-03   -0.82662E-04 38781   0.336E-01    0.176E-01
RMM:   7    -0.832480163922E+02    0.69051E-04   -0.40828E-04 35071   0.298E-01
  20 F= -.83248016E+02 E0= -.83247804E+02  d E =-.408170E-03  mag=    -0.0020
 curvature:   0.00 expect dE= 0.000E+00 dE for cont linesearch  0.000E+00
 ZBRENT: fatal error in bracketing
     please rerun with smaller EDIFF, or copy CONTCAR
     to POSCAR and continue
