 vasp.5.4.4.18Apr17-6-g9f103f2a35 (build Apr 28 2018 00:24:27) complex          
  
 executed on             LinuxIFC date 2021.03.23  16:56:30
 running on    8 total cores
 distrk:  each k-point on    8 cores,    1 groups
 distr:  one band on NCORES_PER_BAND=   4 cores,    2 groups


--------------------------------------------------------------------------------------------------------


 INCAR:
 POTCAR:    PAW_PBE Eu 23Dec2003                  
 POTCAR:    PAW_PBE O 08Apr2002                   
 POTCAR:    PAW_PBE Eu 23Dec2003                  
   SHA256 =  ed303d27e7c5191953f9b15539336e6f36d9037c1d2e92e80c13d733697cb93d Eu
   COPYR  = (c) Copyright 23Dec2003 Georg Kresse                                
   COPYR  = This file is part of the software VASP. Any use, copying, and all ot
   COPYR  = If you do not have a valid VASP license, you may not use, copy or di
   VRHFIN =Eu : [core=Kr4d]                                                     
   LEXCH  = PE                                                                  
   EATOM  =  2619.8085 eV,  192.5505 Ry                                         
                                                                                
   TITEL  = PAW_PBE Eu 23Dec2003                                                
   LULTRA =        F    use ultrasoft PP ?                                      
   IUNSCR =        1    unscreen: 0-lin 1-nonlin 2-no                           
   RPACOR =    2.300    partial core radius                                     
   POMASS =  151.965; ZVAL   =   17.000    mass and valenz                      
   RCORE  =    2.800    outmost cutoff radius                                   
   RWIGS  =    2.800; RWIGS  =    1.482    wigner-seitz radius (au A)           
   ENMAX  =  249.668; ENMIN  =  187.251 eV                                      
   RCLOC  =    2.308    cutoff for local pot                                    
   LCOR   =        T    correct aug charges                                     
   LPAW   =        T    paw PP                                                  
   EAUG   =  549.628                                                            
   DEXC   =    0.000                                                            
   RMAX   =    2.870    core radius for proj-oper                               
   RAUG   =    1.300    factor for augmentation sphere                          
   RDEP   =    2.887    radius for radial grids                                 
   RDEPT  =    2.221    core radius for aug-charge                              
                                                                                
   Atomic configuration                                                         
   14 entries                                                                   
     n  l   j            E        occ.                                          
     1  0  0.50    -48354.7667   2.0000                                         
     2  0  0.50     -7939.6472   2.0000                                         
     2  1  1.50     -7072.6637   6.0000                                         
     3  0  0.50     -1747.1875   2.0000                                         
     3  1  1.50     -1477.5221   6.0000                                         
     3  2  2.50     -1117.4686  10.0000                                         
     4  0  0.50      -346.8682   2.0000                                         
     4  1  1.50      -258.1962   6.0000                                         
     4  2  2.50      -134.7724  10.0000                                         
     5  0  0.50       -44.6510   2.0000                                         
     6  0  0.50        -3.6227   2.0000                                         
     5  1  1.50       -23.7639   6.0000                                         
     5  2  2.50        -1.3130   0.0000                                         
     4  3  2.50        -2.7310   7.0000                                         
   Description                                                                  
     l       E           TYP  RCUT    TYP  RCUT                                 
     0    -44.6510453     23  2.400                                             
     0     -3.6226685     23  2.400                                             
     1    -23.7638687     23  2.400                                             
     1     27.2116520     23  2.400                                             
     2     -1.3129622     23  2.500                                             
     2     13.6058260     23  2.500                                             
     3     -2.7309948     23  2.800                                             
     3     -3.4014565     23  2.800                                             
  local pseudopotential read in
  partial core-charges read in
  partial kinetic energy density read in
  atomic valenz-charges read in
  non local Contribution for L=           0  read in
    real space projection operators read in
  non local Contribution for L=           0  read in
    real space projection operators read in
  non local Contribution for L=           1  read in
    real space projection operators read in
  non local Contribution for L=           1  read in
    real space projection operators read in
  non local Contribution for L=           2  read in
    real space projection operators read in
  non local Contribution for L=           2  read in
    real space projection operators read in
  non local Contribution for L=           3  read in
    real space projection operators read in
  non local Contribution for L=           3  read in
    real space projection operators read in
    PAW grid and wavefunctions read in
 
   number of l-projection  operators is LMAX  =           8
   number of lm-projection operators is LMMAX =          32
 
 POTCAR:    PAW_PBE O 08Apr2002                   
   SHA256 =  818f92134a0a090dccd8ba1447fa70422a3b330e708bb4f08108d8ae51209ddf O/
   COPYR  = (c) Copyright 08Apr2002 Georg Kresse                                
   COPYR  = This file is part of the software VASP. Any use, copying, and all ot
   COPYR  = If you do not have a valid VASP license, you may not use, copy or di
   VRHFIN =O: s2p4                                                              
   LEXCH  = PE                                                                  
   EATOM  =   432.3788 eV,   31.7789 Ry                                         
                                                                                
   TITEL  = PAW_PBE O 08Apr2002                                                 
   LULTRA =        F    use ultrasoft PP ?                                      
   IUNSCR =        1    unscreen: 0-lin 1-nonlin 2-no                           
   RPACOR =    1.200    partial core radius                                     
   POMASS =   16.000; ZVAL   =    6.000    mass and valenz                      
   RCORE  =    1.520    outmost cutoff radius                                   
   RWIGS  =    1.550; RWIGS  =    0.820    wigner-seitz radius (au A)           
   ENMAX  =  400.000; ENMIN  =  300.000 eV                                      
   ICORE  =        2    local potential                                         
   LCOR   =        T    correct aug charges                                     
   LPAW   =        T    paw PP                                                  
   EAUG   =  605.392                                                            
   DEXC   =    0.000                                                            
   RMAX   =    1.553    core radius for proj-oper                               
   RAUG   =    1.300    factor for augmentation sphere                          
   RDEP   =    1.550    radius for radial grids                                 
   RDEPT  =    1.329    core radius for aug-charge                              
                                                                                
   Atomic configuration                                                         
    4 entries                                                                   
     n  l   j            E        occ.                                          
     1  0  0.50      -514.6923   2.0000                                         
     2  0  0.50       -23.9615   2.0000                                         
     2  1  0.50        -9.0305   4.0000                                         
     3  2  1.50        -9.5241   0.0000                                         
   Description                                                                  
     l       E           TYP  RCUT    TYP  RCUT                                 
     0    -23.9615318     23  1.200                                             
     0     -9.5240782     23  1.200                                             
     1     -9.0304911     23  1.520                                             
     1      8.1634956     23  1.520                                             
     2     -9.5240782      7  1.500                                             
  local pseudopotential read in
  partial core-charges read in
  partial kinetic energy density read in
  kinetic energy density of atom read in
  atomic valenz-charges read in
  non local Contribution for L=           0  read in
    real space projection operators read in
  non local Contribution for L=           0  read in
    real space projection operators read in
  non local Contribution for L=           1  read in
    real space projection operators read in
  non local Contribution for L=           1  read in
    real space projection operators read in
    PAW grid and wavefunctions read in
 
   number of l-projection  operators is LMAX  =           4
   number of lm-projection operators is LMMAX =           8
 
  PAW_PBE Eu 23Dec2003                  :
 energy of atom  1       EATOM=-2619.8085
 kinetic energy error for atom=    0.0019 (will be added to EATOM!!)
  PAW_PBE O 08Apr2002                   :
 energy of atom  2       EATOM= -432.3788
 kinetic energy error for atom=    0.0224 (will be added to EATOM!!)
 
 
 POSCAR: Eu1 O1 str #: 7                         
  positions in direct lattice
  No initial velocities read in
 exchange correlation table for  LEXCH =        8
   RHO(1)=    0.500       N(1)  =     2000
   RHO(2)=  100.500       N(2)  =     4000
 


--------------------------------------------------------------------------------------------------------


 ion  position               nearest neighbor table
   1  0.000  0.000  0.000-   4 2.54   3 2.54   4 2.54   3 2.54   4 2.54   3 2.54
   2  0.500  0.500  0.000-   3 2.54   4 2.54   3 2.54   4 2.54   3 2.54   4 2.54
   3  0.750  0.250  0.500-   2 2.54   1 2.54   2 2.54   1 2.54   2 2.54   1 2.54
   4  0.250  0.750  0.500-   1 2.54   2 2.54   1 2.54   2 2.54   1 2.54   2 2.54
 
  LATTYP: Found a base centered monoclinic cell.
 ALAT       =     6.2226751670
 B/A-ratio  =     0.5773361626
 C/A-ratio  =     1.1546948872
 COS(beta)  =    -0.5000180940
  
  Lattice vectors:
  
 A1 = (   1.7963930000,   1.0371167000,   2.9333340000)
 A2 = (   1.7963845000,   3.1112791000,   0.0000000000)
 A3 = (  -7.1852912000,   0.0000000000,   0.0000000000)


Analysis of symmetry for initial positions (statically):
=====================================================================
 Subroutine PRICEL returns following result:
 
  LATTYP: Found a trigonal (rhomboedric) cell.
 ALAT       =     3.5926389896
 COS(alpha) =     0.5000180940
  
  Lattice vectors:
  
 A1 = (  -1.7963845000,  -3.1112791000,   0.0000000000)
 A2 = (  -3.5926456000,   0.0000000000,   0.0000000000)
 A3 = (  -1.7963930000,  -1.0371167000,  -2.9333340000)
 
   2 primitive cells build up your supercell.
 

 Routine SETGRP: Setting up the symmetry group for a 
 base centered monoclinic supercell.


 Subroutine GETGRP returns: Found  4 space group operations
 (whereof  4 operations were pure point group operations)
 out of a pool of  4 trial point group operations.


The static configuration has the point symmetry C_2h.


Analysis of symmetry for dynamics (positions and initial velocities):
=====================================================================
 Subroutine PRICEL returns following result:
 
  LATTYP: Found a trigonal (rhomboedric) cell.
 ALAT       =     3.5926389896
 COS(alpha) =     0.5000180940
  
  Lattice vectors:
  
 A1 = (  -1.7963845000,  -3.1112791000,   0.0000000000)
 A2 = (  -3.5926456000,   0.0000000000,   0.0000000000)
 A3 = (  -1.7963930000,  -1.0371167000,  -2.9333340000)
 
   2 primitive cells build up your supercell.
 

 Routine SETGRP: Setting up the symmetry group for a 
 base centered monoclinic supercell.


 Subroutine GETGRP returns: Found  4 space group operations
 (whereof  4 operations were pure point group operations)
 out of a pool of  4 trial point group operations.


The dynamic configuration has the point symmetry C_2h.


Analysis of structural, dynamic, and magnetic symmetry:
=====================================================================
 Subroutine PRICEL returns following result:
 
  LATTYP: Found a trigonal (rhomboedric) cell.
 ALAT       =     3.5926389896
 COS(alpha) =     0.5000180940
  
  Lattice vectors:
  
 A1 = (  -1.7963845000,  -3.1112791000,   0.0000000000)
 A2 = (  -3.5926456000,   0.0000000000,   0.0000000000)
 A3 = (  -1.7963930000,  -1.0371167000,  -2.9333340000)
 
   2 primitive cells build up your supercell.
 

 Routine SETGRP: Setting up the symmetry group for a 
 base centered monoclinic supercell.


 Subroutine GETGRP returns: Found  4 space group operations
 (whereof  4 operations were pure point group operations)
 out of a pool of  4 trial point group operations.


The magnetic configuration has the point symmetry C_2h.


 Subroutine INISYM returns: Found  4 space group operations
 (whereof  4 operations are pure point group operations),
 and found     2 'primitive' translations

 
 
 KPOINTS: pymatgen v2020.8.13 with grid density = 

Automatic generation of k-mesh.
Space group operators:
 irot       det(A)        alpha          n_x          n_y          n_z        tau_x        tau_y        tau_z
    1     1.000000     0.000000     1.000000     0.000000     0.000000     0.000000     0.000000     0.000000
    2    -1.000000     0.000000     1.000000     0.000000     0.000000     0.000000     0.000000     0.000000
    3     1.000000   180.000000    -0.000000    -0.577347     0.816499     0.000000     0.000000     0.000000
    4    -1.000000   180.000000    -0.000000    -0.577347     0.816499     0.000000     0.000000     0.000000
 
 Subroutine IBZKPT returns following result:
 ===========================================
 
 Found     32 irreducible k-points:
 
 Following reciprocal coordinates:
            Coordinates               Weight
  0.125000  0.125000  0.125000      8.000000
  0.375000  0.125000  0.125000      8.000000
 -0.375000  0.125000  0.125000      8.000000
 -0.125000  0.125000  0.125000      8.000000
  0.125000  0.375000  0.125000      8.000000
  0.375000  0.375000  0.125000      8.000000
 -0.375000  0.375000  0.125000      8.000000
 -0.125000  0.375000  0.125000      8.000000
  0.125000 -0.375000  0.125000      8.000000
  0.375000 -0.375000  0.125000      8.000000
 -0.375000 -0.375000  0.125000      8.000000
 -0.125000 -0.375000  0.125000      8.000000
  0.125000 -0.125000  0.125000      8.000000
  0.375000 -0.125000  0.125000      8.000000
 -0.375000 -0.125000  0.125000      8.000000
 -0.125000 -0.125000  0.125000      8.000000
  0.125000  0.125000  0.375000      8.000000
  0.375000  0.125000  0.375000      8.000000
 -0.375000  0.125000  0.375000      8.000000
 -0.125000  0.125000  0.375000      8.000000
  0.125000  0.375000  0.375000      8.000000
  0.375000  0.375000  0.375000      8.000000
 -0.375000  0.375000  0.375000      8.000000
 -0.125000  0.375000  0.375000      8.000000
  0.125000 -0.375000  0.375000      8.000000
  0.375000 -0.375000  0.375000      8.000000
 -0.375000 -0.375000  0.375000      8.000000
 -0.125000 -0.375000  0.375000      8.000000
  0.125000 -0.125000  0.375000      8.000000
  0.375000 -0.125000  0.375000      8.000000
 -0.375000 -0.125000  0.375000      8.000000
 -0.125000 -0.125000  0.375000      8.000000
 
 Following cartesian coordinates:
            Coordinates               Weight
  0.069587 -0.000001  0.042612      8.000000
  0.104380 -0.020090  0.113635      8.000000
  0.000000  0.040176 -0.099432      8.000000
  0.034793  0.020088 -0.028410      8.000000
  0.104380 -0.020090  0.028407      8.000000
  0.139173 -0.040179  0.099430      8.000000
  0.034793  0.020088 -0.113637      8.000000
  0.069587 -0.000001 -0.042615      8.000000
  0.000000  0.040176  0.071022      8.000000
  0.034793  0.020088  0.142045      8.000000
 -0.069587  0.080354 -0.071022      8.000000
 -0.034793  0.060265  0.000000      8.000000
  0.034793  0.020088  0.056817      8.000000
  0.069587 -0.000001  0.127840      8.000000
 -0.034793  0.060265 -0.085227      8.000000
 -0.000000  0.040176 -0.014205      8.000000
  0.139173  0.040174  0.071020      8.000000
  0.173967  0.020085  0.142042      8.000000
  0.069587  0.080351 -0.071025      8.000000
  0.104380  0.060263 -0.000002      8.000000
  0.173967  0.020085  0.056815      8.000000
  0.208760 -0.000004  0.127837      8.000000
  0.104380  0.060263 -0.085230      8.000000
  0.139173  0.040174 -0.014207      8.000000
  0.069587  0.080351  0.099430      8.000000
  0.104380  0.060263  0.170452      8.000000
 -0.000000  0.120529 -0.042615      8.000000
  0.034793  0.100440  0.028408      8.000000
  0.104380  0.060263  0.085225      8.000000
  0.139173  0.040174  0.156247      8.000000
  0.034793  0.100440 -0.056820      8.000000
  0.069587  0.080351  0.014203      8.000000
 


--------------------------------------------------------------------------------------------------------




 Dimension of arrays:
   k-points           NKPTS =     32   k-points in BZ     NKDIM =     32   number of bands    NBANDS=     28
   number of dos      NEDOS =    301   number of ions     NIONS =      4
   non local maximal  LDIM  =      8   non local SUM 2l+1 LMDIM =     32
   total plane-waves  NPLWV =  14400
   max r-space proj   IRMAX =      1   max aug-charges    IRDMAX=  12752
   dimension x,y,z NGX =    20 NGY =   36 NGZ =   20
   dimension x,y,z NGXF=    40 NGYF=   72 NGZF=   40
   support grid    NGXF=    40 NGYF=   72 NGZF=   40
   ions per type =               2   2
   NGX,Y,Z   is equivalent  to a cutoff of   9.25,  9.62,  9.25 a.u.
   NGXF,Y,Z  is equivalent  to a cutoff of  18.51, 19.24, 18.51 a.u.

 SYSTEM =  "EuO"                                   
 POSCAR =  Eu1 O1 str #: 7                         

 Startparameter for this run:
   NWRITE =      2    write-flag & timer
   PREC   = normal    normal or accurate (medium, high low for compatibility)
   ISTART =      0    job   : 0-new  1-cont  2-samecut
   ICHARG =      2    charge: 1-file 2-atom 10-const
   ISPIN  =      2    spin polarized calculation?
   LNONCOLLINEAR =      F non collinear calculations
   LSORBIT =      F    spin-orbit coupling
   INIWAV =      1    electr: 0-lowe 1-rand  2-diag
   LASPH  =      F    aspherical Exc in radial PAW
   METAGGA=      F    non-selfconsistent MetaGGA calc.

 Electronic Relaxation 1
   ENCUT  =  500.0 eV  36.75 Ry    6.06 a.u.   6.55 11.35  6.55*2*pi/ulx,y,z
   ENINI  =  500.0     initial cutoff
   ENAUG  =  605.4 eV  augmentation charge cutoff
   NELM   =     60;   NELMIN=  2; NELMDL= -5     # of ELM steps 
   EDIFF  = 0.1E-05   stopping-criterion for ELM
   LREAL  =      F    real-space projection
   NLSPLINE    = F    spline interpolate recip. space projectors
   LCOMPAT=      F    compatible to vasp.4.4
   GGA_COMPAT  = T    GGA compatible to vasp.4.4-vasp.4.6
   LMAXPAW     = -100 max onsite density
   LMAXMIX     =    2 max onsite mixed and CHGCAR
   VOSKOWN=      0    Vosko Wilk Nusair interpolation
   ROPT   =    0.00000   0.00000
 Ionic relaxation
   EDIFFG = 0.1E-04   stopping-criterion for IOM
   NSW    =      0    number of steps for IOM
   NBLOCK =      1;   KBLOCK =      1    inner block; outer block 
   IBRION =     -1    ionic relax: 0-MD 1-quasi-New 2-CG
   NFREE  =      1    steps in history (QN), initial steepest desc. (CG)
   ISIF   =      2    stress and relaxation
   IWAVPR =     10    prediction:  0-non 1-charg 2-wave 3-comb
   ISYM   =      2    0-nonsym 1-usesym 2-fastsym
   LCORR  =      T    Harris-Foulkes like correction to forces

   POTIM  = 0.5000    time-step for ionic-motion
   TEIN   =    0.0    initial temperature
   TEBEG  =    0.0;   TEEND  =   0.0 temperature during run
   SMASS  =  -3.00    Nose mass-parameter (am)
   estimated Nose-frequenzy (Omega)   =  0.10E-29 period in steps =****** mass=  -0.295E-27a.u.
   SCALEE = 1.0000    scale energy and forces
   NPACO  =    256;   APACO  = 16.0  distance and # of slots for P.C.
   PSTRESS=    0.0 pullay stress

  Mass of Ions in am
   POMASS = 151.97 16.00
  Ionic Valenz
   ZVAL   =  17.00  6.00
  Atomic Wigner-Seitz radii
   RWIGS  =  -1.00 -1.00
  virtual crystal weights 
   VCA    =   1.00  1.00
   NELECT =      46.0000    total number of electrons
   NUPDOWN=      -1.0000    fix difference up-down

 DOS related values:
   EMIN   =  10.00;   EMAX   =-10.00  energy-range for DOS
   EFERMI =   0.00
   ISMEAR =     1;   SIGMA  =   0.10  broadening in eV -4-tet -1-fermi 0-gaus

 Electronic relaxation 2 (details)
   IALGO  =     38    algorithm
   LDIAG  =      T    sub-space diagonalisation (order eigenvalues)
   LSUBROT=      F    optimize rotation matrix (better conditioning)
   TURBO    =      0    0=normal 1=particle mesh
   IRESTART =      0    0=no restart 2=restart with 2 vectors
   NREBOOT  =      0    no. of reboots
   NMIN     =      0    reboot dimension
   EREF     =   0.00    reference energy to select bands
   IMIX   =      4    mixing-type and parameters
     AMIX     =   0.40;   BMIX     =  1.00
     AMIX_MAG =   1.60;   BMIX_MAG =  1.00
     AMIN     =   0.10
     WC   =   100.;   INIMIX=   1;  MIXPRE=   1;  MAXMIX= -45

 Intra band minimization:
   WEIMIN = 0.0000     energy-eigenvalue tresh-hold
   EBREAK =  0.89E-08  absolut break condition
   DEPER  =   0.30     relativ break condition  

   TIME   =   0.40     timestep for ELM

  volume/ion in A,a.u.               =      16.39       110.63
  Fermi-wavevector in a.u.,A,eV,Ry     =   1.454607  2.748810 28.788335  2.115883
  Thomas-Fermi vector in A             =   2.571738
 
 Write flags
   LWAVE        =      F    write WAVECAR
   LDOWNSAMPLE  =      F    k-point downsampling of WAVECAR
   LCHARG       =      F    write CHGCAR
   LVTOT        =      F    write LOCPOT, total local potential
   LVHAR        =      F    write LOCPOT, Hartree potential only
   LELF         =      F    write electronic localiz. function (ELF)
   LORBIT       =     11    0 simple, 1 ext, 2 COOP (PROOUT), +10 PAW based schemes


 Dipole corrections
   LMONO  =      F    monopole corrections only (constant potential shift)
   LDIPOL =      F    correct potential (dipole corrections)
   IDIPOL =      0    1-x, 2-y, 3-z, 4-all directions 
   EPSILON=  1.0000000 bulk dielectric constant

 Exchange correlation treatment:
   GGA     =    --    GGA type
   LEXCH   =     8    internal setting for exchange type
   VOSKOWN=      0    Vosko Wilk Nusair interpolation
   LHFCALC =     F    Hartree Fock is set to
   LHFONE  =     F    Hartree Fock one center treatment
   AEXX    =    0.0000 exact exchange contribution

 Linear response parameters
   LEPSILON=     F    determine dielectric tensor
   LRPA    =     F    only Hartree local field effects (RPA)
   LNABLA  =     F    use nabla operator in PAW spheres
   LVEL    =     F    velocity operator in full k-point grid
   LINTERFAST=   F  fast interpolation
   KINTER  =     0    interpolate to denser k-point grid
   CSHIFT  =0.1000    complex shift for real part using Kramers Kronig
   OMEGAMAX=  -1.0    maximum frequency
   DEG_THRESHOLD= 0.2000000E-02 threshold for treating states as degnerate
   RTIME   =   -0.100 relaxation time in fs
  (WPLASMAI=    0.000 imaginary part of plasma frequency in eV, 0.658/RTIME)
   DFIELD  = 0.0000000 0.0000000 0.0000000 field for delta impulse in time
 
 Orbital magnetization related:
   ORBITALMAG=     F  switch on orbital magnetization
   LCHIMAG   =     F  perturbation theory with respect to B field
   DQ        =  0.001000  dq finite difference perturbation B field
   LLRAUG    =     F  two centre corrections for induced B field



--------------------------------------------------------------------------------------------------------


 Static calculation
 charge density and potential will be updated during run
 spin polarized calculation
 Variant of blocked Davidson
 Davidson routine will perform the subspace rotation
 perform sub-space diagonalisation
    after iterative eigenvector-optimisation
 modified Broyden-mixing scheme, WC =      100.0
 initial mixing is a Kerker type mixing with AMIX =  0.4000 and BMIX =      1.0000
 Hartree-type preconditioning will be used
 using additional bands            5
 reciprocal scheme for non local part
 use partial core corrections
 calculate Harris-corrections to forces 
   (improved forces if not selfconsistent)
 use gradient corrections 
 use of overlap-Matrix (Vanderbilt PP)
 Methfessel and Paxton  Order N= 1 SIGMA  =   0.10


--------------------------------------------------------------------------------------------------------


  energy-cutoff  :      500.00
  volume of cell :       65.58
      direct lattice vectors                 reciprocal lattice vectors
     0.000008500 -2.074162400  2.933334000     0.139173204 -0.080355564  0.284089138
     3.592513700 -4.148395800 -2.933334000     0.139173204 -0.080355564 -0.056819875
     1.796384500  3.111279100  0.000000000     0.278346409  0.160700088  0.113630332

  length of vectors
     3.592575402  6.222522861  3.592638990     0.326393682  0.170454380  0.340900416


 
 k-points in units of 2pi/SCALE and weight: pymatgen v2020.8.13 with grid density = 
   0.06958660 -0.00000138  0.04261245       0.031
   0.10437990 -0.02009027  0.11363473       0.031
   0.00000000  0.04017640 -0.09943212       0.031
   0.03479330  0.02008751 -0.02840984       0.031
   0.10437990 -0.02009027  0.02840748       0.031
   0.13917320 -0.04017916  0.09942976       0.031
   0.03479330  0.02008751 -0.11363709       0.031
   0.06958660 -0.00000138 -0.04261480       0.031
   0.00000000  0.04017640  0.07102239       0.031
   0.03479330  0.02008751  0.14204467       0.031
  -0.06958660  0.08035418 -0.07102218       0.031
  -0.03479330  0.06026529  0.00000010       0.031
   0.03479330  0.02008751  0.05681742       0.031
   0.06958660 -0.00000138  0.12783970       0.031
  -0.03479330  0.06026529 -0.08522715       0.031
  -0.00000000  0.04017640 -0.01420487       0.031
   0.13917320  0.04017364  0.07102003       0.031
   0.17396651  0.02008475  0.14204232       0.031
   0.06958660  0.08035142 -0.07102454       0.031
   0.10437990  0.06026253 -0.00000225       0.031
   0.17396651  0.02008475  0.05681506       0.031
   0.20875981 -0.00000414  0.12783735       0.031
   0.10437990  0.06026253 -0.08522951       0.031
   0.13917320  0.04017364 -0.01420722       0.031
   0.06958660  0.08035142  0.09942997       0.031
   0.10437990  0.06026253  0.17045225       0.031
  -0.00000000  0.12052921 -0.04261460       0.031
   0.03479330  0.10044032  0.02840769       0.031
   0.10437990  0.06026253  0.08522500       0.031
   0.13917320  0.04017364  0.15624729       0.031
   0.03479330  0.10044032 -0.05681957       0.031
   0.06958660  0.08035142  0.01420272       0.031
 
 k-points in reciprocal lattice and weights: pymatgen v2020.8.13 with grid density = 
   0.12500000  0.12500000  0.12500000       0.031
   0.37500000  0.12500000  0.12500000       0.031
  -0.37500000  0.12500000  0.12500000       0.031
  -0.12500000  0.12500000  0.12500000       0.031
   0.12500000  0.37500000  0.12500000       0.031
   0.37500000  0.37500000  0.12500000       0.031
  -0.37500000  0.37500000  0.12500000       0.031
  -0.12500000  0.37500000  0.12500000       0.031
   0.12500000 -0.37500000  0.12500000       0.031
   0.37500000 -0.37500000  0.12500000       0.031
  -0.37500000 -0.37500000  0.12500000       0.031
  -0.12500000 -0.37500000  0.12500000       0.031
   0.12500000 -0.12500000  0.12500000       0.031
   0.37500000 -0.12500000  0.12500000       0.031
  -0.37500000 -0.12500000  0.12500000       0.031
  -0.12500000 -0.12500000  0.12500000       0.031
   0.12500000  0.12500000  0.37500000       0.031
   0.37500000  0.12500000  0.37500000       0.031
  -0.37500000  0.12500000  0.37500000       0.031
  -0.12500000  0.12500000  0.37500000       0.031
   0.12500000  0.37500000  0.37500000       0.031
   0.37500000  0.37500000  0.37500000       0.031
  -0.37500000  0.37500000  0.37500000       0.031
  -0.12500000  0.37500000  0.37500000       0.031
   0.12500000 -0.37500000  0.37500000       0.031
   0.37500000 -0.37500000  0.37500000       0.031
  -0.37500000 -0.37500000  0.37500000       0.031
  -0.12500000 -0.37500000  0.37500000       0.031
   0.12500000 -0.12500000  0.37500000       0.031
   0.37500000 -0.12500000  0.37500000       0.031
  -0.37500000 -0.12500000  0.37500000       0.031
  -0.12500000 -0.12500000  0.37500000       0.031
 
 position of ions in fractional coordinates (direct lattice) 
   0.00000000  0.00000000  0.00000000
   0.50000000  0.50000000  0.00000000
   0.75000006  0.25000002  0.50000004
   0.25000006  0.75000002  0.50000004
 
 position of ions in cartesian coordinates  (Angst):
   0.00000000  0.00000000  0.00000000
   1.79626110 -3.11127910  0.00000000
   1.79632720 -1.03708130  1.46666710
   3.59257980 -2.07419800 -1.46666690
 


--------------------------------------------------------------------------------------------------------


 k-point  1 :   0.1250 0.1250 0.1250  plane waves:    1675
 k-point  2 :   0.3750 0.1250 0.1250  plane waves:    1660
 k-point  3 :  -0.3750 0.1250 0.1250  plane waves:    1666
 k-point  4 :  -0.1250 0.1250 0.1250  plane waves:    1677
 k-point  5 :   0.1250 0.3750 0.1250  plane waves:    1676
 k-point  6 :   0.3750 0.3750 0.1250  plane waves:    1651
 k-point  7 :  -0.3750 0.3750 0.1250  plane waves:    1669
 k-point  8 :  -0.1250 0.3750 0.1250  plane waves:    1678
 k-point  9 :   0.1250-0.3750 0.1250  plane waves:    1675
 k-point 10 :   0.3750-0.3750 0.1250  plane waves:    1656
 k-point 11 :  -0.3750-0.3750 0.1250  plane waves:    1666
 k-point 12 :  -0.1250-0.3750 0.1250  plane waves:    1670
 k-point 13 :   0.1250-0.1250 0.1250  plane waves:    1661
 k-point 14 :   0.3750-0.1250 0.1250  plane waves:    1663
 k-point 15 :  -0.3750-0.1250 0.1250  plane waves:    1663
 k-point 16 :  -0.1250-0.1250 0.1250  plane waves:    1680
 k-point 17 :   0.1250 0.1250 0.3750  plane waves:    1651
 k-point 18 :   0.3750 0.1250 0.3750  plane waves:    1650
 k-point 19 :  -0.3750 0.1250 0.3750  plane waves:    1670
 k-point 20 :  -0.1250 0.1250 0.3750  plane waves:    1669
 k-point 21 :   0.1250 0.3750 0.3750  plane waves:    1660
 k-point 22 :   0.3750 0.3750 0.3750  plane waves:    1667
 k-point 23 :  -0.3750 0.3750 0.3750  plane waves:    1654
 k-point 24 :  -0.1250 0.3750 0.3750  plane waves:    1666
 k-point 25 :   0.1250-0.3750 0.3750  plane waves:    1663
 k-point 26 :   0.3750-0.3750 0.3750  plane waves:    1648
 k-point 27 :  -0.3750-0.3750 0.3750  plane waves:    1657
 k-point 28 :  -0.1250-0.3750 0.3750  plane waves:    1663
 k-point 29 :   0.1250-0.1250 0.3750  plane waves:    1656
 k-point 30 :   0.3750-0.1250 0.3750  plane waves:    1667
 k-point 31 :  -0.3750-0.1250 0.3750  plane waves:    1657
 k-point 32 :  -0.1250-0.1250 0.3750  plane waves:    1666

 maximum and minimum number of plane-waves per node :       431      405

 maximum number of plane-waves:      1680
 maximum index in each direction: 
   IXMAX=    6   IYMAX=   11   IZMAX=    6
   IXMIN=   -6   IYMIN=  -11   IZMIN=   -6


 parallel 3D FFT for wavefunctions:
    minimum data exchange during FFTs selected (reduces bandwidth)
 parallel 3D FFT for charge:
    minimum data exchange during FFTs selected (reduces bandwidth)


 total amount of memory used by VASP MPI-rank0    45715. kBytes
=======================================================================

   base      :      30000. kBytes
   nonl-proj :       6973. kBytes
   fftplans  :        616. kBytes
   grid      :       1491. kBytes
   one-center:         98. kBytes
   wavefun   :       6537. kBytes
 
     INWAV:  cpu time    0.0000: real time    0.0002
 Broyden mixing: mesh for mixing (old mesh)
   NGX = 13   NGY = 23   NGZ = 13
  (NGX  = 40   NGY  = 72   NGZ  = 40)
  gives a total of   3887 points

 initial charge density was supplied:
 charge density of overlapping atoms calculated
 number of electron      46.0000000 magnetization       0.0000000
 keeping initial charge density in first step


--------------------------------------------------------------------------------------------------------


 Maximum index for augmentation-charges         1568 (set IRDMAX)


--------------------------------------------------------------------------------------------------------


 First call to EWALD:  gamma=   0.440
 Maximum number of real-space cells 3x 2x 4
 Maximum number of reciprocal cells 3x 4x 3

    FEWALD:  cpu time    0.0013: real time    0.0013


--------------------------------------- Iteration      1(   1)  ---------------------------------------


    POTLOK:  cpu time    0.0200: real time    0.0236
    SETDIJ:  cpu time    0.0096: real time    0.0096
     EDDAV:  cpu time    0.8706: real time    0.8924
       DOS:  cpu time    0.0022: real time    0.0022
    --------------------------------------------
      LOOP:  cpu time    0.9023: real time    0.9278

 eigenvalue-minimisations  :  4240
 total energy-change (2. order) : 0.4375579E+03  (-0.1833684E+04)
 number of electron      46.0000000 magnetization      -0.0000000
 augmentation part       46.0000000 magnetization      -0.0000000

 Free energy of the ion-electron system (eV)
  ---------------------------------------------------
  alpha Z        PSCENC =       453.10565554
  Ewald energy   TEWEN  =     -4853.25068260
  -Hartree energ DENC   =     -1394.95400397
  -exchange      EXHF   =         0.00000000
  -V(xc)+E(xc)   XCENC  =       227.31529748
  PAW double counting   =      5122.54265185    -5413.80328534
  entropy T*S    EENTRO =        -0.00233619
  eigenvalues    EBANDS =       192.27844334
  atomic energy  EATOM  =      6104.32616516
  Solvation  Ediel_sol  =         0.00000000
  ---------------------------------------------------
  free energy    TOTEN  =       437.55790527 eV

  energy without entropy =      437.56024147  energy(sigma->0) =      437.55868400


--------------------------------------------------------------------------------------------------------




--------------------------------------- Iteration      1(   2)  ---------------------------------------


     EDDAV:  cpu time    0.9490: real time    0.9516
       DOS:  cpu time    0.0022: real time    0.0022
    --------------------------------------------
      LOOP:  cpu time    0.9513: real time    0.9539

 eigenvalue-minimisations  :  4832
 total energy-change (2. order) :-0.3828918E+03  (-0.3600478E+03)
 number of electron      46.0000000 magnetization      -0.0000000
 augmentation part       46.0000000 magnetization      -0.0000000

 Free energy of the ion-electron system (eV)
  ---------------------------------------------------
  alpha Z        PSCENC =       453.10565554
  Ewald energy   TEWEN  =     -4853.25068260
  -Hartree energ DENC   =     -1394.95400397
  -exchange      EXHF   =         0.00000000
  -V(xc)+E(xc)   XCENC  =       227.31529748
  PAW double counting   =      5122.54265185    -5413.80328534
  entropy T*S    EENTRO =        -0.00115940
  eigenvalues    EBANDS =      -190.61456617
  atomic energy  EATOM  =      6104.32616516
  Solvation  Ediel_sol  =         0.00000000
  ---------------------------------------------------
  free energy    TOTEN  =        54.66607256 eV

  energy without entropy =       54.66723196  energy(sigma->0) =       54.66645903


--------------------------------------------------------------------------------------------------------




--------------------------------------- Iteration      1(   3)  ---------------------------------------


     EDDAV:  cpu time    1.1391: real time    1.1419
       DOS:  cpu time    0.0027: real time    0.0027
    --------------------------------------------
      LOOP:  cpu time    1.1418: real time    1.1446

 eigenvalue-minimisations  :  6068
 total energy-change (2. order) :-0.9108402E+02  (-0.8913621E+02)
 number of electron      46.0000000 magnetization      -0.0000000
 augmentation part       46.0000000 magnetization      -0.0000000

 Free energy of the ion-electron system (eV)
  ---------------------------------------------------
  alpha Z        PSCENC =       453.10565554
  Ewald energy   TEWEN  =     -4853.25068260
  -Hartree energ DENC   =     -1394.95400397
  -exchange      EXHF   =         0.00000000
  -V(xc)+E(xc)   XCENC  =       227.31529748
  PAW double counting   =      5122.54265185    -5413.80328534
  entropy T*S    EENTRO =         0.00074242
  eigenvalues    EBANDS =      -281.70048999
  atomic energy  EATOM  =      6104.32616516
  Solvation  Ediel_sol  =         0.00000000
  ---------------------------------------------------
  free energy    TOTEN  =       -36.41794943 eV

  energy without entropy =      -36.41869186  energy(sigma->0) =      -36.41819691


--------------------------------------------------------------------------------------------------------




--------------------------------------- Iteration      1(   4)  ---------------------------------------


     EDDAV:  cpu time    1.1457: real time    1.1485
       DOS:  cpu time    0.0026: real time    0.0026
    --------------------------------------------
      LOOP:  cpu time    1.1483: real time    1.1511

 eigenvalue-minimisations  :  6204
 total energy-change (2. order) :-0.7734747E+01  (-0.7338998E+01)
 number of electron      46.0000000 magnetization      -0.0000000
 augmentation part       46.0000000 magnetization      -0.0000000

 Free energy of the ion-electron system (eV)
  ---------------------------------------------------
  alpha Z        PSCENC =       453.10565554
  Ewald energy   TEWEN  =     -4853.25068260
  -Hartree energ DENC   =     -1394.95400397
  -exchange      EXHF   =         0.00000000
  -V(xc)+E(xc)   XCENC  =       227.31529748
  PAW double counting   =      5122.54265185    -5413.80328534
  entropy T*S    EENTRO =        -0.00915864
  eigenvalues    EBANDS =      -289.42533578
  atomic energy  EATOM  =      6104.32616516
  Solvation  Ediel_sol  =         0.00000000
  ---------------------------------------------------
  free energy    TOTEN  =       -44.15269630 eV

  energy without entropy =      -44.14353765  energy(sigma->0) =      -44.14964342


--------------------------------------------------------------------------------------------------------




--------------------------------------- Iteration      1(   5)  ---------------------------------------


     EDDAV:  cpu time    1.2003: real time    1.2033
       DOS:  cpu time    0.0026: real time    0.0026
    CHARGE:  cpu time    0.0598: real time    0.0600
    MIXING:  cpu time    0.0008: real time    0.0008
    --------------------------------------------
      LOOP:  cpu time    1.2635: real time    1.2666

 eigenvalue-minimisations  :  6604
 total energy-change (2. order) :-0.8606505E+00  (-0.8112281E+00)
 number of electron      45.9999975 magnetization       0.0000000
 augmentation part        8.7043693 magnetization       0.0000000

 Broyden mixing:
  rms(total) = 0.26837E+01    rms(broyden)= 0.26835E+01
  rms(prec ) = 0.49428E+01
  weight for this iteration     100.00

 Free energy of the ion-electron system (eV)
  ---------------------------------------------------
  alpha Z        PSCENC =       453.10565554
  Ewald energy   TEWEN  =     -4853.25068260
  -Hartree energ DENC   =     -1394.95400397
  -exchange      EXHF   =         0.00000000
  -V(xc)+E(xc)   XCENC  =       227.31529748
  PAW double counting   =      5122.54265185    -5413.80328534
  entropy T*S    EENTRO =        -0.00927336
  eigenvalues    EBANDS =      -290.28587162
  atomic energy  EATOM  =      6104.32616516
  Solvation  Ediel_sol  =         0.00000000
  ---------------------------------------------------
  free energy    TOTEN  =       -45.01334685 eV

  energy without entropy =      -45.00407349  energy(sigma->0) =      -45.01025573


--------------------------------------------------------------------------------------------------------




--------------------------------------- Iteration      1(   6)  ---------------------------------------


    POTLOK:  cpu time    0.0170: real time    0.0171
    SETDIJ:  cpu time    0.0085: real time    0.0086
     EDDAV:  cpu time    1.1331: real time    1.1358
       DOS:  cpu time    0.0024: real time    0.0024
    CHARGE:  cpu time    0.0554: real time    0.0555
    MIXING:  cpu time    0.0007: real time    0.0007
    --------------------------------------------
      LOOP:  cpu time    1.2171: real time    1.2200

 eigenvalue-minimisations  :  5932
 total energy-change (2. order) :-0.4094224E+02  (-0.6668663E+02)
 number of electron      46.0000043 magnetization       0.0000000
 augmentation part       22.4749695 magnetization       0.0000000

 Broyden mixing:
  rms(total) = 0.10773E+02    rms(broyden)= 0.10773E+02
  rms(prec ) = 0.17639E+02
  weight for this iteration     100.00

 eigenvalues of (default mixing * dielectric matrix)
  average eigenvalue GAMMA=   0.1470
  0.1470

 Free energy of the ion-electron system (eV)
  ---------------------------------------------------
  alpha Z        PSCENC =       453.10565554
  Ewald energy   TEWEN  =     -4853.25068260
  -Hartree energ DENC   =     -1268.95651084
  -exchange      EXHF   =         0.00000000
  -V(xc)+E(xc)   XCENC  =       223.77924539
  PAW double counting   =      4938.84906593    -5174.46185885
  entropy T*S    EENTRO =        -0.00236148
  eigenvalues    EBANDS =      -509.34430582
  atomic energy  EATOM  =      6104.32616516
  Solvation  Ediel_sol  =         0.00000000
  ---------------------------------------------------
  free energy    TOTEN  =       -85.95558758 eV

  energy without entropy =      -85.95322610  energy(sigma->0) =      -85.95480042


--------------------------------------------------------------------------------------------------------




--------------------------------------- Iteration      1(   7)  ---------------------------------------


    POTLOK:  cpu time    0.0168: real time    0.0169
    SETDIJ:  cpu time    0.0085: real time    0.0086
     EDDAV:  cpu time    1.0522: real time    1.0547
       DOS:  cpu time    0.0029: real time    0.0029
    CHARGE:  cpu time    0.0563: real time    0.0565
    MIXING:  cpu time    0.0007: real time    0.0007
    --------------------------------------------
      LOOP:  cpu time    1.1374: real time    1.1402

 eigenvalue-minimisations  :  5564
 total energy-change (2. order) : 0.5896278E+02  (-0.4592387E+02)
 number of electron      45.9999992 magnetization      -0.0000000
 augmentation part       10.4688178 magnetization      -0.0000000

 Broyden mixing:
  rms(total) = 0.24537E+01    rms(broyden)= 0.24533E+01
  rms(prec ) = 0.25654E+01
  weight for this iteration     100.00

 eigenvalues of (default mixing * dielectric matrix)
  average eigenvalue GAMMA=   0.2258
  0.2258  0.2258

 Free energy of the ion-electron system (eV)
  ---------------------------------------------------
  alpha Z        PSCENC =       453.10565554
  Ewald energy   TEWEN  =     -4853.25068260
  -Hartree energ DENC   =     -1356.47663975
  -exchange      EXHF   =         0.00000000
  -V(xc)+E(xc)   XCENC  =       224.29461991
  PAW double counting   =      5163.24062853    -5453.07882308
  entropy T*S    EENTRO =         0.00513350
  eigenvalues    EBANDS =      -309.15886950
  atomic energy  EATOM  =      6104.32616516
  Solvation  Ediel_sol  =         0.00000000
  ---------------------------------------------------
  free energy    TOTEN  =       -26.99281229 eV

  energy without entropy =      -26.99794579  energy(sigma->0) =      -26.99452346


--------------------------------------------------------------------------------------------------------




--------------------------------------- Iteration      1(   8)  ---------------------------------------


    POTLOK:  cpu time    0.0165: real time    0.0166
    SETDIJ:  cpu time    0.0084: real time    0.0084
     EDDAV:  cpu time    1.0326: real time    1.0351
       DOS:  cpu time    0.0024: real time    0.0024
    CHARGE:  cpu time    0.0722: real time    0.0724
    MIXING:  cpu time    0.0007: real time    0.0007
    --------------------------------------------
      LOOP:  cpu time    1.1328: real time    1.1356

 eigenvalue-minimisations  :  5720
 total energy-change (2. order) :-0.1398380E+02  (-0.1066138E+02)
 number of electron      45.9999985 magnetization       0.0000000
 augmentation part       12.1764320 magnetization       0.0000000

 Broyden mixing:
  rms(total) = 0.21615E+01    rms(broyden)= 0.21613E+01
  rms(prec ) = 0.24280E+01
  weight for this iteration     100.00

 eigenvalues of (default mixing * dielectric matrix)
  average eigenvalue GAMMA=   0.3316
  0.3959  0.3959  0.2030

 Free energy of the ion-electron system (eV)
  ---------------------------------------------------
  alpha Z        PSCENC =       453.10565554
  Ewald energy   TEWEN  =     -4853.25068260
  -Hartree energ DENC   =     -1349.59987730
  -exchange      EXHF   =         0.00000000
  -V(xc)+E(xc)   XCENC  =       225.29960033
  PAW double counting   =      5183.22222120    -5472.86376515
  entropy T*S    EENTRO =        -0.00004775
  eigenvalues    EBANDS =      -331.21587713
  atomic energy  EATOM  =      6104.32616516
  Solvation  Ediel_sol  =         0.00000000
  ---------------------------------------------------
  free energy    TOTEN  =       -40.97660772 eV

  energy without entropy =      -40.97655996  energy(sigma->0) =      -40.97659180


--------------------------------------------------------------------------------------------------------




--------------------------------------- Iteration      1(   9)  ---------------------------------------


    POTLOK:  cpu time    0.0163: real time    0.0164
    SETDIJ:  cpu time    0.0086: real time    0.0086
     EDDAV:  cpu time    1.0591: real time    1.0616
       DOS:  cpu time    0.0027: real time    0.0027
    CHARGE:  cpu time    0.0550: real time    0.0551
    MIXING:  cpu time    0.0009: real time    0.0009
    --------------------------------------------
      LOOP:  cpu time    1.1426: real time    1.1453

 eigenvalue-minimisations  :  5724
 total energy-change (2. order) :-0.4799654E+00  (-0.1101122E+01)
 number of electron      45.9999985 magnetization       0.0000000
 augmentation part       11.5980367 magnetization       0.0000000

 Broyden mixing:
  rms(total) = 0.13126E+01    rms(broyden)= 0.13126E+01
  rms(prec ) = 0.15784E+01
  weight for this iteration     100.00

 eigenvalues of (default mixing * dielectric matrix)
  average eigenvalue GAMMA=   0.5191
  0.8157  0.1990  0.5309  0.5309

 Free energy of the ion-electron system (eV)
  ---------------------------------------------------
  alpha Z        PSCENC =       453.10565554
  Ewald energy   TEWEN  =     -4853.25068260
  -Hartree energ DENC   =     -1370.19865535
  -exchange      EXHF   =         0.00000000
  -V(xc)+E(xc)   XCENC  =       227.57333747
  PAW double counting   =      5209.41904009    -5507.11451159
  entropy T*S    EENTRO =         0.01723704
  eigenvalues    EBANDS =      -305.33415885
  atomic energy  EATOM  =      6104.32616516
  Solvation  Ediel_sol  =         0.00000000
  ---------------------------------------------------
  free energy    TOTEN  =       -41.45657309 eV

  energy without entropy =      -41.47381013  energy(sigma->0) =      -41.46231877


--------------------------------------------------------------------------------------------------------




--------------------------------------- Iteration      1(  10)  ---------------------------------------


    POTLOK:  cpu time    0.0169: real time    0.0170
    SETDIJ:  cpu time    0.0087: real time    0.0087
     EDDAV:  cpu time    1.2361: real time    1.2391
       DOS:  cpu time    0.0027: real time    0.0027
    CHARGE:  cpu time    0.0576: real time    0.0577
    MIXING:  cpu time    0.0009: real time    0.0009
    --------------------------------------------
      LOOP:  cpu time    1.3229: real time    1.3261

 eigenvalue-minimisations  :  6480
 total energy-change (2. order) :-0.1308723E+00  (-0.2159656E+00)
 number of electron      45.9999986 magnetization       0.0000000
 augmentation part       11.2203933 magnetization       0.0000000

 Broyden mixing:
  rms(total) = 0.87218E+00    rms(broyden)= 0.87217E+00
  rms(prec ) = 0.11381E+01
  weight for this iteration     100.00

 eigenvalues of (default mixing * dielectric matrix)
  average eigenvalue GAMMA=   0.5763
  0.8483  0.8483  0.1993  0.4929  0.4929

 Free energy of the ion-electron system (eV)
  ---------------------------------------------------
  alpha Z        PSCENC =       453.10565554
  Ewald energy   TEWEN  =     -4853.25068260
  -Hartree energ DENC   =     -1380.36452601
  -exchange      EXHF   =         0.00000000
  -V(xc)+E(xc)   XCENC  =       229.48314891
  PAW double counting   =      5227.13150240    -5532.97405086
  entropy T*S    EENTRO =         0.01161446
  eigenvalues    EBANDS =      -289.05627240
  atomic energy  EATOM  =      6104.32616516
  Solvation  Ediel_sol  =         0.00000000
  ---------------------------------------------------
  free energy    TOTEN  =       -41.58744539 eV

  energy without entropy =      -41.59905985  energy(sigma->0) =      -41.59131688


--------------------------------------------------------------------------------------------------------




--------------------------------------- Iteration      1(  11)  ---------------------------------------


    POTLOK:  cpu time    0.0175: real time    0.0179
    SETDIJ:  cpu time    0.0087: real time    0.0087
     EDDAV:  cpu time    1.2422: real time    1.2451
       DOS:  cpu time    0.0026: real time    0.0026
    CHARGE:  cpu time    0.0552: real time    0.0554
    MIXING:  cpu time    0.0008: real time    0.0008
    --------------------------------------------
      LOOP:  cpu time    1.3271: real time    1.3306

 eigenvalue-minimisations  :  6800
 total energy-change (2. order) :-0.1452792E+00  (-0.4890947E-01)
 number of electron      45.9999986 magnetization       0.0000000
 augmentation part       11.1451435 magnetization       0.0000000

 Broyden mixing:
  rms(total) = 0.59032E+00    rms(broyden)= 0.59031E+00
  rms(prec ) = 0.85905E+00
  weight for this iteration     100.00

 eigenvalues of (default mixing * dielectric matrix)
  average eigenvalue GAMMA=   0.8278
  2.0698  1.0542  0.1991  0.4996  0.4996  0.6447

 Free energy of the ion-electron system (eV)
  ---------------------------------------------------
  alpha Z        PSCENC =       453.10565554
  Ewald energy   TEWEN  =     -4853.25068260
  -Hartree energ DENC   =     -1384.23588920
  -exchange      EXHF   =         0.00000000
  -V(xc)+E(xc)   XCENC  =       230.48817949
  PAW double counting   =      5237.64347364    -5546.84371824
  entropy T*S    EENTRO =         0.00855681
  eigenvalues    EBANDS =      -282.97446523
  atomic energy  EATOM  =      6104.32616516
  Solvation  Ediel_sol  =         0.00000000
  ---------------------------------------------------
  free energy    TOTEN  =       -41.73272463 eV

  energy without entropy =      -41.74128144  energy(sigma->0) =      -41.73557690


--------------------------------------------------------------------------------------------------------




--------------------------------------- Iteration      1(  12)  ---------------------------------------


    POTLOK:  cpu time    0.0170: real time    0.0171
    SETDIJ:  cpu time    0.0085: real time    0.0086
     EDDAV:  cpu time    1.1755: real time    1.1783
       DOS:  cpu time    0.0024: real time    0.0024
    CHARGE:  cpu time    0.0538: real time    0.0539
    MIXING:  cpu time    0.0008: real time    0.0008
    --------------------------------------------
      LOOP:  cpu time    1.2580: real time    1.2611

 eigenvalue-minimisations  :  6368
 total energy-change (2. order) : 0.4477399E-01  (-0.1375141E+00)
 number of electron      45.9999990 magnetization      -0.0000000
 augmentation part       11.4648833 magnetization      -0.0000000

 Broyden mixing:
  rms(total) = 0.25347E+00    rms(broyden)= 0.25343E+00
  rms(prec ) = 0.37883E+00
  weight for this iteration     100.00

 eigenvalues of (default mixing * dielectric matrix)
  average eigenvalue GAMMA=   0.9311
  2.8279  1.1069  0.1991  0.5039  0.5039  0.6880  0.6880

 Free energy of the ion-electron system (eV)
  ---------------------------------------------------
  alpha Z        PSCENC =       453.10565554
  Ewald energy   TEWEN  =     -4853.25068260
  -Hartree energ DENC   =     -1382.16781501
  -exchange      EXHF   =         0.00000000
  -V(xc)+E(xc)   XCENC  =       232.67843439
  PAW double counting   =      5266.03795694    -5579.01103413
  entropy T*S    EENTRO =         0.01358903
  eigenvalues    EBANDS =      -283.42021998
  atomic energy  EATOM  =      6104.32616516
  Solvation  Ediel_sol  =         0.00000000
  ---------------------------------------------------
  free energy    TOTEN  =       -41.68795064 eV

  energy without entropy =      -41.70153968  energy(sigma->0) =      -41.69248032


--------------------------------------------------------------------------------------------------------




--------------------------------------- Iteration      1(  13)  ---------------------------------------


    POTLOK:  cpu time    0.0159: real time    0.0160
    SETDIJ:  cpu time    0.0081: real time    0.0081
     EDDAV:  cpu time    1.1474: real time    1.1501
       DOS:  cpu time    0.0027: real time    0.0027
    CHARGE:  cpu time    0.0663: real time    0.0664
    MIXING:  cpu time    0.0009: real time    0.0009
    --------------------------------------------
      LOOP:  cpu time    1.2411: real time    1.2442

 eigenvalue-minimisations  :  6292
 total energy-change (2. order) : 0.6228032E-01  (-0.3223938E-01)
 number of electron      45.9999991 magnetization      -0.0000000
 augmentation part       11.6291360 magnetization      -0.0000000

 Broyden mixing:
  rms(total) = 0.18030E+00    rms(broyden)= 0.18030E+00
  rms(prec ) = 0.25085E+00
  weight for this iteration     100.00

 eigenvalues of (default mixing * dielectric matrix)
  average eigenvalue GAMMA=   0.9736
  2.8961  1.4600  0.1991  0.5014  0.5014  0.8100  0.8100  0.6106

 Free energy of the ion-electron system (eV)
  ---------------------------------------------------
  alpha Z        PSCENC =       453.10565554
  Ewald energy   TEWEN  =     -4853.25068260
  -Hartree energ DENC   =     -1378.67126975
  -exchange      EXHF   =         0.00000000
  -V(xc)+E(xc)   XCENC  =       232.67984147
  PAW double counting   =      5266.58316652    -5577.27659104
  entropy T*S    EENTRO =         0.01466314
  eigenvalues    EBANDS =      -289.13661877
  atomic energy  EATOM  =      6104.32616516
  Solvation  Ediel_sol  =         0.00000000
  ---------------------------------------------------
  free energy    TOTEN  =       -41.62567032 eV

  energy without entropy =      -41.64033347  energy(sigma->0) =      -41.63055804


--------------------------------------------------------------------------------------------------------




--------------------------------------- Iteration      1(  14)  ---------------------------------------


    POTLOK:  cpu time    0.0165: real time    0.0167
    SETDIJ:  cpu time    0.0083: real time    0.0083
     EDDAV:  cpu time    1.1125: real time    1.1151
       DOS:  cpu time    0.0027: real time    0.0027
    CHARGE:  cpu time    0.0607: real time    0.0608
    MIXING:  cpu time    0.0009: real time    0.0009
    --------------------------------------------
      LOOP:  cpu time    1.2017: real time    1.2046

 eigenvalue-minimisations  :  5976
 total energy-change (2. order) : 0.7933736E-02  (-0.4536569E-02)
 number of electron      45.9999990 magnetization      -0.0000000
 augmentation part       11.6825232 magnetization      -0.0000000

 Broyden mixing:
  rms(total) = 0.15604E+00    rms(broyden)= 0.15604E+00
  rms(prec ) = 0.20870E+00
  weight for this iteration     100.00

 eigenvalues of (default mixing * dielectric matrix)
  average eigenvalue GAMMA=   1.0018
  2.9422  1.3096  1.3096  0.1991  0.5014  0.5014  0.8586  0.6971  0.6971

 Free energy of the ion-electron system (eV)
  ---------------------------------------------------
  alpha Z        PSCENC =       453.10565554
  Ewald energy   TEWEN  =     -4853.25068260
  -Hartree energ DENC   =     -1377.67444548
  -exchange      EXHF   =         0.00000000
  -V(xc)+E(xc)   XCENC  =       232.69486564
  PAW double counting   =      5271.85833791    -5581.30152500
  entropy T*S    EENTRO =         0.01454665
  eigenvalues    EBANDS =      -291.39065440
  atomic energy  EATOM  =      6104.32616516
  Solvation  Ediel_sol  =         0.00000000
  ---------------------------------------------------
  free energy    TOTEN  =       -41.61773658 eV

  energy without entropy =      -41.63228324  energy(sigma->0) =      -41.62258547


--------------------------------------------------------------------------------------------------------




--------------------------------------- Iteration      1(  15)  ---------------------------------------


    POTLOK:  cpu time    0.0160: real time    0.0161
    SETDIJ:  cpu time    0.0082: real time    0.0082
     EDDAV:  cpu time    1.2080: real time    1.2108
       DOS:  cpu time    0.0027: real time    0.0027
    CHARGE:  cpu time    0.0552: real time    0.0554
    MIXING:  cpu time    0.0011: real time    0.0011
    --------------------------------------------
      LOOP:  cpu time    1.2911: real time    1.2943

 eigenvalue-minimisations  :  6436
 total energy-change (2. order) : 0.5433747E-02  (-0.1854008E-02)
 number of electron      45.9999990 magnetization      -0.0000000
 augmentation part       11.7080218 magnetization      -0.0000000

 Broyden mixing:
  rms(total) = 0.11586E+00    rms(broyden)= 0.11586E+00
  rms(prec ) = 0.15363E+00
  weight for this iteration     100.00

 eigenvalues of (default mixing * dielectric matrix)
  average eigenvalue GAMMA=   1.0768
  2.7594  1.9521  1.9521  0.1991  0.5017  0.5017  0.7750  0.7750  0.6816  0.6698

 Free energy of the ion-electron system (eV)
  ---------------------------------------------------
  alpha Z        PSCENC =       453.10565554
  Ewald energy   TEWEN  =     -4853.25068260
  -Hartree energ DENC   =     -1377.93039744
  -exchange      EXHF   =         0.00000000
  -V(xc)+E(xc)   XCENC  =       232.66088174
  PAW double counting   =      5282.00177927    -5590.02936253
  entropy T*S    EENTRO =         0.01474122
  eigenvalues    EBANDS =      -292.51108320
  atomic energy  EATOM  =      6104.32616516
  Solvation  Ediel_sol  =         0.00000000
  ---------------------------------------------------
  free energy    TOTEN  =       -41.61230284 eV

  energy without entropy =      -41.62704406  energy(sigma->0) =      -41.61721658


--------------------------------------------------------------------------------------------------------




--------------------------------------- Iteration      1(  16)  ---------------------------------------


    POTLOK:  cpu time    0.0168: real time    0.0169
    SETDIJ:  cpu time    0.0086: real time    0.0086
     EDDAV:  cpu time    1.2491: real time    1.2521
       DOS:  cpu time    0.0027: real time    0.0027
    CHARGE:  cpu time    0.0627: real time    0.0629
    MIXING:  cpu time    0.0011: real time    0.0011
    --------------------------------------------
      LOOP:  cpu time    1.3410: real time    1.3442

 eigenvalue-minimisations  :  6828
 total energy-change (2. order) : 0.4670441E-03  (-0.1625621E-02)
 number of electron      45.9999990 magnetization      -0.0000000
 augmentation part       11.6928070 magnetization      -0.0000000

 Broyden mixing:
  rms(total) = 0.69715E-01    rms(broyden)= 0.69710E-01
  rms(prec ) = 0.82501E-01
  weight for this iteration     100.00

 eigenvalues of (default mixing * dielectric matrix)
  average eigenvalue GAMMA=   1.1265
  2.7845  2.2658  2.2658  0.1991  0.5015  0.5015  0.9368  0.9368  0.6874  0.6874
  0.6247

 Free energy of the ion-electron system (eV)
  ---------------------------------------------------
  alpha Z        PSCENC =       453.10565554
  Ewald energy   TEWEN  =     -4853.25068260
  -Hartree energ DENC   =     -1378.35909854
  -exchange      EXHF   =         0.00000000
  -V(xc)+E(xc)   XCENC  =       232.51262295
  PAW double counting   =      5288.03831452    -5595.41852475
  entropy T*S    EENTRO =         0.01529120
  eigenvalues    EBANDS =      -292.58157928
  atomic energy  EATOM  =      6104.32616516
  Solvation  Ediel_sol  =         0.00000000
  ---------------------------------------------------
  free energy    TOTEN  =       -41.61183579 eV

  energy without entropy =      -41.62712700  energy(sigma->0) =      -41.61693286


--------------------------------------------------------------------------------------------------------




--------------------------------------- Iteration      1(  17)  ---------------------------------------


    POTLOK:  cpu time    0.0167: real time    0.0168
    SETDIJ:  cpu time    0.0083: real time    0.0083
     EDDAV:  cpu time    1.2026: real time    1.2054
       DOS:  cpu time    0.0027: real time    0.0027
    CHARGE:  cpu time    0.0657: real time    0.0659
    MIXING:  cpu time    0.0013: real time    0.0013
    --------------------------------------------
      LOOP:  cpu time    1.2973: real time    1.3005

 eigenvalue-minimisations  :  6504
 total energy-change (2. order) :-0.3434843E-04  (-0.3469515E-03)
 number of electron      45.9999990 magnetization      -0.0000000
 augmentation part       11.6914184 magnetization      -0.0000000

 Broyden mixing:
  rms(total) = 0.45582E-01    rms(broyden)= 0.45580E-01
  rms(prec ) = 0.53578E-01
  weight for this iteration     100.00

 eigenvalues of (default mixing * dielectric matrix)
  average eigenvalue GAMMA=   1.1030
  2.6911  2.4588  2.4588  0.1991  0.5016  0.5016  0.9099  0.9099  0.6779  0.6779
  0.6244  0.6244

 Free energy of the ion-electron system (eV)
  ---------------------------------------------------
  alpha Z        PSCENC =       453.10565554
  Ewald energy   TEWEN  =     -4853.25068260
  -Hartree energ DENC   =     -1378.16925119
  -exchange      EXHF   =         0.00000000
  -V(xc)+E(xc)   XCENC  =       232.41779708
  PAW double counting   =      5287.88525868    -5595.27396011
  entropy T*S    EENTRO =         0.01534000
  eigenvalues    EBANDS =      -292.66819271
  atomic energy  EATOM  =      6104.32616516
  Solvation  Ediel_sol  =         0.00000000
  ---------------------------------------------------
  free energy    TOTEN  =       -41.61187014 eV

  energy without entropy =      -41.62721014  energy(sigma->0) =      -41.61698348


--------------------------------------------------------------------------------------------------------




--------------------------------------- Iteration      1(  18)  ---------------------------------------


    POTLOK:  cpu time    0.0167: real time    0.0169
    SETDIJ:  cpu time    0.0085: real time    0.0085
     EDDAV:  cpu time    1.0940: real time    1.0966
       DOS:  cpu time    0.0027: real time    0.0028
    CHARGE:  cpu time    0.0645: real time    0.0646
    MIXING:  cpu time    0.0014: real time    0.0014
    --------------------------------------------
      LOOP:  cpu time    1.1877: real time    1.1907

 eigenvalue-minimisations  :  5792
 total energy-change (2. order) :-0.8503591E-04  (-0.1741706E-03)
 number of electron      45.9999990 magnetization      -0.0000000
 augmentation part       11.6778559 magnetization      -0.0000000

 Broyden mixing:
  rms(total) = 0.29160E-01    rms(broyden)= 0.29160E-01
  rms(prec ) = 0.33205E-01
  weight for this iteration     100.00

 eigenvalues of (default mixing * dielectric matrix)
  average eigenvalue GAMMA=   1.0936
  2.5372  2.5372  2.5509  0.9725  0.9725  0.1991  0.5016  0.5016  0.7682  0.7682
  0.6540  0.6540  0.6001

 Free energy of the ion-electron system (eV)
  ---------------------------------------------------
  alpha Z        PSCENC =       453.10565554
  Ewald energy   TEWEN  =     -4853.25068260
  -Hartree energ DENC   =     -1378.20077792
  -exchange      EXHF   =         0.00000000
  -V(xc)+E(xc)   XCENC  =       232.35613998
  PAW double counting   =      5286.53368886    -5594.19328656
  entropy T*S    EENTRO =         0.01539748
  eigenvalues    EBANDS =      -292.30425512
  atomic energy  EATOM  =      6104.32616516
  Solvation  Ediel_sol  =         0.00000000
  ---------------------------------------------------
  free energy    TOTEN  =       -41.61195518 eV

  energy without entropy =      -41.62735265  energy(sigma->0) =      -41.61708767


--------------------------------------------------------------------------------------------------------




--------------------------------------- Iteration      1(  19)  ---------------------------------------


    POTLOK:  cpu time    0.0171: real time    0.0172
    SETDIJ:  cpu time    0.0084: real time    0.0084
     EDDAV:  cpu time    1.3032: real time    1.3063
       DOS:  cpu time    0.0027: real time    0.0027
    CHARGE:  cpu time    0.0652: real time    0.0654
    MIXING:  cpu time    0.0013: real time    0.0013
    --------------------------------------------
      LOOP:  cpu time    1.3980: real time    1.4014

 eigenvalue-minimisations  :  7128
 total energy-change (2. order) :-0.8945320E-04  (-0.3744260E-04)
 number of electron      45.9999990 magnetization       0.0000000
 augmentation part       11.6767790 magnetization       0.0000000

 Broyden mixing:
  rms(total) = 0.17584E-01    rms(broyden)= 0.17584E-01
  rms(prec ) = 0.20649E-01
  weight for this iteration     100.00

 eigenvalues of (default mixing * dielectric matrix)
  average eigenvalue GAMMA=   1.1169
  2.8141  2.8141  2.3122  0.1991  0.5016  0.5016  0.9112  0.9112  1.0352  0.8897
  0.7717  0.7717  0.6016  0.6016

 Free energy of the ion-electron system (eV)
  ---------------------------------------------------
  alpha Z        PSCENC =       453.10565554
  Ewald energy   TEWEN  =     -4853.25068260
  -Hartree energ DENC   =     -1378.10811921
  -exchange      EXHF   =         0.00000000
  -V(xc)+E(xc)   XCENC  =       232.31175491
  PAW double counting   =      5285.92798251    -5593.58202799
  entropy T*S    EENTRO =         0.01541977
  eigenvalues    EBANDS =      -292.35819272
  atomic energy  EATOM  =      6104.32616516
  Solvation  Ediel_sol  =         0.00000000
  ---------------------------------------------------
  free energy    TOTEN  =       -41.61204463 eV

  energy without entropy =      -41.62746440  energy(sigma->0) =      -41.61718456


--------------------------------------------------------------------------------------------------------




--------------------------------------- Iteration      1(  20)  ---------------------------------------


    POTLOK:  cpu time    0.0168: real time    0.0170
    SETDIJ:  cpu time    0.0085: real time    0.0085
     EDDAV:  cpu time    1.0511: real time    1.0536
       DOS:  cpu time    0.0024: real time    0.0024
    CHARGE:  cpu time    0.0624: real time    0.0625
    MIXING:  cpu time    0.0013: real time    0.0013
    --------------------------------------------
      LOOP:  cpu time    1.1424: real time    1.1452

 eigenvalue-minimisations  :  5760
 total energy-change (2. order) :-0.8447704E-05  (-0.7499683E-04)
 number of electron      45.9999990 magnetization       0.0000000
 augmentation part       11.6686033 magnetization       0.0000000

 Broyden mixing:
  rms(total) = 0.42283E-02    rms(broyden)= 0.42280E-02
  rms(prec ) = 0.51938E-02
  weight for this iteration     100.00

 eigenvalues of (default mixing * dielectric matrix)
  average eigenvalue GAMMA=   1.1434
  2.9212  2.9212  1.9346  1.9346  0.1991  0.5016  0.5016  0.9204  0.9204  0.8898
  0.8402  0.8402  0.6759  0.6001  0.5495

 Free energy of the ion-electron system (eV)
  ---------------------------------------------------
  alpha Z        PSCENC =       453.10565554
  Ewald energy   TEWEN  =     -4853.25068260
  -Hartree energ DENC   =     -1378.06020701
  -exchange      EXHF   =         0.00000000
  -V(xc)+E(xc)   XCENC  =       232.24421066
  PAW double counting   =      5284.70240572    -5592.49182946
  entropy T*S    EENTRO =         0.01552049
  eigenvalues    EBANDS =      -292.20329157
  atomic energy  EATOM  =      6104.32616516
  Solvation  Ediel_sol  =         0.00000000
  ---------------------------------------------------
  free energy    TOTEN  =       -41.61205308 eV

  energy without entropy =      -41.62757357  energy(sigma->0) =      -41.61722658


--------------------------------------------------------------------------------------------------------




--------------------------------------- Iteration      1(  21)  ---------------------------------------


    POTLOK:  cpu time    0.0152: real time    0.0153
    SETDIJ:  cpu time    0.0075: real time    0.0075
     EDDAV:  cpu time    1.2652: real time    1.2682
       DOS:  cpu time    0.0025: real time    0.0025
    CHARGE:  cpu time    0.0616: real time    0.0617
    MIXING:  cpu time    0.0014: real time    0.0014
    --------------------------------------------
      LOOP:  cpu time    1.3535: real time    1.3568

 eigenvalue-minimisations  :  7008
 total energy-change (2. order) : 0.1460956E-05  (-0.8071097E-05)
 number of electron      45.9999990 magnetization       0.0000000
 augmentation part       11.6679893 magnetization       0.0000000

 Broyden mixing:
  rms(total) = 0.62084E-02    rms(broyden)= 0.62083E-02
  rms(prec ) = 0.71765E-02
  weight for this iteration     100.00

 eigenvalues of (default mixing * dielectric matrix)
  average eigenvalue GAMMA=   1.2128
  3.0528  3.0528  2.5293  2.5293  0.1991  0.5016  0.5016  1.0181  1.0181  0.8940
  0.8940  0.7304  0.7304  0.6248  0.6248  0.5045

 Free energy of the ion-electron system (eV)
  ---------------------------------------------------
  alpha Z        PSCENC =       453.10565554
  Ewald energy   TEWEN  =     -4853.25068260
  -Hartree energ DENC   =     -1378.08765644
  -exchange      EXHF   =         0.00000000
  -V(xc)+E(xc)   XCENC  =       232.23230745
  PAW double counting   =      5284.54420087    -5592.30600431
  entropy T*S    EENTRO =         0.01551137
  eigenvalues    EBANDS =      -292.19154866
  atomic energy  EATOM  =      6104.32616516
  Solvation  Ediel_sol  =         0.00000000
  ---------------------------------------------------
  free energy    TOTEN  =       -41.61205162 eV

  energy without entropy =      -41.62756299  energy(sigma->0) =      -41.61722207


--------------------------------------------------------------------------------------------------------




--------------------------------------- Iteration      1(  22)  ---------------------------------------


    POTLOK:  cpu time    0.0164: real time    0.0166
    SETDIJ:  cpu time    0.0081: real time    0.0081
     EDDAV:  cpu time    1.1007: real time    1.1033
       DOS:  cpu time    0.0027: real time    0.0027
    CHARGE:  cpu time    0.0643: real time    0.0644
    MIXING:  cpu time    0.0019: real time    0.0019
    --------------------------------------------
      LOOP:  cpu time    1.1941: real time    1.1970

 eigenvalue-minimisations  :  5956
 total energy-change (2. order) : 0.3478942E-05  (-0.4272931E-05)
 number of electron      45.9999990 magnetization       0.0000000
 augmentation part       11.6669481 magnetization       0.0000000

 Broyden mixing:
  rms(total) = 0.30616E-02    rms(broyden)= 0.30615E-02
  rms(prec ) = 0.31952E-02
  weight for this iteration     100.00

 eigenvalues of (default mixing * dielectric matrix)
  average eigenvalue GAMMA=   1.2123
  2.9536  2.9536  2.7324  2.7324  1.1306  1.1306  0.1991  0.5016  0.5016  0.8860
  0.8860  0.7743  0.7743  0.6720  0.6360  0.6173  0.5274

 Free energy of the ion-electron system (eV)
  ---------------------------------------------------
  alpha Z        PSCENC =       453.10565554
  Ewald energy   TEWEN  =     -4853.25068260
  -Hartree energ DENC   =     -1378.16978331
  -exchange      EXHF   =         0.00000000
  -V(xc)+E(xc)   XCENC  =       232.24551854
  PAW double counting   =      5284.48499689    -5592.25350375
  entropy T*S    EENTRO =         0.01549515
  eigenvalues    EBANDS =      -292.11590977
  atomic energy  EATOM  =      6104.32616516
  Solvation  Ediel_sol  =         0.00000000
  ---------------------------------------------------
  free energy    TOTEN  =       -41.61204814 eV

  energy without entropy =      -41.62754329  energy(sigma->0) =      -41.61721319


--------------------------------------------------------------------------------------------------------




--------------------------------------- Iteration      1(  23)  ---------------------------------------


    POTLOK:  cpu time    0.0169: real time    0.0171
    SETDIJ:  cpu time    0.0087: real time    0.0087
     EDDAV:  cpu time    1.1315: real time    1.1341
       DOS:  cpu time    0.0025: real time    0.0025
    CHARGE:  cpu time    0.0635: real time    0.0637
    MIXING:  cpu time    0.0018: real time    0.0018
    --------------------------------------------
      LOOP:  cpu time    1.2250: real time    1.2280

 eigenvalue-minimisations  :  5960
 total energy-change (2. order) :-0.3582892E-05  (-0.1541475E-05)
 number of electron      45.9999990 magnetization      -0.0000000
 augmentation part       11.6666614 magnetization      -0.0000000

 Broyden mixing:
  rms(total) = 0.10638E-02    rms(broyden)= 0.10636E-02
  rms(prec ) = 0.12542E-02
  weight for this iteration     100.00

 eigenvalues of (default mixing * dielectric matrix)
  average eigenvalue GAMMA=   1.1809
  2.9554  2.9554  2.6555  2.6555  1.1709  1.1709  0.1991  0.5016  0.5016  0.8909
  0.8909  0.7991  0.7991  0.6806  0.6806  0.6151  0.6151  0.5191

 Free energy of the ion-electron system (eV)
  ---------------------------------------------------
  alpha Z        PSCENC =       453.10565554
  Ewald energy   TEWEN  =     -4853.25068260
  -Hartree energ DENC   =     -1378.20805601
  -exchange      EXHF   =         0.00000000
  -V(xc)+E(xc)   XCENC  =       232.25629771
  PAW double counting   =      5284.50064806    -5592.27974038
  entropy T*S    EENTRO =         0.01549224
  eigenvalues    EBANDS =      -292.07783143
  atomic energy  EATOM  =      6104.32616516
  Solvation  Ediel_sol  =         0.00000000
  ---------------------------------------------------
  free energy    TOTEN  =       -41.61205172 eV

  energy without entropy =      -41.62754396  energy(sigma->0) =      -41.61721580


--------------------------------------------------------------------------------------------------------




--------------------------------------- Iteration      1(  24)  ---------------------------------------


    POTLOK:  cpu time    0.0167: real time    0.0168
    SETDIJ:  cpu time    0.0084: real time    0.0084
     EDDAV:  cpu time    0.5883: real time    0.5897
       DOS:  cpu time    0.0026: real time    0.0027
    --------------------------------------------
      LOOP:  cpu time    0.6160: real time    0.6175

 eigenvalue-minimisations  :  2552
 total energy-change (2. order) : 0.2052229E-06  (-0.9281556E-07)
 number of electron      45.9999990 magnetization      -0.0000000
 augmentation part       11.6666614 magnetization      -0.0000000

 Free energy of the ion-electron system (eV)
  ---------------------------------------------------
  alpha Z        PSCENC =       453.10565554
  Ewald energy   TEWEN  =     -4853.25068260
  -Hartree energ DENC   =     -1378.20147507
  -exchange      EXHF   =         0.00000000
  -V(xc)+E(xc)   XCENC  =       232.25510685
  PAW double counting   =      5284.48122389    -5592.26769204
  entropy T*S    EENTRO =         0.01549735
  eigenvalues    EBANDS =      -292.07585059
  atomic energy  EATOM  =      6104.32616516
  Solvation  Ediel_sol  =         0.00000000
  ---------------------------------------------------
  free energy    TOTEN  =       -41.61205152 eV

  energy without entropy =      -41.62754887  energy(sigma->0) =      -41.61721730


--------------------------------------------------------------------------------------------------------




 average (electrostatic) potential at core
  the test charge radii are     1.1829  0.7215
  (the norm of the test charge is              1.0000)
       1 -37.4132       2 -37.4132       3 -71.1802       4 -71.1802
 
 
 
 E-fermi :   4.8362     XC(G=0): -11.0338     alpha+bet :-12.2018


 spin component 1

 k-point     1 :       0.1250    0.1250    0.1250
  band No.  band energies     occupation 
      1     -36.2644      1.00000
      2     -33.2010      1.00000
      3     -15.9162      1.00000
      4     -15.5304      1.00000
      5     -14.8677      1.00000
      6     -14.0098      1.00000
      7     -13.6208      1.00000
      8     -12.5919      1.00000
      9     -12.1036      1.00000
     10     -11.8422      1.00000
     11      -0.3365      1.00000
     12      -0.1142      1.00000
     13       0.2562      1.00000
     14       0.7614      1.00000
     15       0.7831      1.00000
     16       0.8887      1.00000
     17       4.3962      1.00000
     18       4.5584      1.00031
     19       4.5854      1.00112
     20       4.6469      1.01113
     21       4.6838      1.02655
     22       4.7267      1.03240
     23       4.7721      0.93785
     24       6.2780     -0.00000
     25       6.6208     -0.00000
     26       7.2338     -0.00000
     27       8.4555      0.00000
     28       8.5012      0.00000

 k-point     2 :       0.3750    0.1250    0.1250
  band No.  band energies     occupation 
      1     -36.2208      1.00000
      2     -33.1444      1.00000
      3     -16.1314      1.00000
      4     -15.3950      1.00000
      5     -15.0992      1.00000
      6     -14.4661      1.00000
      7     -13.3732      1.00000
      8     -12.9458      1.00000
      9     -12.4298      1.00000
     10     -11.8521      1.00000
     11      -0.3803      1.00000
     12       0.3093      1.00000
     13       0.3800      1.00000
     14       0.4925      1.00000
     15       0.6351      1.00000
     16       1.0181      1.00000
     17       4.4372      1.00000
     18       4.5121      1.00002
     19       4.5362      1.00009
     20       4.6009      1.00217
     21       4.6299      1.00647
     22       4.6766      1.02322
     23       4.7066      1.03474
     24       5.4492     -0.00000
     25       7.5086     -0.00000
     26       7.8823      0.00000
     27       8.7380      0.00000
     28       9.0881      0.00000

 k-point     3 :      -0.3750    0.1250    0.1250
  band No.  band energies     occupation 
      1     -36.2390      1.00000
      2     -33.1676      1.00000
      3     -15.9170      1.00000
      4     -15.6167      1.00000
[...]
 -4.020  -0.357  -0.000   0.000   0.000   0.000  -0.000  -0.000
  0.000  -0.000 -15.666  -0.001   0.001   7.373   0.001  -0.001
 -0.000   0.000  -0.001 -15.665   0.001   0.001   7.372  -0.001
 -0.000   0.000   0.001   0.001 -15.665  -0.001  -0.001   7.372
  0.000   0.000   7.373   0.001  -0.001   4.940  -0.001   0.001
 -0.000  -0.000   0.001   7.372  -0.001  -0.001   4.941   0.001
 -0.000  -0.000  -0.001  -0.001   7.372   0.001   0.001   4.941
  0.001   0.000  -0.000   0.000   0.000  -0.000   0.000   0.000
 -0.001   0.000  -0.000   0.000   0.000  -0.000   0.000   0.000
  0.000   0.000  -0.000  -0.000   0.000  -0.000  -0.000   0.000
  0.001   0.000   0.000  -0.000  -0.000   0.000  -0.000  -0.000
  0.000  -0.000  -0.000  -0.000  -0.000  -0.000  -0.000  -0.000
 -0.002  -0.000  -0.000   0.000   0.000   0.000  -0.000  -0.000
  0.002  -0.000  -0.000   0.000   0.000   0.000  -0.000  -0.000
 -0.000  -0.000   0.000   0.000  -0.000   0.000   0.000  -0.000
 -0.001  -0.000   0.000  -0.000  -0.000  -0.000   0.000   0.000
 -0.001   0.000   0.000  -0.000  -0.000   0.000   0.000   0.000
 -0.000   0.000  -0.000  -0.003   0.001  -0.000  -0.001  -0.001
 -0.000   0.000   0.001   0.001  -0.004  -0.000  -0.001  -0.001
 -0.000   0.000   0.002  -0.000  -0.000   0.000   0.001   0.000
 -0.000   0.000   0.000  -0.002  -0.000  -0.000  -0.001   0.000
  0.000  -0.000  -0.000   0.001   0.002   0.000  -0.001   0.000
  0.000  -0.000  -0.003   0.000   0.001  -0.002  -0.000  -0.000
  0.000  -0.000  -0.001  -0.000  -0.000   0.001   0.000   0.000
 -0.000   0.000   0.000  -0.003   0.001  -0.000  -0.001  -0.001
 -0.000   0.000   0.001   0.001  -0.004  -0.000  -0.001  -0.001
 -0.000   0.000   0.002  -0.000  -0.000   0.000   0.001   0.000
 -0.000   0.000   0.000  -0.002  -0.000  -0.000  -0.001   0.000
  0.000  -0.000  -0.000   0.001   0.002   0.000  -0.001   0.000
  0.000  -0.000  -0.003   0.000   0.001  -0.002  -0.000  -0.000
  0.000  -0.000  -0.001  -0.000  -0.000   0.001  -0.000   0.000
 pseudopotential strength for first ion, spin component:           2
-15.731   0.730   0.000  -0.000  -0.000   0.000  -0.000  -0.000
  0.730  -3.409  -0.000   0.000   0.000   0.000  -0.000  -0.000
  0.000  -0.000 -17.546  -0.001   0.001   7.755   0.002  -0.002
 -0.000   0.000  -0.001 -17.545   0.001   0.002   7.753  -0.001
 -0.000   0.000   0.001   0.001 -17.545  -0.002  -0.001   7.753
  0.000   0.000   7.755   0.002  -0.002   5.171  -0.002   0.002
 -0.000  -0.000   0.002   7.753  -0.001  -0.002   5.172   0.001
 -0.000  -0.000  -0.002  -0.001   7.753   0.002   0.001   5.172
  0.001   0.000  -0.000   0.000   0.000  -0.000   0.000   0.000
 -0.001  -0.000  -0.000   0.000   0.000  -0.000   0.000   0.000
  0.000   0.000  -0.000  -0.000   0.000  -0.000  -0.000   0.000
  0.001   0.000   0.000  -0.000  -0.000   0.000  -0.000  -0.000
  0.000   0.000  -0.000  -0.000  -0.000  -0.000  -0.000  -0.000
 -0.001  -0.000  -0.000   0.000   0.000   0.000  -0.000  -0.000
  0.001   0.000  -0.000   0.000   0.000   0.000  -0.000  -0.000
 -0.000  -0.000   0.000   0.000  -0.000   0.000   0.000  -0.000
 -0.001  -0.000   0.000  -0.000  -0.000  -0.000   0.000   0.000
 -0.000  -0.000   0.000  -0.000  -0.000   0.000   0.000   0.000
 -0.000   0.000   0.001  -0.021   0.001  -0.001   0.012  -0.001
 -0.000   0.000   0.000   0.001  -0.027  -0.000  -0.001   0.015
 -0.000   0.000   0.012  -0.001  -0.000  -0.007   0.001   0.000
 -0.000   0.000   0.000  -0.019  -0.000  -0.000   0.010  -0.000
  0.000  -0.000  -0.000   0.002   0.012   0.000  -0.001  -0.007
  0.000  -0.000  -0.025   0.000   0.001   0.014  -0.000  -0.001
  0.000  -0.000  -0.002   0.000  -0.000   0.002  -0.000   0.000
 -0.000   0.000   0.001  -0.020   0.001  -0.001   0.011  -0.001
 -0.000   0.000   0.000   0.001  -0.026  -0.000  -0.001   0.014
 -0.000   0.000   0.012  -0.001  -0.000  -0.007   0.001   0.000
 -0.000   0.000   0.000  -0.018  -0.000  -0.000   0.010  -0.000
  0.000  -0.000  -0.000   0.002   0.012   0.000  -0.001  -0.007
  0.000  -0.000  -0.024   0.000   0.001   0.013  -0.000  -0.001
  0.000  -0.000  -0.002   0.000  -0.000   0.002  -0.000   0.000
 total augmentation occupancy for first ion, spin component:           1
  1.992  -0.037  -0.000   0.000   0.000   0.000   0.000   0.000  -0.000   0.000   0.000  -0.000  -0.000   0.000  -0.000   0.000
 -0.037   0.605   0.000   0.000   0.000   0.000  -0.000   0.000   0.001  -0.000   0.000   0.001  -0.000   0.000  -0.000   0.000
  0.000   0.000   2.012   0.000  -0.000  -0.019  -0.000   0.000  -0.000   0.000   0.000   0.000   0.000   0.000   0.000   0.000
  0.000   0.000   0.000   2.012  -0.000  -0.000  -0.019   0.000   0.000   0.000  -0.000   0.000  -0.000   0.000   0.000   0.000
  0.000   0.000  -0.000  -0.000   2.013   0.000   0.000  -0.019   0.000   0.000   0.000   0.000   0.000   0.000   0.000   0.000
  0.000   0.000  -0.019  -0.000   0.000   0.020  -0.000   0.000   0.000   0.000   0.000  -0.000   0.000  -0.000   0.000  -0.000
  0.000  -0.000  -0.000  -0.019   0.000  -0.000   0.020   0.000  -0.000   0.000   0.000   0.000   0.000   0.000  -0.000  -0.000
  0.000   0.000   0.000   0.000  -0.019   0.000   0.000   0.020   0.000   0.000  -0.000  -0.000   0.000   0.000   0.000   0.000
 -0.000   0.001  -0.000   0.000   0.000   0.000   0.000   0.000   0.229   0.000  -0.000  -0.082   0.000   0.063   0.000  -0.000
  0.000  -0.000   0.000   0.000  -0.000   0.000  -0.000   0.000   0.000   0.287   0.001   0.000  -0.083   0.000   0.084   0.000
  0.000   0.000   0.000   0.000   0.000   0.000   0.000   0.000  -0.000   0.001   0.170  -0.000   0.001  -0.000   0.000   0.041
 -0.000   0.001   0.000  -0.000   0.000   0.000  -0.000   0.000  -0.082   0.000  -0.000   0.287   0.000  -0.031   0.000  -0.000
 -0.000  -0.000  -0.000   0.000  -0.000   0.000  -0.000   0.000   0.000  -0.083   0.001   0.000   0.228   0.000  -0.031   0.000
  0.000   0.000   0.000   0.000   0.000   0.000   0.000   0.000   0.063   0.000  -0.000  -0.031   0.000   0.018   0.000  -0.000
 -0.000  -0.000   0.000   0.000  -0.000   0.000   0.000   0.000   0.000   0.084   0.000   0.000  -0.031   0.000   0.026   0.000
  0.000   0.000  -0.000   0.000  -0.000   0.000  -0.000   0.000  -0.000   0.000   0.041  -0.000   0.000  -0.000   0.000   0.010
  0.000   0.000  -0.000   0.000  -0.000   0.000  -0.000   0.000  -0.031   0.000  -0.000   0.084   0.000  -0.011   0.000   0.000
  0.000  -0.000   0.000   0.000   0.000   0.000   0.000  -0.000   0.000  -0.031   0.000   0.000   0.062   0.000  -0.011   0.000
 -0.000   0.000  -0.000  -0.120   0.001   0.000   0.082  -0.000  -0.000   0.000   0.000   0.000   0.000   0.000  -0.000  -0.000
  0.000  -0.000   0.001   0.001  -0.147  -0.000  -0.000   0.101  -0.000  -0.000   0.000  -0.000   0.000   0.000   0.000   0.000
  0.000  -0.000   0.066  -0.001  -0.000  -0.045   0.000   0.000   0.000   0.000   0.000   0.000   0.000   0.000   0.000   0.000
  0.000   0.000   0.000  -0.107  -0.000  -0.000   0.073  -0.000  -0.000   0.000   0.000   0.000   0.000  -0.000   0.000   0.000
 -0.000   0.000  -0.000   0.001   0.066   0.000  -0.000  -0.045  -0.000   0.000  -0.000   0.000   0.000   0.000   0.000   0.000
  0.000   0.000  -0.146  -0.000   0.001   0.101   0.000  -0.000   0.000   0.000  -0.000   0.000   0.000   0.000  -0.000   0.000
 -0.000  -0.000  -0.001   0.000  -0.000   0.000  -0.000   0.000   0.000   0.000   0.000   0.000   0.000   0.000   0.000   0.000
  0.000   0.000   0.000   0.121  -0.001  -0.000  -0.075   0.000  -0.000   0.000   0.000  -0.000   0.000   0.000   0.000   0.000
  0.000   0.000  -0.001  -0.001   0.149   0.000   0.000  -0.093   0.000  -0.000   0.000   0.000  -0.000   0.000   0.000   0.000
  0.000   0.000  -0.067   0.001   0.000   0.041  -0.000  -0.000   0.000   0.000  -0.000   0.000   0.000   0.000  -0.000   0.000
  0.000  -0.000  -0.000   0.108   0.000  -0.000  -0.067   0.000  -0.000   0.000   0.000   0.000   0.000   0.000   0.000   0.000
  0.000   0.000   0.000  -0.001  -0.067  -0.000   0.000   0.042   0.000  -0.000   0.000   0.000   0.000   0.000   0.000   0.000
  0.000   0.000   0.148   0.000  -0.001  -0.092  -0.000   0.000   0.000   0.000   0.000   0.000   0.000   0.000  -0.000  -0.000
  0.000   0.000   0.001  -0.000   0.000  -0.000   0.000  -0.000   0.000   0.000  -0.000   0.000   0.000   0.000   0.000   0.000
 total augmentation occupancy for first ion, spin component:           2
 -0.042  -0.160   0.000   0.000   0.000   0.000   0.000   0.000  -0.000   0.000  -0.000  -0.000   0.000  -0.000   0.000  -0.000
 -0.160   0.130   0.000   0.000   0.000   0.000   0.000  -0.000   0.005  -0.002   0.003   0.004  -0.003   0.001  -0.001   0.001
  0.000   0.000  -0.007  -0.000   0.000  -0.044   0.000  -0.000   0.000  -0.000   0.000   0.000   0.000  -0.000   0.000  -0.000
  0.000   0.000  -0.000  -0.007   0.000   0.000  -0.044  -0.000   0.000  -0.000   0.000   0.000   0.000   0.000  -0.000   0.000
  0.000   0.000   0.000   0.000  -0.008  -0.000  -0.000  -0.044   0.000   0.000   0.000   0.000  -0.000  -0.000   0.000   0.000
 -0.000   0.000  -0.044   0.000  -0.000   0.003  -0.000   0.000   0.000   0.000   0.000  -0.000  -0.000   0.000   0.000   0.000
 -0.000   0.000   0.000  -0.044  -0.000  -0.000   0.003   0.000   0.000  -0.000   0.000   0.000  -0.000   0.000   0.000   0.000
  0.000   0.000  -0.000  -0.000  -0.044   0.000   0.000   0.003   0.000  -0.000   0.000  -0.000  -0.000  -0.000  -0.000   0.000
 -0.000   0.005   0.000   0.000  -0.000   0.000   0.000   0.000   0.036   0.002  -0.003  -0.007   0.001   0.010   0.000  -0.001
  0.000  -0.002   0.000   0.000   0.000   0.000   0.000   0.000   0.002   0.044  -0.000   0.002  -0.005   0.000   0.012  -0.000
 -0.000   0.003  -0.000  -0.000   0.000   0.000  -0.000  -0.000  -0.003  -0.000   0.036  -0.000   0.001  -0.001  -0.000   0.008
 -0.000   0.004   0.000   0.000   0.000  -0.000   0.000   0.000  -0.007   0.002  -0.000   0.041   0.002  -0.003   0.001   0.000
  0.000  -0.003   0.000  -0.000   0.000   0.000   0.000   0.000   0.001  -0.005   0.001   0.002   0.038   0.000  -0.002   0.000
 -0.000   0.001   0.000   0.000   0.000   0.000  -0.000   0.000   0.010   0.000  -0.001  -0.003   0.000   0.003   0.000  -0.000
  0.000  -0.001   0.000   0.000   0.000   0.000   0.000  -0.000   0.000   0.012  -0.000   0.001  -0.002   0.000   0.003  -0.000
 -0.000   0.001  -0.000   0.000  -0.000  -0.000  -0.000   0.000  -0.001  -0.000   0.008   0.000   0.000  -0.000  -0.000   0.002
 -0.000   0.001   0.000   0.000   0.000  -0.000   0.000   0.000  -0.003   0.001   0.000   0.012   0.000  -0.001   0.000   0.000
  0.000  -0.001   0.000   0.000   0.000   0.000   0.000   0.000   0.000  -0.002   0.000   0.000   0.010   0.000  -0.001   0.000
 -0.000  -0.000  -0.000  -0.013   0.001   0.001   0.025  -0.002   0.000   0.000   0.000   0.000   0.000   0.000   0.000   0.000
  0.000   0.000   0.001   0.001  -0.016  -0.002  -0.002   0.032  -0.000   0.000   0.000   0.000   0.000   0.000   0.000   0.000
  0.000  -0.000   0.007   0.000  -0.000  -0.014   0.001   0.001   0.000   0.000   0.000   0.000  -0.000   0.000   0.000   0.000
  0.000   0.000   0.000  -0.011   0.000  -0.000   0.021   0.000   0.000  -0.000   0.000   0.000   0.000   0.000   0.000   0.000
  0.000  -0.000  -0.000   0.001   0.008   0.001  -0.001  -0.015   0.000   0.000   0.000   0.000   0.000   0.000   0.000   0.000
  0.000   0.000  -0.016  -0.000   0.001   0.030   0.001  -0.002   0.000   0.000   0.000   0.000   0.000   0.000   0.000   0.000
  0.000  -0.000  -0.001  -0.000  -0.001   0.002  -0.000   0.001   0.000  -0.000   0.000   0.000   0.000  -0.000   0.000   0.000
 -0.000   0.000   0.001  -0.002  -0.001  -0.001  -0.011   0.002   0.000   0.000   0.000   0.000   0.000  -0.000   0.000   0.000
 -0.000   0.000  -0.001  -0.001  -0.001   0.002   0.002  -0.015   0.000   0.000   0.000   0.000  -0.000   0.000   0.000   0.000
  0.000   0.000   0.001  -0.000   0.000   0.007  -0.001  -0.001   0.000   0.000   0.000   0.000   0.000   0.000   0.000   0.000
  0.000   0.000   0.000  -0.002  -0.000   0.000  -0.009  -0.000   0.000   0.000  -0.000   0.000   0.000   0.000   0.000   0.000
  0.000   0.000   0.000  -0.001  -0.000  -0.001   0.001   0.008   0.000   0.000   0.000  -0.000   0.000  -0.000   0.000  -0.000
  0.000   0.000  -0.002   0.000  -0.001  -0.013  -0.001   0.002   0.000   0.000   0.000   0.000   0.000   0.000   0.000   0.000
  0.000   0.000   0.001   0.000   0.001  -0.002   0.000  -0.001   0.000   0.000   0.000   0.000   0.000   0.000  -0.000   0.000


------------------------ aborting loop because EDIFF is reached ----------------------------------------


 


 total charge     
 
# of ion       s       p       d       f       tot
--------------------------------------------------
    1        2.083   5.888   0.613   6.722  15.306
    2        2.083   5.888   0.613   6.722  15.306
    3        1.558   3.407   0.000   0.000   4.965
    4        1.558   3.407   0.000   0.000   4.965
--------------------------------------------------
tot          7.282  18.590   1.225  13.444  40.542

 


 magnetization (x)
 
# of ion       s       p       d       f       tot
--------------------------------------------------
    1       -0.006  -0.010   0.102   6.617   6.703
    2        0.006   0.010  -0.102  -6.617  -6.703
    3       -0.000   0.000   0.000   0.000  -0.000
    4       -0.000   0.000   0.000   0.000  -0.000
--------------------------------------------------
tot         -0.000   0.000  -0.000   0.000  -0.000

 
    CHARGE:  cpu time    0.0738: real time    0.0740
    FORLOC:  cpu time    0.0007: real time    0.0007
    FORNL :  cpu time    0.2362: real time    0.2367
    STRESS:  cpu time    0.3408: real time    0.3417
    FORCOR:  cpu time    0.0166: real time    0.0166
    FORHAR:  cpu time    0.0022: real time    0.0022
    MIXING:  cpu time    0.0016: real time    0.0016
    OFIELD:  cpu time    0.0000: real time    0.0000

  FORCE on cell =-STRESS in cart. coord.  units (eV):
  Direction    XX          YY          ZZ          XY          YZ          ZX
  --------------------------------------------------------------------------------------
  Alpha Z   453.10566   453.10566   453.10566
  Ewald   -1617.75261 -1617.75125 -1617.75302     0.00351     0.00252    -0.00245
  Hartree   459.35394   459.38188   459.40128     0.09696    -0.02733     0.06752
  E(xc)    -244.17832  -244.17035  -244.16924     0.00650    -0.00160     0.00460
  Local     422.67981   422.69773   422.65087    -0.19938     0.06567    -0.13699
  n-local  -226.53701  -226.46457  -226.53943    -0.02204    -0.01188     0.03187
  augment    96.45487    96.41456    96.44887     0.05435    -0.04852     0.03878
  Kinetic   656.74508   656.45562   656.57444    -0.10556     0.10236    -0.06503
  Fock        0.00000     0.00000     0.00000     0.00000     0.00000     0.00000
  -------------------------------------------------------------------------------------
  Total      -0.12860    -0.28299    -0.32830    -0.13953     0.06407    -0.09867
  in kB      -3.14191    -6.91422    -8.02117    -3.40914     1.56542    -2.41062
  external pressure =       -6.03 kB  Pullay stress =        0.00 kB


 VOLUME and BASIS-vectors are now :
 -----------------------------------------------------------------------------
  energy-cutoff  :      500.00
  volume of cell :       65.58
      direct lattice vectors                 reciprocal lattice vectors
     0.000008500 -2.074162400  2.933334000     0.139173204 -0.080355564  0.284089138
     3.592513700 -4.148395800 -2.933334000     0.139173204 -0.080355564 -0.056819875
     1.796384500  3.111279100  0.000000000     0.278346409  0.160700088  0.113630332

  length of vectors
     3.592575402  6.222522861  3.592638990     0.326393682  0.170454380  0.340900416


 FORCES acting on ions
    electron-ion (+dipol)            ewald-force                    non-local-force                 convergence-correction
 -----------------------------------------------------------------------------------------------
   -.288E-05 0.190E-05 -.193E-05   0.280E-04 -.185E-04 0.187E-04   0.741E-21 0.212E-21 0.106E-21   -.407E-08 0.269E-08 -.272E-08
   -.288E-05 0.190E-05 -.193E-05   0.280E-04 -.185E-04 0.187E-04   0.318E-21 0.000E+00 -.106E-21   -.407E-08 0.269E-08 -.272E-08
   -.166E-03 0.110E-03 -.111E-03   -.280E-04 0.185E-04 -.187E-04   0.169E-20 0.847E-21 -.169E-20   -.155E-08 0.992E-09 -.106E-08
   -.166E-03 0.110E-03 -.111E-03   -.280E-04 0.185E-04 -.187E-04   -.212E-20 -.847E-21 0.847E-21   -.155E-08 0.992E-09 -.106E-08
 -----------------------------------------------------------------------------------------------
   -.339E-03 0.224E-03 -.227E-03   0.289E-13 -.411E-15 0.569E-16   0.635E-21 0.212E-21 -.847E-21   -.112E-07 0.736E-08 -.756E-08
 
 
 POSITION                                       TOTAL-FORCE (eV/Angst)
 -----------------------------------------------------------------------------------
      0.00000      0.00000      0.00000        -0.000000      0.000000      0.000000
      1.79626     -3.11128      0.00000        -0.000000     -0.000000      0.000000
      1.79633     -1.03708      1.46667         0.000000     -0.000000     -0.000000
      3.59258     -2.07420     -1.46667         0.000000      0.000000      0.000000
 -----------------------------------------------------------------------------------
    total drift:                               -0.000339      0.000224     -0.000227


--------------------------------------------------------------------------------------------------------



  FREE ENERGIE OF THE ION-ELECTRON SYSTEM (eV)
  ---------------------------------------------------
  free  energy   TOTEN  =       -41.61205152 eV

  energy  without entropy=      -41.62754887  energy(sigma->0) =      -41.61721730
 


--------------------------------------------------------------------------------------------------------


    POTLOK:  cpu time    0.0245: real time    0.0246


--------------------------------------------------------------------------------------------------------


     LOOP+:  cpu time   29.1491: real time   29.2739
    4ORBIT:  cpu time    0.0000: real time    0.0000
 


 total charge     
 
# of ion       s       p       d       f       tot
--------------------------------------------------
    1        2.083   5.888   0.613   6.722  15.306
    2        2.083   5.888   0.613   6.722  15.306
    3        1.558   3.407   0.000   0.000   4.965
    4        1.558   3.407   0.000   0.000   4.965
--------------------------------------------------
tot          7.282  18.590   1.225  13.444  40.542

 


 magnetization (x)
 
# of ion       s       p       d       f       tot
--------------------------------------------------
    1       -0.006  -0.010   0.102   6.617   6.703
    2        0.006   0.010  -0.102  -6.617  -6.703
    3       -0.000   0.000   0.000   0.000  -0.000
    4       -0.000   0.000   0.000   0.000  -0.000
--------------------------------------------------
tot         -0.000   0.000  -0.000   0.000  -0.000

 

 total amount of memory used by VASP MPI-rank0    45715. kBytes
=======================================================================

   base      :      30000. kBytes
   nonl-proj :       6973. kBytes
   fftplans  :        616. kBytes
   grid      :       1491. kBytes
   one-center:         98. kBytes
   wavefun   :       6537. kBytes
 
  
  
 General timing and accounting informations for this job:
 ========================================================
  
                  Total CPU time used (sec):       30.741
                            User time (sec):       30.564
                          System time (sec):        0.177
                         Elapsed time (sec):       31.385
  
                   Maximum memory used (kb):       69760.
                   Average memory used (kb):           0.
  
                          Minor page faults:        17171
                          Major page faults:            0
                 Voluntary context switches:         1432
