 vasp.5.4.4.18Apr17-6-g9f103f2a35 (build Apr 28 2018 00:24:27) complex          
  
 executed on             LinuxIFC date 2021.03.25  01:51:13
 running on    8 total cores
 distrk:  each k-point on    8 cores,    1 groups
 distr:  one band on NCORES_PER_BAND=   4 cores,    2 groups


--------------------------------------------------------------------------------------------------------


 INCAR:
 POTCAR:    PAW_PBE Eu 23Dec2003                  
 POTCAR:    PAW_PBE O 08Apr2002                   
 POTCAR:    PAW_PBE Eu 23Dec2003                  
   SHA256 =  ed303d27e7c5191953f9b15539336e6f36d9037c1d2e92e80c13d733697cb93d Eu
   COPYR  = (c) Copyright 23Dec2003 Georg Kresse                                
   COPYR  = This file is part of the software VASP. Any use, copying, and all ot
   COPYR  = If you do not have a valid VASP license, you may not use, copy or di
   VRHFIN =Eu : [core=Kr4d]                                                     
   LEXCH  = PE                                                                  
   EATOM  =  2619.8085 eV,  192.5505 Ry                                         
                                                                                
   TITEL  = PAW_PBE Eu 23Dec2003                                                
   LULTRA =        F    use ultrasoft PP ?                                      
   IUNSCR =        1    unscreen: 0-lin 1-nonlin 2-no                           
   RPACOR =    2.300    partial core radius                                     
   POMASS =  151.965; ZVAL   =   17.000    mass and valenz                      
   RCORE  =    2.800    outmost cutoff radius                                   
   RWIGS  =    2.800; RWIGS  =    1.482    wigner-seitz radius (au A)           
   ENMAX  =  249.668; ENMIN  =  187.251 eV                                      
   RCLOC  =    2.308    cutoff for local pot                                    
   LCOR   =        T    correct aug charges                                     
   LPAW   =        T    paw PP                                                  
   EAUG   =  549.628                                                            
   DEXC   =    0.000                                                            
   RMAX   =    2.870    core radius for proj-oper                               
   RAUG   =    1.300    factor for augmentation sphere                          
   RDEP   =    2.887    radius for radial grids                                 
   RDEPT  =    2.221    core radius for aug-charge                              
                                                                                
   Atomic configuration                                                         
   14 entries                                                                   
     n  l   j            E        occ.                                          
     1  0  0.50    -48354.7667   2.0000                                         
     2  0  0.50     -7939.6472   2.0000                                         
     2  1  1.50     -7072.6637   6.0000                                         
     3  0  0.50     -1747.1875   2.0000                                         
     3  1  1.50     -1477.5221   6.0000                                         
     3  2  2.50     -1117.4686  10.0000                                         
     4  0  0.50      -346.8682   2.0000                                         
     4  1  1.50      -258.1962   6.0000                                         
     4  2  2.50      -134.7724  10.0000                                         
     5  0  0.50       -44.6510   2.0000                                         
     6  0  0.50        -3.6227   2.0000                                         
     5  1  1.50       -23.7639   6.0000                                         
     5  2  2.50        -1.3130   0.0000                                         
     4  3  2.50        -2.7310   7.0000                                         
   Description                                                                  
     l       E           TYP  RCUT    TYP  RCUT                                 
     0    -44.6510453     23  2.400                                             
     0     -3.6226685     23  2.400                                             
     1    -23.7638687     23  2.400                                             
     1     27.2116520     23  2.400                                             
     2     -1.3129622     23  2.500                                             
     2     13.6058260     23  2.500                                             
     3     -2.7309948     23  2.800                                             
     3     -3.4014565     23  2.800                                             
  local pseudopotential read in
  partial core-charges read in
  partial kinetic energy density read in
  atomic valenz-charges read in
  non local Contribution for L=           0  read in
    real space projection operators read in
  non local Contribution for L=           0  read in
    real space projection operators read in
  non local Contribution for L=           1  read in
    real space projection operators read in
  non local Contribution for L=           1  read in
    real space projection operators read in
  non local Contribution for L=           2  read in
    real space projection operators read in
  non local Contribution for L=           2  read in
    real space projection operators read in
  non local Contribution for L=           3  read in
    real space projection operators read in
  non local Contribution for L=           3  read in
    real space projection operators read in
    PAW grid and wavefunctions read in
 
   number of l-projection  operators is LMAX  =           8
   number of lm-projection operators is LMMAX =          32
 
 POTCAR:    PAW_PBE O 08Apr2002                   
   SHA256 =  818f92134a0a090dccd8ba1447fa70422a3b330e708bb4f08108d8ae51209ddf O/
   COPYR  = (c) Copyright 08Apr2002 Georg Kresse                                
   COPYR  = This file is part of the software VASP. Any use, copying, and all ot
   COPYR  = If you do not have a valid VASP license, you may not use, copy or di
   VRHFIN =O: s2p4                                                              
   LEXCH  = PE                                                                  
   EATOM  =   432.3788 eV,   31.7789 Ry                                         
                                                                                
   TITEL  = PAW_PBE O 08Apr2002                                                 
   LULTRA =        F    use ultrasoft PP ?                                      
   IUNSCR =        1    unscreen: 0-lin 1-nonlin 2-no                           
   RPACOR =    1.200    partial core radius                                     
   POMASS =   16.000; ZVAL   =    6.000    mass and valenz                      
   RCORE  =    1.520    outmost cutoff radius                                   
   RWIGS  =    1.550; RWIGS  =    0.820    wigner-seitz radius (au A)           
   ENMAX  =  400.000; ENMIN  =  300.000 eV                                      
   ICORE  =        2    local potential                                         
   LCOR   =        T    correct aug charges                                     
   LPAW   =        T    paw PP                                                  
   EAUG   =  605.392                                                            
   DEXC   =    0.000                                                            
   RMAX   =    1.553    core radius for proj-oper                               
   RAUG   =    1.300    factor for augmentation sphere                          
   RDEP   =    1.550    radius for radial grids                                 
   RDEPT  =    1.329    core radius for aug-charge                              
                                                                                
   Atomic configuration                                                         
    4 entries                                                                   
     n  l   j            E        occ.                                          
     1  0  0.50      -514.6923   2.0000                                         
     2  0  0.50       -23.9615   2.0000                                         
     2  1  0.50        -9.0305   4.0000                                         
     3  2  1.50        -9.5241   0.0000                                         
   Description                                                                  
     l       E           TYP  RCUT    TYP  RCUT                                 
     0    -23.9615318     23  1.200                                             
     0     -9.5240782     23  1.200                                             
     1     -9.0304911     23  1.520                                             
     1      8.1634956     23  1.520                                             
     2     -9.5240782      7  1.500                                             
  local pseudopotential read in
  partial core-charges read in
  partial kinetic energy density read in
  kinetic energy density of atom read in
  atomic valenz-charges read in
  non local Contribution for L=           0  read in
    real space projection operators read in
  non local Contribution for L=           0  read in
    real space projection operators read in
  non local Contribution for L=           1  read in
    real space projection operators read in
  non local Contribution for L=           1  read in
    real space projection operators read in
    PAW grid and wavefunctions read in
 
   number of l-projection  operators is LMAX  =           4
   number of lm-projection operators is LMMAX =           8
 
  PAW_PBE Eu 23Dec2003                  :
 energy of atom  1       EATOM=-2619.8085
 kinetic energy error for atom=    0.0019 (will be added to EATOM!!)
  PAW_PBE O 08Apr2002                   :
 energy of atom  2       EATOM= -432.3788
 kinetic energy error for atom=    0.0224 (will be added to EATOM!!)
 
 
 POSCAR: Eu1 O1 str #: 7                         
  positions in direct lattice
  No initial velocities read in
 exchange correlation table for  LEXCH =        8
   RHO(1)=    0.500       N(1)  =     2000
   RHO(2)=  100.500       N(2)  =     4000
 


--------------------------------------------------------------------------------------------------------


 ion  position               nearest neighbor table
   1  0.000  0.000  0.000-   4 2.54   3 2.54   4 2.54   3 2.54   4 2.54   3 2.54
   2  0.500  0.500  0.000-   3 2.54   4 2.54   3 2.54   4 2.54   3 2.54   4 2.54
   3  0.750  0.250  0.500-   2 2.54   1 2.54   2 2.54   1 2.54   2 2.54   1 2.54
   4  0.250  0.750  0.500-   1 2.54   2 2.54   1 2.54   2 2.54   1 2.54   2 2.54
 
  LATTYP: Found a base centered monoclinic cell.
 ALAT       =     6.2226751670
 B/A-ratio  =     0.5773361626
 C/A-ratio  =     1.1546948872
 COS(beta)  =    -0.5000180940
  
  Lattice vectors:
  
 A1 = (   1.7963930000,   1.0371167000,   2.9333340000)
 A2 = (   1.7963845000,   3.1112791000,   0.0000000000)
 A3 = (  -7.1852912000,   0.0000000000,   0.0000000000)


Analysis of symmetry for initial positions (statically):
=====================================================================
 Subroutine PRICEL returns following result:
 
  LATTYP: Found a trigonal (rhomboedric) cell.
 ALAT       =     3.5926389896
 COS(alpha) =     0.5000180940
  
  Lattice vectors:
  
 A1 = (  -1.7963845000,  -3.1112791000,   0.0000000000)
 A2 = (  -3.5926456000,   0.0000000000,   0.0000000000)
 A3 = (  -1.7963930000,  -1.0371167000,  -2.9333340000)
 
   2 primitive cells build up your supercell.
 

 Routine SETGRP: Setting up the symmetry group for a 
 base centered monoclinic supercell.


 Subroutine GETGRP returns: Found  4 space group operations
 (whereof  4 operations were pure point group operations)
 out of a pool of  4 trial point group operations.


The static configuration has the point symmetry C_2h.


Analysis of symmetry for dynamics (positions and initial velocities):
=====================================================================
 Subroutine PRICEL returns following result:
 
  LATTYP: Found a trigonal (rhomboedric) cell.
 ALAT       =     3.5926389896
 COS(alpha) =     0.5000180940
  
  Lattice vectors:
  
 A1 = (  -1.7963845000,  -3.1112791000,   0.0000000000)
 A2 = (  -3.5926456000,   0.0000000000,   0.0000000000)
 A3 = (  -1.7963930000,  -1.0371167000,  -2.9333340000)
 
   2 primitive cells build up your supercell.
 

 Routine SETGRP: Setting up the symmetry group for a 
 base centered monoclinic supercell.


 Subroutine GETGRP returns: Found  4 space group operations
 (whereof  4 operations were pure point group operations)
 out of a pool of  4 trial point group operations.


The dynamic configuration has the point symmetry C_2h.


Analysis of structural, dynamic, and magnetic symmetry:
=====================================================================
 Subroutine PRICEL returns following result:
 
  LATTYP: Found a trigonal (rhomboedric) cell.
 ALAT       =     3.5926389896
 COS(alpha) =     0.5000180940
  
  Lattice vectors:
  
 A1 = (  -1.7963845000,  -3.1112791000,   0.0000000000)
 A2 = (  -3.5926456000,   0.0000000000,   0.0000000000)
 A3 = (  -1.7963930000,  -1.0371167000,  -2.9333340000)
 
   2 primitive cells build up your supercell.
 

 Routine SETGRP: Setting up the symmetry group for a 
 base centered monoclinic supercell.


 Subroutine GETGRP returns: Found  4 space group operations
 (whereof  4 operations were pure point group operations)
 out of a pool of  4 trial point group operations.


The magnetic configuration has the point symmetry C_2h.


 Subroutine INISYM returns: Found  4 space group operations
 (whereof  4 operations are pure point group operations),
 and found     2 'primitive' translations

 
 

Automatic generation of k-mesh.
 generate k-points for:    5    3    5
Space group operators:
 irot       det(A)        alpha          n_x          n_y          n_z        tau_x        tau_y        tau_z
    1     1.000000     0.000000     1.000000     0.000000     0.000000     0.000000     0.000000     0.000000
    2    -1.000000     0.000000     1.000000     0.000000     0.000000     0.000000     0.000000     0.000000
    3     1.000000   180.000000    -0.000000    -0.577347     0.816499     0.000000     0.000000     0.000000
    4    -1.000000   180.000000    -0.000000    -0.577347     0.816499     0.000000     0.000000     0.000000
 
 Subroutine IBZKPT returns following result:
 ===========================================
 
 Found     24 irreducible k-points:
 
 Following reciprocal coordinates:
            Coordinates               Weight
  0.000000  0.000000  0.000000      1.000000
  0.200000  0.000000 -0.000000      4.000000
  0.400000  0.000000 -0.000000      4.000000
  0.000000  0.333333 -0.000000      2.000000
  0.200000  0.333333  0.000000      4.000000
  0.400000  0.333333 -0.000000      4.000000
 -0.400000  0.333333  0.000000      4.000000
 -0.200000  0.333333  0.000000      4.000000
 -0.000000  0.000000  0.200000      2.000000
  0.200000  0.000000  0.200000      4.000000
  0.400000  0.000000  0.200000      4.000000
 -0.400000 -0.000000  0.200000      2.000000
  0.000000  0.333333  0.200000      2.000000
  0.200000  0.333333  0.200000      4.000000
  0.400000  0.333333  0.200000      4.000000
 -0.400000  0.333333  0.200000      4.000000
  0.000000 -0.333333  0.200000      2.000000
  0.200000 -0.333333  0.200000      4.000000
  0.400000 -0.333333  0.200000      4.000000
 -0.000000  0.000000  0.400000      2.000000
  0.200000 -0.000000  0.400000      2.000000
 -0.000000  0.333333  0.400000      2.000000
  0.200000  0.333333  0.400000      4.000000
 -0.000000 -0.333333  0.400000      2.000000
 
 Following cartesian coordinates:
            Coordinates               Weight
  0.000000  0.000000  0.000000      1.000000
  0.027835 -0.016071  0.056818      4.000000
  0.055669 -0.032142  0.113636      4.000000
  0.046391 -0.026785 -0.018940      2.000000
  0.074226 -0.042856  0.037878      4.000000
  0.102060 -0.058927  0.094696      4.000000
 -0.009278  0.005357 -0.132576      4.000000
  0.018556 -0.010714 -0.075758      4.000000
  0.055669  0.032140  0.022726      2.000000
  0.083504  0.016069  0.079544      4.000000
  0.111339 -0.000002  0.136362      4.000000
 -0.000000  0.064282 -0.090910      2.000000
  0.102060  0.005355  0.003786      2.000000
  0.129895 -0.010716  0.060604      4.000000
  0.157730 -0.026787  0.117422      4.000000
  0.046391  0.037497 -0.109850      4.000000
  0.009278  0.058925  0.041666      2.000000
  0.037113  0.042854  0.098484      4.000000
  0.064947  0.026783  0.155302      4.000000
  0.111339  0.064280  0.045452      2.000000
  0.139173  0.048209  0.102270      2.000000
  0.157730  0.037495  0.026512      2.000000
  0.185564  0.021424  0.083330      4.000000
  0.064947  0.091065  0.064392      2.000000
 


--------------------------------------------------------------------------------------------------------




 Dimension of arrays:
   k-points           NKPTS =     24   k-points in BZ     NKDIM =     24   number of bands    NBANDS=     28
   number of dos      NEDOS =    301   number of ions     NIONS =      4
   non local maximal  LDIM  =      8   non local SUM 2l+1 LMDIM =     32
   total plane-waves  NPLWV =  14400
   max r-space proj   IRMAX =      1   max aug-charges    IRDMAX=  12752
   dimension x,y,z NGX =    20 NGY =   36 NGZ =   20
   dimension x,y,z NGXF=    40 NGYF=   72 NGZF=   40
   support grid    NGXF=    40 NGYF=   72 NGZF=   40
   ions per type =               2   2
   NGX,Y,Z   is equivalent  to a cutoff of   9.25,  9.62,  9.25 a.u.
   NGXF,Y,Z  is equivalent  to a cutoff of  18.51, 19.24, 18.51 a.u.

 SYSTEM =  "EuO"                                   
 POSCAR =  Eu1 O1 str #: 7                         

 Startparameter for this run:
   NWRITE =      2    write-flag & timer
   PREC   = normal    normal or accurate (medium, high low for compatibility)
   ISTART =      0    job   : 0-new  1-cont  2-samecut
   ICHARG =      2    charge: 1-file 2-atom 10-const
   ISPIN  =      2    spin polarized calculation?
   LNONCOLLINEAR =      F non collinear calculations
   LSORBIT =      F    spin-orbit coupling
   INIWAV =      1    electr: 0-lowe 1-rand  2-diag
   LASPH  =      F    aspherical Exc in radial PAW
   METAGGA=      F    non-selfconsistent MetaGGA calc.

 Electronic Relaxation 1
   ENCUT  =  500.0 eV  36.75 Ry    6.06 a.u.   6.55 11.35  6.55*2*pi/ulx,y,z
   ENINI  =  500.0     initial cutoff
   ENAUG  =  605.4 eV  augmentation charge cutoff
   NELM   =     60;   NELMIN=  2; NELMDL= -5     # of ELM steps 
   EDIFF  = 0.1E-05   stopping-criterion for ELM
   LREAL  =      F    real-space projection
   NLSPLINE    = F    spline interpolate recip. space projectors
   LCOMPAT=      F    compatible to vasp.4.4
   GGA_COMPAT  = T    GGA compatible to vasp.4.4-vasp.4.6
   LMAXPAW     = -100 max onsite density
   LMAXMIX     =    2 max onsite mixed and CHGCAR
   VOSKOWN=      0    Vosko Wilk Nusair interpolation
   ROPT   =    0.00000   0.00000
 Ionic relaxation
   EDIFFG = 0.1E-04   stopping-criterion for IOM
   NSW    =      0    number of steps for IOM
   NBLOCK =      1;   KBLOCK =      1    inner block; outer block 
   IBRION =     -1    ionic relax: 0-MD 1-quasi-New 2-CG
   NFREE  =      1    steps in history (QN), initial steepest desc. (CG)
   ISIF   =      2    stress and relaxation
   IWAVPR =     10    prediction:  0-non 1-charg 2-wave 3-comb
   ISYM   =      2    0-nonsym 1-usesym 2-fastsym
   LCORR  =      T    Harris-Foulkes like correction to forces

   POTIM  = 0.5000    time-step for ionic-motion
   TEIN   =    0.0    initial temperature
   TEBEG  =    0.0;   TEEND  =   0.0 temperature during run
   SMASS  =  -3.00    Nose mass-parameter (am)
   estimated Nose-frequenzy (Omega)   =  0.10E-29 period in steps =****** mass=  -0.295E-27a.u.
   SCALEE = 1.0000    scale energy and forces
   NPACO  =    256;   APACO  = 16.0  distance and # of slots for P.C.
   PSTRESS=    0.0 pullay stress

  Mass of Ions in am
   POMASS = 151.97 16.00
  Ionic Valenz
   ZVAL   =  17.00  6.00
  Atomic Wigner-Seitz radii
   RWIGS  =  -1.00 -1.00
  virtual crystal weights 
   VCA    =   1.00  1.00
   NELECT =      46.0000    total number of electrons
   NUPDOWN=      -1.0000    fix difference up-down

 DOS related values:
   EMIN   =  10.00;   EMAX   =-10.00  energy-range for DOS
   EFERMI =   0.00
   ISMEAR =     1;   SIGMA  =   0.10  broadening in eV -4-tet -1-fermi 0-gaus

 Electronic relaxation 2 (details)
   IALGO  =     38    algorithm
   LDIAG  =      T    sub-space diagonalisation (order eigenvalues)
   LSUBROT=      F    optimize rotation matrix (better conditioning)
   TURBO    =      0    0=normal 1=particle mesh
   IRESTART =      0    0=no restart 2=restart with 2 vectors
   NREBOOT  =      0    no. of reboots
   NMIN     =      0    reboot dimension
   EREF     =   0.00    reference energy to select bands
   IMIX   =      4    mixing-type and parameters
     AMIX     =   0.40;   BMIX     =  1.00
     AMIX_MAG =   1.60;   BMIX_MAG =  1.00
     AMIN     =   0.10
     WC   =   100.;   INIMIX=   1;  MIXPRE=   1;  MAXMIX= -45

 Intra band minimization:
   WEIMIN = 0.0000     energy-eigenvalue tresh-hold
   EBREAK =  0.89E-08  absolut break condition
   DEPER  =   0.30     relativ break condition  

   TIME   =   0.40     timestep for ELM

  volume/ion in A,a.u.               =      16.39       110.63
  Fermi-wavevector in a.u.,A,eV,Ry     =   1.454607  2.748810 28.788335  2.115883
  Thomas-Fermi vector in A             =   2.571738
 
 Write flags
   LWAVE        =      F    write WAVECAR
   LDOWNSAMPLE  =      F    k-point downsampling of WAVECAR
   LCHARG       =      F    write CHGCAR
   LVTOT        =      F    write LOCPOT, total local potential
   LVHAR        =      F    write LOCPOT, Hartree potential only
   LELF         =      F    write electronic localiz. function (ELF)
   LORBIT       =     11    0 simple, 1 ext, 2 COOP (PROOUT), +10 PAW based schemes


 Dipole corrections
   LMONO  =      F    monopole corrections only (constant potential shift)
   LDIPOL =      F    correct potential (dipole corrections)
   IDIPOL =      0    1-x, 2-y, 3-z, 4-all directions 
   EPSILON=  1.0000000 bulk dielectric constant

 Exchange correlation treatment:
   GGA     =    --    GGA type
   LEXCH   =     8    internal setting for exchange type
   VOSKOWN=      0    Vosko Wilk Nusair interpolation
   LHFCALC =     F    Hartree Fock is set to
   LHFONE  =     F    Hartree Fock one center treatment
   AEXX    =    0.0000 exact exchange contribution

 Linear response parameters
   LEPSILON=     F    determine dielectric tensor
   LRPA    =     F    only Hartree local field effects (RPA)
   LNABLA  =     F    use nabla operator in PAW spheres
   LVEL    =     F    velocity operator in full k-point grid
   LINTERFAST=   F  fast interpolation
   KINTER  =     0    interpolate to denser k-point grid
   CSHIFT  =0.1000    complex shift for real part using Kramers Kronig
   OMEGAMAX=  -1.0    maximum frequency
   DEG_THRESHOLD= 0.2000000E-02 threshold for treating states as degnerate
   RTIME   =   -0.100 relaxation time in fs
  (WPLASMAI=    0.000 imaginary part of plasma frequency in eV, 0.658/RTIME)
   DFIELD  = 0.0000000 0.0000000 0.0000000 field for delta impulse in time
 
 Orbital magnetization related:
   ORBITALMAG=     F  switch on orbital magnetization
   LCHIMAG   =     F  perturbation theory with respect to B field
   DQ        =  0.001000  dq finite difference perturbation B field
   LLRAUG    =     F  two centre corrections for induced B field



--------------------------------------------------------------------------------------------------------


 Static calculation
 charge density and potential will be updated during run
 spin polarized calculation
 Variant of blocked Davidson
 Davidson routine will perform the subspace rotation
 perform sub-space diagonalisation
    after iterative eigenvector-optimisation
 modified Broyden-mixing scheme, WC =      100.0
 initial mixing is a Kerker type mixing with AMIX =  0.4000 and BMIX =      1.0000
 Hartree-type preconditioning will be used
 using additional bands            5
 reciprocal scheme for non local part
 use partial core corrections
 calculate Harris-corrections to forces 
   (improved forces if not selfconsistent)
 use gradient corrections 
 use of overlap-Matrix (Vanderbilt PP)
 Methfessel and Paxton  Order N= 1 SIGMA  =   0.10


--------------------------------------------------------------------------------------------------------


  energy-cutoff  :      500.00
  volume of cell :       65.58
      direct lattice vectors                 reciprocal lattice vectors
     0.000008500 -2.074162400  2.933334000     0.139173204 -0.080355564  0.284089138
     3.592513700 -4.148395800 -2.933334000     0.139173204 -0.080355564 -0.056819875
     1.796384500  3.111279100  0.000000000     0.278346409  0.160700088  0.113630332

  length of vectors
     3.592575402  6.222522861  3.592638990     0.326393682  0.170454380  0.340900416


 
 k-points in units of 2pi/SCALE and weight: read from INCAR                         
   0.00000000  0.00000000  0.00000000       0.013
   0.02783464 -0.01607111  0.05681783       0.053
   0.05566928 -0.03214223  0.11363566       0.053
   0.04639107 -0.02678519 -0.01893996       0.027
   0.07422571 -0.04285630  0.03787787       0.053
   0.10206035 -0.05892741  0.09469570       0.053
  -0.00927821  0.00535704 -0.13257561       0.053
   0.01855643 -0.01071408 -0.07575779       0.053
   0.05566928  0.03214002  0.02272607       0.027
   0.08350392  0.01606890  0.07954389       0.053
   0.11133856 -0.00000221  0.13636172       0.053
  -0.00000000  0.06428224 -0.09090959       0.027
   0.10206035  0.00535483  0.00378611       0.027
   0.12989499 -0.01071628  0.06060394       0.053
   0.15772963 -0.02678740  0.11742176       0.053
   0.04639107  0.03749706 -0.10984955       0.053
   0.00927821  0.05892521  0.04166602       0.027
   0.03711285  0.04285409  0.09848385       0.053
   0.06494750  0.02678298  0.15530168       0.053
   0.11133856  0.06428004  0.04545213       0.027
   0.13917320  0.04820892  0.10226996       0.027
   0.15772963  0.03749485  0.02651217       0.027
   0.18556427  0.02142373  0.08333000       0.053
   0.06494750  0.09106522  0.06439209       0.027
 
 k-points in reciprocal lattice and weights: read from INCAR                         
   0.00000000  0.00000000  0.00000000       0.013
   0.20000000  0.00000000 -0.00000000       0.053
   0.40000000  0.00000000 -0.00000000       0.053
   0.00000000  0.33333333 -0.00000000       0.027
   0.20000000  0.33333333  0.00000000       0.053
   0.40000000  0.33333333 -0.00000000       0.053
  -0.40000000  0.33333333  0.00000000       0.053
  -0.20000000  0.33333333  0.00000000       0.053
  -0.00000000  0.00000000  0.20000000       0.027
   0.20000000  0.00000000  0.20000000       0.053
   0.40000000  0.00000000  0.20000000       0.053
  -0.40000000 -0.00000000  0.20000000       0.027
   0.00000000  0.33333333  0.20000000       0.027
   0.20000000  0.33333333  0.20000000       0.053
   0.40000000  0.33333333  0.20000000       0.053
  -0.40000000  0.33333333  0.20000000       0.053
   0.00000000 -0.33333333  0.20000000       0.027
   0.20000000 -0.33333333  0.20000000       0.053
   0.40000000 -0.33333333  0.20000000       0.053
  -0.00000000  0.00000000  0.40000000       0.027
   0.20000000 -0.00000000  0.40000000       0.027
  -0.00000000  0.33333333  0.40000000       0.027
   0.20000000  0.33333333  0.40000000       0.053
  -0.00000000 -0.33333333  0.40000000       0.027
 
 position of ions in fractional coordinates (direct lattice) 
   0.00000000  0.00000000  0.00000000
   0.50000000  0.50000000  0.00000000
   0.75000006  0.25000002  0.50000004
   0.25000006  0.75000002  0.50000004
 
 position of ions in cartesian coordinates  (Angst):
   0.00000000  0.00000000  0.00000000
   1.79626110 -3.11127910  0.00000000
   1.79632720 -1.03708130  1.46666710
   3.59257980 -2.07419800 -1.46666690
 


--------------------------------------------------------------------------------------------------------


 k-point  1 :   0.0000 0.0000 0.0000  plane waves:    1701
 k-point  2 :   0.2000 0.0000-0.0000  plane waves:    1688
 k-point  3 :   0.4000 0.0000-0.0000  plane waves:    1666
 k-point  4 :   0.0000 0.3333-0.0000  plane waves:    1678
 k-point  5 :   0.2000 0.3333 0.0000  plane waves:    1673
 k-point  6 :   0.4000 0.3333-0.0000  plane waves:    1661
 k-point  7 :  -0.4000 0.3333 0.0000  plane waves:    1658
 k-point  8 :  -0.2000 0.3333 0.0000  plane waves:    1667
 k-point  9 :  -0.0000 0.0000 0.2000  plane waves:    1659
 k-point 10 :   0.2000 0.0000 0.2000  plane waves:    1664
 k-point 11 :   0.4000 0.0000 0.2000  plane waves:    1659
 k-point 12 :  -0.4000-0.0000 0.2000  plane waves:    1663
 k-point 13 :   0.0000 0.3333 0.2000  plane waves:    1670
 k-point 14 :   0.2000 0.3333 0.2000  plane waves:    1659
 k-point 15 :   0.4000 0.3333 0.2000  plane waves:    1657
 k-point 16 :  -0.4000 0.3333 0.2000  plane waves:    1666
 k-point 17 :   0.0000-0.3333 0.2000  plane waves:    1679
 k-point 18 :   0.2000-0.3333 0.2000  plane waves:    1665
 k-point 19 :   0.4000-0.3333 0.2000  plane waves:    1658
 k-point 20 :  -0.0000 0.0000 0.4000  plane waves:    1644
 k-point 21 :   0.2000-0.0000 0.4000  plane waves:    1646
 k-point 22 :  -0.0000 0.3333 0.4000  plane waves:    1659
 k-point 23 :   0.2000 0.3333 0.4000  plane waves:    1659
 k-point 24 :  -0.0000-0.3333 0.4000  plane waves:    1653

 maximum and minimum number of plane-waves per node :       432      402

 maximum number of plane-waves:      1701
 maximum index in each direction: 
   IXMAX=    6   IYMAX=   11   IZMAX=    6
   IXMIN=   -6   IYMIN=  -11   IZMIN=   -6


 parallel 3D FFT for wavefunctions:
    minimum data exchange during FFTs selected (reduces bandwidth)
 parallel 3D FFT for charge:
    minimum data exchange during FFTs selected (reduces bandwidth)


 total amount of memory used by VASP MPI-rank0    42344. kBytes
=======================================================================

   base      :      30000. kBytes
   nonl-proj :       5237. kBytes
   fftplans  :        616. kBytes
   grid      :       1491. kBytes
   one-center:         98. kBytes
   wavefun   :       4902. kBytes
 
     INWAV:  cpu time    0.0000: real time    0.0001
 Broyden mixing: mesh for mixing (old mesh)
   NGX = 13   NGY = 23   NGZ = 13
  (NGX  = 40   NGY  = 72   NGZ  = 40)
  gives a total of   3887 points

 initial charge density was supplied:
 charge density of overlapping atoms calculated
 number of electron      46.0000000 magnetization       0.0000000
 keeping initial charge density in first step


--------------------------------------------------------------------------------------------------------


 Maximum index for augmentation-charges         1568 (set IRDMAX)


--------------------------------------------------------------------------------------------------------


 First call to EWALD:  gamma=   0.440
 Maximum number of real-space cells 3x 2x 4
 Maximum number of reciprocal cells 3x 4x 3

    FEWALD:  cpu time    0.0012: real time    0.0012


--------------------------------------- Iteration      1(   1)  ---------------------------------------


    POTLOK:  cpu time    0.0179: real time    0.0205
    SETDIJ:  cpu time    0.0088: real time    0.0088
     EDDAV:  cpu time    0.6236: real time    0.6422
       DOS:  cpu time    0.0017: real time    0.0017
    --------------------------------------------
      LOOP:  cpu time    0.6520: real time    0.6731

 eigenvalue-minimisations  :  3240
 total energy-change (2. order) : 0.4313130E+03  (-0.1834326E+04)
 number of electron      46.0000000 magnetization      -0.0000000
 augmentation part       46.0000000 magnetization      -0.0000000

 Free energy of the ion-electron system (eV)
  ---------------------------------------------------
  alpha Z        PSCENC =       453.10565554
  Ewald energy   TEWEN  =     -4853.25068260
  -Hartree energ DENC   =     -1394.95400397
  -exchange      EXHF   =         0.00000000
  -V(xc)+E(xc)   XCENC  =       227.31529748
  PAW double counting   =      5122.54265185    -5413.80328534
  entropy T*S    EENTRO =         0.00030443
  eigenvalues    EBANDS =       186.03091311
  atomic energy  EATOM  =      6104.32616516
  Solvation  Ediel_sol  =         0.00000000
  ---------------------------------------------------
  free energy    TOTEN  =       431.31301567 eV

  energy without entropy =      431.31271124  energy(sigma->0) =      431.31291419


--------------------------------------------------------------------------------------------------------




--------------------------------------- Iteration      1(   2)  ---------------------------------------


     EDDAV:  cpu time    0.6945: real time    0.6977
       DOS:  cpu time    0.0018: real time    0.0018
    --------------------------------------------
      LOOP:  cpu time    0.6963: real time    0.6995

 eigenvalue-minimisations  :  3680
 total energy-change (2. order) :-0.3796817E+03  (-0.3557167E+03)
 number of electron      46.0000000 magnetization      -0.0000000
 augmentation part       46.0000000 magnetization      -0.0000000

 Free energy of the ion-electron system (eV)
  ---------------------------------------------------
  alpha Z        PSCENC =       453.10565554
  Ewald energy   TEWEN  =     -4853.25068260
  -Hartree energ DENC   =     -1394.95400397
  -exchange      EXHF   =         0.00000000
  -V(xc)+E(xc)   XCENC  =       227.31529748
  PAW double counting   =      5122.54265185    -5413.80328534
  entropy T*S    EENTRO =        -0.00064199
  eigenvalues    EBANDS =      -193.64981924
  atomic energy  EATOM  =      6104.32616516
  Solvation  Ediel_sol  =         0.00000000
  ---------------------------------------------------
  free energy    TOTEN  =        51.63133690 eV

  energy without entropy =       51.63197889  energy(sigma->0) =       51.63155090


--------------------------------------------------------------------------------------------------------




--------------------------------------- Iteration      1(   3)  ---------------------------------------


     EDDAV:  cpu time    0.8117: real time    0.8137
       DOS:  cpu time    0.0020: real time    0.0020
    --------------------------------------------
      LOOP:  cpu time    0.8137: real time    0.8158

 eigenvalue-minimisations  :  4468
 total energy-change (2. order) :-0.8816574E+02  (-0.8632446E+02)
 number of electron      46.0000000 magnetization      -0.0000000
 augmentation part       46.0000000 magnetization      -0.0000000

 Free energy of the ion-electron system (eV)
  ---------------------------------------------------
  alpha Z        PSCENC =       453.10565554
  Ewald energy   TEWEN  =     -4853.25068260
  -Hartree energ DENC   =     -1394.95400397
  -exchange      EXHF   =         0.00000000
  -V(xc)+E(xc)   XCENC  =       227.31529748
  PAW double counting   =      5122.54265185    -5413.80328534
  entropy T*S    EENTRO =         0.00178940
  eigenvalues    EBANDS =      -281.81799288
  atomic energy  EATOM  =      6104.32616516
  Solvation  Ediel_sol  =         0.00000000
  ---------------------------------------------------
  free energy    TOTEN  =       -36.53440535 eV

  energy without entropy =      -36.53619475  energy(sigma->0) =      -36.53500182


--------------------------------------------------------------------------------------------------------




--------------------------------------- Iteration      1(   4)  ---------------------------------------


     EDDAV:  cpu time    0.8591: real time    0.8612
       DOS:  cpu time    0.0021: real time    0.0021
    --------------------------------------------
      LOOP:  cpu time    0.8612: real time    0.8633

 eigenvalue-minimisations  :  4732
 total energy-change (2. order) :-0.7631485E+01  (-0.7283232E+01)
 number of electron      46.0000000 magnetization      -0.0000000
 augmentation part       46.0000000 magnetization      -0.0000000

 Free energy of the ion-electron system (eV)
  ---------------------------------------------------
  alpha Z        PSCENC =       453.10565554
  Ewald energy   TEWEN  =     -4853.25068260
  -Hartree energ DENC   =     -1394.95400397
  -exchange      EXHF   =         0.00000000
  -V(xc)+E(xc)   XCENC  =       227.31529748
  PAW double counting   =      5122.54265185    -5413.80328534
  entropy T*S    EENTRO =        -0.00866414
  eigenvalues    EBANDS =      -289.43902442
  atomic energy  EATOM  =      6104.32616516
  Solvation  Ediel_sol  =         0.00000000
  ---------------------------------------------------
  free energy    TOTEN  =       -44.16589043 eV

  energy without entropy =      -44.15722629  energy(sigma->0) =      -44.16300238


--------------------------------------------------------------------------------------------------------




--------------------------------------- Iteration      1(   5)  ---------------------------------------


     EDDAV:  cpu time    0.8884: real time    0.8907
       DOS:  cpu time    0.0021: real time    0.0021
    CHARGE:  cpu time    0.0465: real time    0.0466
    MIXING:  cpu time    0.0005: real time    0.0005
    --------------------------------------------
      LOOP:  cpu time    0.9376: real time    0.9400

 eigenvalue-minimisations  :  4980
 total energy-change (2. order) :-0.8569387E+00  (-0.7959640E+00)
 number of electron      45.9999943 magnetization       0.0000000
 augmentation part        8.7003410 magnetization       0.0000000

 Broyden mixing:
  rms(total) = 0.26801E+01    rms(broyden)= 0.26799E+01
  rms(prec ) = 0.49374E+01
  weight for this iteration     100.00

 Free energy of the ion-electron system (eV)
  ---------------------------------------------------
  alpha Z        PSCENC =       453.10565554
  Ewald energy   TEWEN  =     -4853.25068260
  -Hartree energ DENC   =     -1394.95400397
  -exchange      EXHF   =         0.00000000
  -V(xc)+E(xc)   XCENC  =       227.31529748
  PAW double counting   =      5122.54265185    -5413.80328534
  entropy T*S    EENTRO =        -0.00887696
  eigenvalues    EBANDS =      -290.29575031
  atomic energy  EATOM  =      6104.32616516
  Solvation  Ediel_sol  =         0.00000000
  ---------------------------------------------------
  free energy    TOTEN  =       -45.02282915 eV

  energy without entropy =      -45.01395218  energy(sigma->0) =      -45.01987016


--------------------------------------------------------------------------------------------------------




--------------------------------------- Iteration      1(   6)  ---------------------------------------


    POTLOK:  cpu time    0.0161: real time    0.0162
    SETDIJ:  cpu time    0.0080: real time    0.0080
     EDDAV:  cpu time    0.8107: real time    0.8126
       DOS:  cpu time    0.0019: real time    0.0019
    CHARGE:  cpu time    0.0428: real time    0.0429
    MIXING:  cpu time    0.0007: real time    0.0007
    --------------------------------------------
      LOOP:  cpu time    0.8801: real time    0.8823

 eigenvalue-minimisations  :  4416
 total energy-change (2. order) :-0.4043108E+02  (-0.6664915E+02)
 number of electron      46.0000048 magnetization       0.0000000
 augmentation part       22.4610438 magnetization       0.0000000

 Broyden mixing:
  rms(total) = 0.10834E+02    rms(broyden)= 0.10834E+02
  rms(prec ) = 0.17669E+02
  weight for this iteration     100.00

 eigenvalues of (default mixing * dielectric matrix)
  average eigenvalue GAMMA=   0.1454
  0.1454

 Free energy of the ion-electron system (eV)
  ---------------------------------------------------
  alpha Z        PSCENC =       453.10565554
  Ewald energy   TEWEN  =     -4853.25068260
  -Hartree energ DENC   =     -1269.27151873
  -exchange      EXHF   =         0.00000000
  -V(xc)+E(xc)   XCENC  =       223.80099201
  PAW double counting   =      4939.67992416    -5175.26561086
  entropy T*S    EENTRO =         0.00525385
  eigenvalues    EBANDS =      -508.58408435
  atomic energy  EATOM  =      6104.32616516
  Solvation  Ediel_sol  =         0.00000000
  ---------------------------------------------------
  free energy    TOTEN  =       -85.45390583 eV

  energy without entropy =      -85.45915968  energy(sigma->0) =      -85.45565711


--------------------------------------------------------------------------------------------------------




--------------------------------------- Iteration      1(   7)  ---------------------------------------


    POTLOK:  cpu time    0.0162: real time    0.0164
    SETDIJ:  cpu time    0.0083: real time    0.0083
     EDDAV:  cpu time    0.7799: real time    0.7817
       DOS:  cpu time    0.0019: real time    0.0019
    CHARGE:  cpu time    0.0426: real time    0.0427
    MIXING:  cpu time    0.0008: real time    0.0008
    --------------------------------------------
      LOOP:  cpu time    0.8497: real time    0.8518

 eigenvalue-minimisations  :  4324
 total energy-change (2. order) : 0.5687579E+02  (-0.4706090E+02)
 number of electron      45.9999985 magnetization       0.0000000
 augmentation part       10.7584519 magnetization       0.0000000

 Broyden mixing:
  rms(total) = 0.26387E+01    rms(broyden)= 0.26382E+01
  rms(prec ) = 0.27108E+01
  weight for this iteration     100.00

 eigenvalues of (default mixing * dielectric matrix)
  average eigenvalue GAMMA=   0.2152
  0.2152  0.2152

 Free energy of the ion-electron system (eV)
  ---------------------------------------------------
  alpha Z        PSCENC =       453.10565554
  Ewald energy   TEWEN  =     -4853.25068260
  -Hartree energ DENC   =     -1356.43804760
  -exchange      EXHF   =         0.00000000
  -V(xc)+E(xc)   XCENC  =       224.30528981
  PAW double counting   =      5163.73531594    -5453.37652412
  entropy T*S    EENTRO =         0.00115854
  eigenvalues    EBANDS =      -310.98644173
  atomic energy  EATOM  =      6104.32616516
  Solvation  Ediel_sol  =         0.00000000
  ---------------------------------------------------
  free energy    TOTEN  =       -28.57811105 eV

  energy without entropy =      -28.57926959  energy(sigma->0) =      -28.57849723


--------------------------------------------------------------------------------------------------------




--------------------------------------- Iteration      1(   8)  ---------------------------------------


    POTLOK:  cpu time    0.0159: real time    0.0161
    SETDIJ:  cpu time    0.0079: real time    0.0079
     EDDAV:  cpu time    0.7518: real time    0.7536
       DOS:  cpu time    0.0019: real time    0.0019
    CHARGE:  cpu time    0.0550: real time    0.0551
    MIXING:  cpu time    0.0007: real time    0.0007
    --------------------------------------------
      LOOP:  cpu time    0.8332: real time    0.8353

 eigenvalue-minimisations  :  4152
 total energy-change (2. order) :-0.1229161E+02  (-0.9259344E+01)
 number of electron      45.9999982 magnetization       0.0000000
 augmentation part       12.0519047 magnetization       0.0000000

 Broyden mixing:
  rms(total) = 0.20604E+01    rms(broyden)= 0.20602E+01
  rms(prec ) = 0.23029E+01
  weight for this iteration     100.00

 eigenvalues of (default mixing * dielectric matrix)
  average eigenvalue GAMMA=   0.3384
  0.4053  0.4053  0.2046

 Free energy of the ion-electron system (eV)
  ---------------------------------------------------
  alpha Z        PSCENC =       453.10565554
  Ewald energy   TEWEN  =     -4853.25068260
  -Hartree energ DENC   =     -1352.71865050
  -exchange      EXHF   =         0.00000000
  -V(xc)+E(xc)   XCENC  =       225.50262056
  PAW double counting   =      5185.62401350    -5476.25730454
  entropy T*S    EENTRO =         0.00015378
  eigenvalues    EBANDS =      -327.20168815
  atomic energy  EATOM  =      6104.32616516
  Solvation  Ediel_sol  =         0.00000000
  ---------------------------------------------------
  free energy    TOTEN  =       -40.86971724 eV

  energy without entropy =      -40.86987103  energy(sigma->0) =      -40.86976850


--------------------------------------------------------------------------------------------------------




--------------------------------------- Iteration      1(   9)  ---------------------------------------


    POTLOK:  cpu time    0.0161: real time    0.0162
    SETDIJ:  cpu time    0.0079: real time    0.0080
     EDDAV:  cpu time    0.7815: real time    0.7836
       DOS:  cpu time    0.0020: real time    0.0020
    CHARGE:  cpu time    0.0424: real time    0.0425
    MIXING:  cpu time    0.0007: real time    0.0007
    --------------------------------------------
      LOOP:  cpu time    0.8505: real time    0.8529

 eigenvalue-minimisations  :  4300
 total energy-change (2. order) :-0.5857533E+00  (-0.9923061E+00)
 number of electron      45.9999972 magnetization       0.0000000
 augmentation part       11.4198743 magnetization       0.0000000

 Broyden mixing:
  rms(total) = 0.11793E+01    rms(broyden)= 0.11793E+01
  rms(prec ) = 0.14564E+01
  weight for this iteration     100.00

 eigenvalues of (default mixing * dielectric matrix)
  average eigenvalue GAMMA=   0.5302
  0.8045  0.2004  0.5580  0.5580

 Free energy of the ion-electron system (eV)
  ---------------------------------------------------
  alpha Z        PSCENC =       453.10565554
  Ewald energy   TEWEN  =     -4853.25068260
  -Hartree energ DENC   =     -1375.00814498
  -exchange      EXHF   =         0.00000000
  -V(xc)+E(xc)   XCENC  =       228.03459630
  PAW double counting   =      5213.65050666    -5513.18741643
  entropy T*S    EENTRO =         0.00811737
  eigenvalues    EBANDS =      -299.13426754
  atomic energy  EATOM  =      6104.32616516
  Solvation  Ediel_sol  =         0.00000000
  ---------------------------------------------------
  free energy    TOTEN  =       -41.45547052 eV

  energy without entropy =      -41.46358789  energy(sigma->0) =      -41.45817631


--------------------------------------------------------------------------------------------------------




--------------------------------------- Iteration      1(  10)  ---------------------------------------


    POTLOK:  cpu time    0.0154: real time    0.0155
    SETDIJ:  cpu time    0.0076: real time    0.0076
     EDDAV:  cpu time    0.9096: real time    0.9118
       DOS:  cpu time    0.0020: real time    0.0020
    CHARGE:  cpu time    0.0430: real time    0.0431
    MIXING:  cpu time    0.0008: real time    0.0008
    --------------------------------------------
      LOOP:  cpu time    0.9784: real time    0.9809

 eigenvalue-minimisations  :  5080
 total energy-change (2. order) :-0.2049207E+00  (-0.1816257E+00)
 number of electron      45.9999972 magnetization       0.0000000
 augmentation part       11.1295115 magnetization       0.0000000

 Broyden mixing:
  rms(total) = 0.78530E+00    rms(broyden)= 0.78529E+00
  rms(prec ) = 0.10800E+01
  weight for this iteration     100.00

 eigenvalues of (default mixing * dielectric matrix)
  average eigenvalue GAMMA=   0.6001
  0.8952  0.8952  0.2007  0.5047  0.5047

 Free energy of the ion-electron system (eV)
  ---------------------------------------------------
  alpha Z        PSCENC =       453.10565554
  Ewald energy   TEWEN  =     -4853.25068260
  -Hartree energ DENC   =     -1382.99278077
  -exchange      EXHF   =         0.00000000
  -V(xc)+E(xc)   XCENC  =       229.82403667
  PAW double counting   =      5232.07283692    -5539.16546956
  entropy T*S    EENTRO =         0.00356190
  eigenvalues    EBANDS =      -285.58371444
  atomic energy  EATOM  =      6104.32616516
  Solvation  Ediel_sol  =         0.00000000
  ---------------------------------------------------
  free energy    TOTEN  =       -41.66039118 eV

  energy without entropy =      -41.66395308  energy(sigma->0) =      -41.66157848


--------------------------------------------------------------------------------------------------------




--------------------------------------- Iteration      1(  11)  ---------------------------------------


    POTLOK:  cpu time    0.0160: real time    0.0162
    SETDIJ:  cpu time    0.0084: real time    0.0084
     EDDAV:  cpu time    0.9268: real time    0.9290
       DOS:  cpu time    0.0020: real time    0.0020
    CHARGE:  cpu time    0.0449: real time    0.0450
    MIXING:  cpu time    0.0008: real time    0.0008
    --------------------------------------------
      LOOP:  cpu time    0.9989: real time    1.0014

 eigenvalue-minimisations  :  5048
 total energy-change (2. order) :-0.1793554E-01  (-0.4842128E-01)
 number of electron      45.9999975 magnetization      -0.0000000
 augmentation part       11.2480443 magnetization      -0.0000000

 Broyden mixing:
  rms(total) = 0.50499E+00    rms(broyden)= 0.50498E+00
  rms(prec ) = 0.69993E+00
  weight for this iteration     100.00

 eigenvalues of (default mixing * dielectric matrix)
  average eigenvalue GAMMA=   0.8429
  1.9242  1.2435  0.2006  0.5118  0.5118  0.6655

 Free energy of the ion-electron system (eV)
  ---------------------------------------------------
  alpha Z        PSCENC =       453.10565554
  Ewald energy   TEWEN  =     -4853.25068260
  -Hartree energ DENC   =     -1382.96833036
  -exchange      EXHF   =         0.00000000
  -V(xc)+E(xc)   XCENC  =       230.78359216
  PAW double counting   =      5243.96073407    -5553.19264627
  entropy T*S    EENTRO =         0.00235154
  eigenvalues    EBANDS =      -284.44516597
  atomic energy  EATOM  =      6104.32616516
  Solvation  Ediel_sol  =         0.00000000
  ---------------------------------------------------
  free energy    TOTEN  =       -41.67832672 eV

  energy without entropy =      -41.68067827  energy(sigma->0) =      -41.67911057


--------------------------------------------------------------------------------------------------------




--------------------------------------- Iteration      1(  12)  ---------------------------------------


    POTLOK:  cpu time    0.0160: real time    0.0161
    SETDIJ:  cpu time    0.0081: real time    0.0081
     EDDAV:  cpu time    0.7599: real time    0.7617
       DOS:  cpu time    0.0020: real time    0.0020
    CHARGE:  cpu time    0.0482: real time    0.0483
    MIXING:  cpu time    0.0008: real time    0.0008
    --------------------------------------------
      LOOP:  cpu time    0.8350: real time    0.8370

 eigenvalue-minimisations  :  4192
 total energy-change (2. order) : 0.5694909E-01  (-0.9108500E-01)
 number of electron      45.9999980 magnetization       0.0000000
 augmentation part       11.5604780 magnetization       0.0000000

 Broyden mixing:
  rms(total) = 0.17928E+00    rms(broyden)= 0.17926E+00
  rms(prec ) = 0.24228E+00
  weight for this iteration     100.00

 eigenvalues of (default mixing * dielectric matrix)
  average eigenvalue GAMMA=   0.9640
  3.0446  1.1333  0.2006  0.5152  0.5152  0.6696  0.6696

 Free energy of the ion-electron system (eV)
  ---------------------------------------------------
  alpha Z        PSCENC =       453.10565554
  Ewald energy   TEWEN  =     -4853.25068260
  -Hartree energ DENC   =     -1379.17280061
  -exchange      EXHF   =         0.00000000
  -V(xc)+E(xc)   XCENC  =       232.28871949
  PAW double counting   =      5264.89226364    -5575.50483646
  entropy T*S    EENTRO =         0.00650283
  eigenvalues    EBANDS =      -288.31236462
  atomic energy  EATOM  =      6104.32616516
  Solvation  Ediel_sol  =         0.00000000
  ---------------------------------------------------
  free energy    TOTEN  =       -41.62137763 eV

  energy without entropy =      -41.62788046  energy(sigma->0) =      -41.62354524


--------------------------------------------------------------------------------------------------------




--------------------------------------- Iteration      1(  13)  ---------------------------------------


    POTLOK:  cpu time    0.0162: real time    0.0164
    SETDIJ:  cpu time    0.0080: real time    0.0080
     EDDAV:  cpu time    0.9239: real time    0.9260
       DOS:  cpu time    0.0020: real time    0.0020
    CHARGE:  cpu time    0.0440: real time    0.0441
    MIXING:  cpu time    0.0010: real time    0.0010
    --------------------------------------------
      LOOP:  cpu time    0.9951: real time    0.9975

 eigenvalue-minimisations  :  5064
 total energy-change (2. order) : 0.4153167E-02  (-0.1891641E-01)
 number of electron      45.9999983 magnetization       0.0000000
 augmentation part       11.6615172 magnetization       0.0000000

 Broyden mixing:
  rms(total) = 0.18316E+00    rms(broyden)= 0.18315E+00
  rms(prec ) = 0.24312E+00
  weight for this iteration     100.00

 eigenvalues of (default mixing * dielectric matrix)
  average eigenvalue GAMMA=   0.9451
  3.1712  1.1206  0.2006  0.5124  0.5124  0.7331  0.7331  0.5776

 Free energy of the ion-electron system (eV)
  ---------------------------------------------------
  alpha Z        PSCENC =       453.10565554
  Ewald energy   TEWEN  =     -4853.25068260
  -Hartree energ DENC   =     -1377.42683885
  -exchange      EXHF   =         0.00000000
  -V(xc)+E(xc)   XCENC  =       232.62782270
  PAW double counting   =      5269.39445701    -5578.97780914
  entropy T*S    EENTRO =         0.00834586
  eigenvalues    EBANDS =      -291.42434015
  atomic energy  EATOM  =      6104.32616516
  Solvation  Ediel_sol  =         0.00000000
  ---------------------------------------------------
  free energy    TOTEN  =       -41.61722447 eV

  energy without entropy =      -41.62557033  energy(sigma->0) =      -41.62000642


--------------------------------------------------------------------------------------------------------




--------------------------------------- Iteration      1(  14)  ---------------------------------------


    POTLOK:  cpu time    0.0161: real time    0.0162
    SETDIJ:  cpu time    0.0079: real time    0.0079
     EDDAV:  cpu time    0.6890: real time    0.6907
       DOS:  cpu time    0.0019: real time    0.0019
    CHARGE:  cpu time    0.0443: real time    0.0445
    MIXING:  cpu time    0.0010: real time    0.0010
    --------------------------------------------
      LOOP:  cpu time    0.7603: real time    0.7622

 eigenvalue-minimisations  :  3680
 total energy-change (2. order) : 0.1925826E-02  (-0.1445174E-02)
 number of electron      45.9999983 magnetization      -0.0000000
 augmentation part       11.6852889 magnetization      -0.0000000

 Broyden mixing:
  rms(total) = 0.17022E+00    rms(broyden)= 0.17022E+00
  rms(prec ) = 0.22750E+00
  weight for this iteration     100.00

 eigenvalues of (default mixing * dielectric matrix)
  average eigenvalue GAMMA=   1.0349
  3.4208  1.3043  1.3043  0.2006  0.5126  0.5126  0.7840  0.6374  0.6374

 Free energy of the ion-electron system (eV)
  ---------------------------------------------------
  alpha Z        PSCENC =       453.10565554
  Ewald energy   TEWEN  =     -4853.25068260
  -Hartree energ DENC   =     -1377.34338236
  -exchange      EXHF   =         0.00000000
  -V(xc)+E(xc)   XCENC  =       232.68564291
  PAW double counting   =      5272.72823948    -5581.62733724
  entropy T*S    EENTRO =         0.00875774
  eigenvalues    EBANDS =      -292.24835728
  atomic energy  EATOM  =      6104.32616516
  Solvation  Ediel_sol  =         0.00000000
  ---------------------------------------------------
  free energy    TOTEN  =       -41.61529864 eV

  energy without entropy =      -41.62405638  energy(sigma->0) =      -41.61821789


--------------------------------------------------------------------------------------------------------




--------------------------------------- Iteration      1(  15)  ---------------------------------------


    POTLOK:  cpu time    0.0164: real time    0.0165
    SETDIJ:  cpu time    0.0080: real time    0.0080
     EDDAV:  cpu time    0.7791: real time    0.7810
       DOS:  cpu time    0.0019: real time    0.0020
    CHARGE:  cpu time    0.0435: real time    0.0436
    MIXING:  cpu time    0.0010: real time    0.0010
    --------------------------------------------
      LOOP:  cpu time    0.8500: real time    0.8521

 eigenvalue-minimisations  :  4416
 total energy-change (2. order) : 0.9841096E-02  (-0.3551177E-02)
 number of electron      45.9999982 magnetization      -0.0000000
 augmentation part       11.7298448 magnetization      -0.0000000

 Broyden mixing:
  rms(total) = 0.13904E+00    rms(broyden)= 0.13903E+00
  rms(prec ) = 0.17628E+00
  weight for this iteration     100.00

 eigenvalues of (default mixing * dielectric matrix)
  average eigenvalue GAMMA=   1.0844
  2.9934  1.8633  1.8633  0.2006  0.5129  0.5129  0.7892  0.7892  0.7048  0.6146

 Free energy of the ion-electron system (eV)
  ---------------------------------------------------
  alpha Z        PSCENC =       453.10565554
  Ewald energy   TEWEN  =     -4853.25068260
  -Hartree energ DENC   =     -1377.33490653
  -exchange      EXHF   =         0.00000000
  -V(xc)+E(xc)   XCENC  =       232.72744000
  PAW double counting   =      5283.28555390    -5590.52623431
  entropy T*S    EENTRO =         0.00966041
  eigenvalues    EBANDS =      -293.94810912
  atomic energy  EATOM  =      6104.32616516
  Solvation  Ediel_sol  =         0.00000000
  ---------------------------------------------------
  free energy    TOTEN  =       -41.60545754 eV

  energy without entropy =      -41.61511795  energy(sigma->0) =      -41.60867768


--------------------------------------------------------------------------------------------------------




--------------------------------------- Iteration      1(  16)  ---------------------------------------


    POTLOK:  cpu time    0.0160: real time    0.0162
    SETDIJ:  cpu time    0.0080: real time    0.0080
     EDDAV:  cpu time    0.8016: real time    0.8034
       DOS:  cpu time    0.0021: real time    0.0021
    CHARGE:  cpu time    0.0433: real time    0.0434
    MIXING:  cpu time    0.0012: real time    0.0012
    --------------------------------------------
      LOOP:  cpu time    0.8721: real time    0.8742

 eigenvalue-minimisations  :  4380
 total energy-change (2. order) :-0.3161500E-03  (-0.1484431E-02)
 number of electron      45.9999982 magnetization       0.0000000
 augmentation part       11.6913613 magnetization       0.0000000

 Broyden mixing:
  rms(total) = 0.96886E-01    rms(broyden)= 0.96885E-01
  rms(prec ) = 0.11518E+00
  weight for this iteration     100.00

 eigenvalues of (default mixing * dielectric matrix)
  average eigenvalue GAMMA=   1.1076
  3.2440  2.1346  2.1346  0.2006  0.5125  0.5125  0.8216  0.8216  0.6357  0.6357
  0.5306

 Free energy of the ion-electron system (eV)
  ---------------------------------------------------
  alpha Z        PSCENC =       453.10565554
  Ewald energy   TEWEN  =     -4853.25068260
  -Hartree energ DENC   =     -1377.88469531
  -exchange      EXHF   =         0.00000000
  -V(xc)+E(xc)   XCENC  =       232.58194862
  PAW double counting   =      5285.50945644    -5592.99359910
  entropy T*S    EENTRO =         0.00955477
  eigenvalues    EBANDS =      -293.00957721
  atomic energy  EATOM  =      6104.32616516
  Solvation  Ediel_sol  =         0.00000000
  ---------------------------------------------------
  free energy    TOTEN  =       -41.60577369 eV

  energy without entropy =      -41.61532846  energy(sigma->0) =      -41.60895862


--------------------------------------------------------------------------------------------------------




--------------------------------------- Iteration      1(  17)  ---------------------------------------


    POTLOK:  cpu time    0.0165: real time    0.0166
    SETDIJ:  cpu time    0.0083: real time    0.0083
     EDDAV:  cpu time    0.9111: real time    0.9133
       DOS:  cpu time    0.0020: real time    0.0020
    CHARGE:  cpu time    0.0439: real time    0.0440
    MIXING:  cpu time    0.0013: real time    0.0013
    --------------------------------------------
      LOOP:  cpu time    0.9831: real time    0.9856

 eigenvalue-minimisations  :  5036
 total energy-change (2. order) :-0.7924804E-03  (-0.6827906E-03)
 number of electron      45.9999981 magnetization       0.0000000
 augmentation part       11.6849229 magnetization       0.0000000

 Broyden mixing:
  rms(total) = 0.59605E-01    rms(broyden)= 0.59603E-01
  rms(prec ) = 0.67486E-01
  weight for this iteration     100.00

 eigenvalues of (default mixing * dielectric matrix)
  average eigenvalue GAMMA=   1.0996
  2.5266  2.5266  2.3838  0.9697  0.9697  0.2006  0.5127  0.5127  0.6873  0.6873
  0.6089  0.6089

 Free energy of the ion-electron system (eV)
  ---------------------------------------------------
  alpha Z        PSCENC =       453.10565554
  Ewald energy   TEWEN  =     -4853.25068260
  -Hartree energ DENC   =     -1377.76224686
  -exchange      EXHF   =         0.00000000
  -V(xc)+E(xc)   XCENC  =       232.43235047
  PAW double counting   =      5286.79951559    -5594.10829825
  entropy T*S    EENTRO =         0.00960633
  eigenvalues    EBANDS =      -293.15863156
  atomic energy  EATOM  =      6104.32616516
  Solvation  Ediel_sol  =         0.00000000
  ---------------------------------------------------
  free energy    TOTEN  =       -41.60656617 eV

  energy without entropy =      -41.61617250  energy(sigma->0) =      -41.60976828


--------------------------------------------------------------------------------------------------------




--------------------------------------- Iteration      1(  18)  ---------------------------------------


    POTLOK:  cpu time    0.0165: real time    0.0166
    SETDIJ:  cpu time    0.0083: real time    0.0083
     EDDAV:  cpu time    0.8611: real time    0.8631
       DOS:  cpu time    0.0020: real time    0.0020
    CHARGE:  cpu time    0.0433: real time    0.0434
    MIXING:  cpu time    0.0013: real time    0.0013
    --------------------------------------------
      LOOP:  cpu time    0.9324: real time    0.9348

 eigenvalue-minimisations  :  4888
 total energy-change (2. order) :-0.4420661E-03  (-0.1308066E-03)
 number of electron      45.9999981 magnetization       0.0000000
 augmentation part       11.6779091 magnetization       0.0000000

 Broyden mixing:
  rms(total) = 0.36331E-01    rms(broyden)= 0.36331E-01
  rms(prec ) = 0.41487E-01
  weight for this iteration     100.00

 eigenvalues of (default mixing * dielectric matrix)
  average eigenvalue GAMMA=   1.0819
  2.5590  2.5590  2.5071  0.9735  0.9735  0.2006  0.5127  0.5127  0.7329  0.7329
  0.6395  0.6395  0.5222

 Free energy of the ion-electron system (eV)
  ---------------------------------------------------
  alpha Z        PSCENC =       453.10565554
  Ewald energy   TEWEN  =     -4853.25068260
  -Hartree energ DENC   =     -1377.68739481
  -exchange      EXHF   =         0.00000000
  -V(xc)+E(xc)   XCENC  =       232.34575728
  PAW double counting   =      5286.01367268    -5593.42032576
  entropy T*S    EENTRO =         0.00942337
  eigenvalues    EBANDS =      -293.04927910
  atomic energy  EATOM  =      6104.32616516
  Solvation  Ediel_sol  =         0.00000000
  ---------------------------------------------------
  free energy    TOTEN  =       -41.60700824 eV

  energy without entropy =      -41.61643161  energy(sigma->0) =      -41.61014936


--------------------------------------------------------------------------------------------------------




--------------------------------------- Iteration      1(  19)  ---------------------------------------


    POTLOK:  cpu time    0.0159: real time    0.0161
    SETDIJ:  cpu time    0.0076: real time    0.0076
     EDDAV:  cpu time    0.8996: real time    0.9017
       DOS:  cpu time    0.0021: real time    0.0021
    CHARGE:  cpu time    0.0440: real time    0.0441
    MIXING:  cpu time    0.0013: real time    0.0013
    --------------------------------------------
      LOOP:  cpu time    0.9705: real time    0.9729

 eigenvalue-minimisations  :  5024
 total energy-change (2. order) :-0.1521085E-03  (-0.4938313E-04)
 number of electron      45.9999981 magnetization       0.0000000
 augmentation part       11.6713891 magnetization       0.0000000

 Broyden mixing:
  rms(total) = 0.20871E-01    rms(broyden)= 0.20871E-01
  rms(prec ) = 0.24279E-01
  weight for this iteration     100.00

 eigenvalues of (default mixing * dielectric matrix)
  average eigenvalue GAMMA=   1.1111
  2.8097  2.8097  2.2140  1.1016  1.1016  0.2006  0.5127  0.5127  0.8586  0.8586
  0.6989  0.6989  0.6057  0.5725

 Free energy of the ion-electron system (eV)
  ---------------------------------------------------
  alpha Z        PSCENC =       453.10565554
  Ewald energy   TEWEN  =     -4853.25068260
  -Hartree energ DENC   =     -1377.63450420
  -exchange      EXHF   =         0.00000000
  -V(xc)+E(xc)   XCENC  =       232.28905284
  PAW double counting   =      5284.99517783    -5592.50863060
  entropy T*S    EENTRO =         0.00927179
  eigenvalues    EBANDS =      -292.93866611
  atomic energy  EATOM  =      6104.32616516
  Solvation  Ediel_sol  =         0.00000000
  ---------------------------------------------------
  free energy    TOTEN  =       -41.60716035 eV

  energy without entropy =      -41.61643214  energy(sigma->0) =      -41.61025095


--------------------------------------------------------------------------------------------------------




--------------------------------------- Iteration      1(  20)  ---------------------------------------


    POTLOK:  cpu time    0.0167: real time    0.0169
    SETDIJ:  cpu time    0.0084: real time    0.0084
     EDDAV:  cpu time    0.8115: real time    0.8134
       DOS:  cpu time    0.0019: real time    0.0019
    CHARGE:  cpu time    0.0462: real time    0.0463
    MIXING:  cpu time    0.0014: real time    0.0014
    --------------------------------------------
      LOOP:  cpu time    0.8859: real time    0.8882

 eigenvalue-minimisations  :  4568
 total energy-change (2. order) :-0.1021880E-04  (-0.6806129E-04)
 number of electron      45.9999981 magnetization      -0.0000000
 augmentation part       11.6631953 magnetization      -0.0000000

 Broyden mixing:
  rms(total) = 0.54517E-02    rms(broyden)= 0.54512E-02
  rms(prec ) = 0.70358E-02
  weight for this iteration     100.00

 eigenvalues of (default mixing * dielectric matrix)
  average eigenvalue GAMMA=   1.1490
  2.9568  2.9568  2.0675  2.0675  0.2006  0.5127  0.5127  0.8109  0.8109  0.9017
  0.9017  0.6785  0.6785  0.6387  0.5401

 Free energy of the ion-electron system (eV)
  ---------------------------------------------------
  alpha Z        PSCENC =       453.10565554
  Ewald energy   TEWEN  =     -4853.25068260
  -Hartree energ DENC   =     -1377.60120046
  -exchange      EXHF   =         0.00000000
  -V(xc)+E(xc)   XCENC  =       232.21290232
  PAW double counting   =      5284.01861676    -5591.62586903
  entropy T*S    EENTRO =         0.00914845
  eigenvalues    EBANDS =      -292.80190672
  atomic energy  EATOM  =      6104.32616516
  Solvation  Ediel_sol  =         0.00000000
  ---------------------------------------------------
  free energy    TOTEN  =       -41.60717057 eV

  energy without entropy =      -41.61631902  energy(sigma->0) =      -41.61022005


--------------------------------------------------------------------------------------------------------




--------------------------------------- Iteration      1(  21)  ---------------------------------------


    POTLOK:  cpu time    0.0159: real time    0.0161
    SETDIJ:  cpu time    0.0079: real time    0.0079
     EDDAV:  cpu time    0.7836: real time    0.7855
       DOS:  cpu time    0.0021: real time    0.0021
    CHARGE:  cpu time    0.0468: real time    0.0469
    MIXING:  cpu time    0.0015: real time    0.0015
    --------------------------------------------
      LOOP:  cpu time    0.8579: real time    0.8600

 eigenvalue-minimisations  :  4344
 total energy-change (2. order) : 0.1523241E-05  (-0.7107889E-05)
 number of electron      45.9999981 magnetization      -0.0000000
 augmentation part       11.6624085 magnetization      -0.0000000

 Broyden mixing:
  rms(total) = 0.26116E-02    rms(broyden)= 0.26115E-02
  rms(prec ) = 0.41037E-02
  weight for this iteration     100.00

 eigenvalues of (default mixing * dielectric matrix)
  average eigenvalue GAMMA=   1.1961
  2.9482  2.9482  2.5257  2.5257  1.0361  1.0361  0.2006  0.5127  0.5127  0.8188
  0.8188  0.7267  0.7267  0.6486  0.6234  0.5293

 Free energy of the ion-electron system (eV)
  ---------------------------------------------------
  alpha Z        PSCENC =       453.10565554
  Ewald energy   TEWEN  =     -4853.25068260
  -Hartree energ DENC   =     -1377.67071186
  -exchange      EXHF   =         0.00000000
  -V(xc)+E(xc)   XCENC  =       232.22218839
  PAW double counting   =      5283.95236841    -5591.56304357
  entropy T*S    EENTRO =         0.00908740
  eigenvalues    EBANDS =      -292.73819591
  atomic energy  EATOM  =      6104.32616516
  Solvation  Ediel_sol  =         0.00000000
  ---------------------------------------------------
  free energy    TOTEN  =       -41.60716904 eV

  energy without entropy =      -41.61625644  energy(sigma->0) =      -41.61019818


--------------------------------------------------------------------------------------------------------




--------------------------------------- Iteration      1(  22)  ---------------------------------------


    POTLOK:  cpu time    0.0162: real time    0.0164
    SETDIJ:  cpu time    0.0083: real time    0.0083
     EDDAV:  cpu time    0.7510: real time    0.7527
       DOS:  cpu time    0.0020: real time    0.0020
    CHARGE:  cpu time    0.0464: real time    0.0465
    MIXING:  cpu time    0.0015: real time    0.0016
    --------------------------------------------
      LOOP:  cpu time    0.8254: real time    0.8275

 eigenvalue-minimisations  :  4016
 total energy-change (2. order) : 0.1038333E-04  (-0.5921975E-05)
 number of electron      45.9999981 magnetization      -0.0000000
 augmentation part       11.6600331 magnetization      -0.0000000

 Broyden mixing:
  rms(total) = 0.96380E-03    rms(broyden)= 0.96303E-03
  rms(prec ) = 0.11080E-02
  weight for this iteration     100.00

 eigenvalues of (default mixing * dielectric matrix)
  average eigenvalue GAMMA=   1.1916
  2.9643  2.9643  2.8458  2.3744  1.0841  1.0841  0.2006  0.5127  0.5127  0.8190
  0.8190  0.7918  0.7918  0.6761  0.6761  0.5424  0.5980

 Free energy of the ion-electron system (eV)
  ---------------------------------------------------
  alpha Z        PSCENC =       453.10565554
  Ewald energy   TEWEN  =     -4853.25068260
  -Hartree energ DENC   =     -1377.74929268
  -exchange      EXHF   =         0.00000000
  -V(xc)+E(xc)   XCENC  =       232.22806907
  PAW double counting   =      5283.77319908    -5591.41685578
  entropy T*S    EENTRO =         0.00904705
  eigenvalues    EBANDS =      -292.63246349
  atomic energy  EATOM  =      6104.32616516
  Solvation  Ediel_sol  =         0.00000000
  ---------------------------------------------------
  free energy    TOTEN  =       -41.60715866 eV

  energy without entropy =      -41.61620571  energy(sigma->0) =      -41.61017434


--------------------------------------------------------------------------------------------------------




--------------------------------------- Iteration      1(  23)  ---------------------------------------


    POTLOK:  cpu time    0.0157: real time    0.0159
    SETDIJ:  cpu time    0.0081: real time    0.0081
     EDDAV:  cpu time    0.6564: real time    0.6579
       DOS:  cpu time    0.0020: real time    0.0020
    --------------------------------------------
      LOOP:  cpu time    0.6822: real time    0.6839

 eigenvalue-minimisations  :  3320
 total energy-change (2. order) :-0.2506340E-06  (-0.7816706E-06)
 number of electron      45.9999981 magnetization      -0.0000000
 augmentation part       11.6600331 magnetization      -0.0000000

 Free energy of the ion-electron system (eV)
  ---------------------------------------------------
  alpha Z        PSCENC =       453.10565554
  Ewald energy   TEWEN  =     -4853.25068260
  -Hartree energ DENC   =     -1377.76888637
  -exchange      EXHF   =         0.00000000
  -V(xc)+E(xc)   XCENC  =       232.22728605
  PAW double counting   =      5283.72931208    -5591.38562414
  entropy T*S    EENTRO =         0.00903397
  eigenvalues    EBANDS =      -292.59941860
  atomic energy  EATOM  =      6104.32616516
  Solvation  Ediel_sol  =         0.00000000
  ---------------------------------------------------
  free energy    TOTEN  =       -41.60715891 eV

  energy without entropy =      -41.61619288  energy(sigma->0) =      -41.61017023


--------------------------------------------------------------------------------------------------------




 average (electrostatic) potential at core
  the test charge radii are     1.1829  0.7215
  (the norm of the test charge is              1.0000)
       1 -37.4368       2 -37.4368       3 -71.1772       4 -71.1772
 
 
 
 E-fermi :   4.8178     XC(G=0): -11.0357     alpha+bet :-12.2018


 spin component 1

 k-point     1 :       0.0000    0.0000    0.0000
  band No.  band energies     occupation 
      1     -36.3074      1.00000
      2     -33.2531      1.00000
      3     -16.2871      1.00000
      4     -14.7755      1.00000
      5     -14.7744      1.00000
      6     -13.8526      1.00000
      7     -13.6285      1.00000
      8     -12.4750      1.00000
      9     -12.4734      1.00000
     10     -11.4721      1.00000
     11      -1.0301      1.00000
     12       0.0190      1.00000
     13       0.0191      1.00000
     14       1.1156      1.00000
     15       1.1158      1.00000
     16       1.1182      1.00000
     17       4.3865      1.00000
     18       4.5674      1.00113
     19       4.5683      1.00118
     20       4.7095      1.03173
     21       4.7572      0.92281
     22       4.8244      0.44464
     23       4.8248      0.44120
     24       5.3494     -0.00000
     25       7.0652     -0.00000
     26       7.1719     -0.00000
     27       7.1720     -0.00000
     28       7.9425      0.00000

 k-point     2 :       0.2000    0.0000   -0.0000
  band No.  band energies     occupation 
      1     -36.2826      1.00000
      2     -33.2216      1.00000
      3     -16.0247      1.00000
      4     -15.4170      1.00000
      5     -14.8429      1.00000
      6     -13.9446      1.00000
      7     -13.6790      1.00000
      8     -12.5604      1.00000
      9     -12.1989      1.00000
     10     -11.7797      1.00000
     11      -0.4861      1.00000
     12       0.1195      1.00000
     13       0.2042      1.00000
     14       0.5506      1.00000
     15       0.8864      1.00000
     16       0.9538      1.00000
     17       4.3998      1.00000
     18       4.5421      1.00034
     19       4.5583      1.00075
     20       4.6352      1.01343
     21       4.6604      1.02424
     22       4.6939      1.03543
     23       4.7828      0.77720
     24       6.4202     -0.00000
     25       6.7164     -0.00000
     26       7.5419     -0.00000
     27       8.0105      0.00000
     28       8.1675      0.00000

 k-point     3 :       0.4000    0.0000   -0.0000
  band No.  band energies     occupation 
      1     -36.2421      1.00000
      2     -33.1699      1.00000
      3     -16.0994      1.00000
      4     -15.3877      1.00000
      5     -14.9504      1.00000
      6     -14.7046      1.00000
      7     -13.3220      1.00000
      8     -12.6959      1.00000
      9     -12.5356      1.00000
     10     -11.8729      1.00000
     11      -0.1870      1.00000
     12       0.0140      1.00000
     13       0.4906      1.00000
     14       0.5198      1.00000
     15       0.7020      1.00000
     16       0.8588      1.00000
     17       4.4151      1.00000
     18       4.4938      1.00002
     19       4.5079      1.00005
     20       4.5784      1.00183
     21       4.6010      1.00447
     22       4.6522      1.02050
     23       4.7663      0.87824
     24       5.7114     -0.00000
     25       6.7935     -0.00000
     26       8.2202      0.00000
     27       8.7641      0.00000
     28       9.0203      0.00000

 k-point     4 :       0.0000    0.3333   -0.0000
  band No.  band energies     occupation 
      1     -36.3067      1.00000
      2     -33.2545      1.00000
      3     -16.0743      1.00000
      4     -14.7750      1.00000
      5     -14.7739      1.00000
      6     -14.6839      1.00000
      7     -12.8947      1.00000
      8     -12.4763      1.00000
      9     -12.4748      1.00000
     10     -11.5854      1.00000
     11      -0.6128      1.00000
     12       0.2613      1.00000
     13       0.2615      1.00000
     14       0.4163      1.00000
     15       0.8053      1.00000
     16       0.8055      1.00000
     17       4.3301      1.00000
     18       4.5492      1.00048
     19       4.5500      1.00050
     20       4.7096      1.03173
     21       4.7271      1.01274
     22       4.7849      0.76267
     23       4.7854      0.75937
     24       6.5553     -0.00000
     25       6.7279     -0.00000
     26       7.5961      0.00000
     27       7.5963      0.00000
     28       7.7153      0.00000

 k-point     5 :       0.2000    0.3333    0.0000
  band No.  band energies     occupation 
      1     -36.2821      1.00000
      2     -33.2227      1.00000
      3     -15.9097      1.00000
      4     -15.4991      1.00000
      5     -14.8437      1.00000
      6     -14.1100      1.00000
      7     -13.5779      1.00000
      8     -12.5589      1.00000
      9     -12.1846      1.00000
     10     -11.7569      1.00000
     11      -0.5067      1.00000
     12      -0.1686      1.00000
     13       0.1507      1.00000
     14       0.8883      1.00000
     15       0.9757      1.00000
     16       1.0078      1.00000
     17       4.3246      1.00000
     18       4.5465      1.00042
     19       4.5523      1.00056
     20       4.6378      1.01443
     21       4.6543      1.02143
     22       4.7227      1.01931
     23       4.7849      0.76286
     24       5.6443     -0.00000
     25       6.9921     -0.00000
     26       7.3500     -0.00000
     27       8.2492      0.00000
     28       8.3928      0.00000

 k-point     6 :       0.4000    0.3333   -0.0000
  band No.  band energies     occupation 
      1     -36.2420      1.00000
      2     -33.1700      1.00000
      3     -16.2224      1.00000
      4     -15.4055      1.00000
      5     -14.9554      1.00000
      6     -14.2983      1.00000
      7     -13.4892      1.00000
      8     -12.8005      1.00000
      9     -12.6859      1.00000
     10     -11.6859      1.00000
     11      -0.7320      1.00000
     12       0.0859      1.00000
     13       0.3392      1.00000
     14       0.5716      1.00000
     15       1.1203      1.00000
     16       1.1289      1.00000
     17       4.2528      1.00000
     18       4.4922      1.00002
     19       4.5152      1.00008
     20       4.5738      1.00150
     21       4.6068      1.00550
     22       4.6978      1.03537
     23       4.7292      1.00899
     24       4.7867      0.74979
     25       7.6075      0.00000
     26       8.5067      0.00000
     27       8.6639      0.00000
     28       8.9559      0.00000

 k-point     7 :      -0.4000    0.3333    0.0000
[...]
 -4.027  -0.351  -0.000   0.000   0.000   0.000  -0.000  -0.000
  0.000  -0.000 -15.666  -0.000   0.001   7.376   0.000  -0.001
 -0.000   0.000  -0.000 -15.666   0.000   0.000   7.376  -0.000
 -0.000   0.000   0.001   0.000 -15.666  -0.001  -0.000   7.376
  0.000   0.000   7.376   0.000  -0.001   4.937  -0.000   0.001
 -0.000  -0.000   0.000   7.376  -0.000  -0.000   4.937   0.000
 -0.000  -0.000  -0.001  -0.000   7.376   0.001   0.000   4.936
  0.000   0.000  -0.000   0.000   0.000  -0.000   0.000   0.000
 -0.000   0.000  -0.000   0.000   0.000  -0.000   0.000   0.000
  0.000   0.000  -0.000  -0.000   0.000  -0.000  -0.000   0.000
  0.000   0.000   0.000  -0.000  -0.000   0.000  -0.000  -0.000
 -0.000  -0.000  -0.000  -0.000  -0.000  -0.000  -0.000  -0.000
 -0.001  -0.000  -0.000   0.000   0.000   0.000  -0.000  -0.000
  0.000  -0.000  -0.000   0.000   0.000   0.000  -0.000  -0.000
 -0.000  -0.000   0.000   0.000  -0.000   0.000   0.000  -0.000
 -0.000  -0.000   0.000  -0.000  -0.000  -0.000   0.000   0.000
  0.000   0.000   0.000  -0.000  -0.000   0.000   0.000   0.000
 -0.000   0.000  -0.000  -0.003   0.001   0.000  -0.001  -0.000
 -0.000   0.000   0.000   0.000  -0.003  -0.000  -0.000  -0.001
 -0.000   0.000   0.002  -0.000  -0.000   0.001   0.000   0.000
 -0.000   0.000   0.000  -0.002  -0.000  -0.000  -0.001   0.000
  0.000  -0.000  -0.000   0.000   0.002   0.000  -0.000   0.000
  0.000  -0.000  -0.003  -0.000   0.000  -0.002   0.000  -0.000
  0.000  -0.000  -0.001  -0.000  -0.000   0.000  -0.000   0.000
 -0.000   0.000  -0.000  -0.003   0.001   0.000  -0.001  -0.000
 -0.000   0.000   0.000   0.000  -0.003  -0.000  -0.000  -0.001
 -0.000   0.000   0.002  -0.000  -0.000   0.001   0.000   0.000
 -0.000   0.000   0.000  -0.002  -0.000  -0.000  -0.001   0.000
  0.000  -0.000  -0.000   0.000   0.002   0.000  -0.000   0.000
  0.000  -0.000  -0.003  -0.000   0.000  -0.001   0.000  -0.000
  0.000  -0.000  -0.001  -0.000  -0.000   0.000  -0.000   0.000
 pseudopotential strength for first ion, spin component:           2
-15.721   0.720   0.000  -0.000  -0.000   0.000  -0.000  -0.000
  0.720  -3.402  -0.000   0.000   0.000   0.000  -0.000  -0.000
  0.000  -0.000 -17.545  -0.000   0.001   7.757   0.000  -0.001
 -0.000   0.000  -0.000 -17.545   0.000   0.000   7.757  -0.001
 -0.000   0.000   0.001   0.000 -17.546  -0.001  -0.001   7.758
  0.000   0.000   7.757   0.000  -0.001   5.168  -0.000   0.001
 -0.000  -0.000   0.000   7.757  -0.001  -0.000   5.168   0.001
 -0.000  -0.000  -0.001  -0.001   7.758   0.001   0.001   5.167
  0.000   0.000  -0.000   0.000   0.000  -0.000   0.000   0.000
 -0.000   0.000  -0.000   0.000   0.000  -0.000   0.000   0.000
  0.000   0.000  -0.000  -0.000   0.000  -0.000  -0.000   0.000
  0.000   0.000   0.000  -0.000  -0.000   0.000  -0.000  -0.000
 -0.000  -0.000  -0.000  -0.000  -0.000  -0.000  -0.000  -0.000
 -0.001  -0.000  -0.000   0.000   0.000   0.000  -0.000  -0.000
  0.000  -0.000  -0.000   0.000   0.000   0.000  -0.000  -0.000
 -0.000  -0.000   0.000   0.000  -0.000   0.000   0.000  -0.000
 -0.000  -0.000   0.000  -0.000  -0.000  -0.000   0.000   0.000
  0.000   0.000   0.000  -0.000  -0.000   0.000   0.000   0.000
 -0.000   0.000  -0.000  -0.021   0.000  -0.000   0.011   0.000
 -0.000   0.000   0.000   0.001  -0.026  -0.000  -0.001   0.014
 -0.000   0.000   0.012  -0.000  -0.000  -0.007   0.000   0.000
 -0.000   0.000  -0.000  -0.019   0.000   0.000   0.010  -0.000
  0.000  -0.000  -0.000   0.001   0.012   0.000  -0.001  -0.007
  0.000  -0.000  -0.026  -0.000   0.000   0.014   0.000  -0.000
  0.000  -0.000  -0.001   0.000  -0.001   0.001  -0.000   0.001
 -0.000   0.000  -0.000  -0.020   0.000  -0.000   0.011   0.000
 -0.000   0.000   0.000   0.001  -0.025  -0.000  -0.001   0.014
 -0.000   0.000   0.011  -0.000  -0.000  -0.006   0.000   0.000
 -0.000   0.000  -0.000  -0.018   0.000   0.000   0.010  -0.000
  0.000  -0.000  -0.000   0.001   0.012   0.000  -0.001  -0.006
  0.000  -0.000  -0.025  -0.000   0.000   0.014   0.000  -0.000
  0.000  -0.000  -0.001   0.000  -0.001   0.001  -0.000   0.001
 total augmentation occupancy for first ion, spin component:           1
  1.992  -0.039   0.000   0.000   0.000   0.000   0.000  -0.000   0.000  -0.000   0.000   0.000  -0.000   0.000  -0.000   0.000
 -0.039   0.605   0.000  -0.000   0.000   0.000   0.000   0.000   0.001  -0.000   0.000   0.001  -0.000   0.000  -0.000   0.000
  0.000  -0.000   2.012   0.000  -0.000  -0.020  -0.000   0.000  -0.000   0.000   0.000   0.000   0.000  -0.000   0.000  -0.000
  0.000  -0.000   0.000   2.012  -0.000  -0.000  -0.020   0.000   0.000   0.000   0.000   0.000   0.000   0.000   0.000   0.000
  0.000   0.000  -0.000  -0.000   2.013   0.000   0.000  -0.020   0.000  -0.000   0.000   0.000   0.000   0.000  -0.000   0.000
  0.000   0.000  -0.020  -0.000   0.000   0.020  -0.000   0.000   0.000   0.000   0.000   0.000   0.000   0.000   0.000   0.000
  0.000   0.000  -0.000  -0.020   0.000  -0.000   0.020   0.000   0.000   0.000  -0.000   0.000   0.000   0.000   0.000  -0.000
 -0.000   0.000   0.000   0.000  -0.020   0.000   0.000   0.020  -0.000   0.000   0.000  -0.000  -0.000   0.000  -0.000   0.000
  0.000   0.001   0.000   0.000   0.000   0.000   0.000  -0.000   0.230   0.000  -0.000  -0.082   0.000   0.063   0.000  -0.000
 -0.000  -0.000   0.000  -0.000   0.000   0.000   0.000   0.000   0.000   0.288   0.001   0.000  -0.082   0.000   0.084   0.000
  0.000   0.000   0.000   0.000   0.000  -0.000  -0.000   0.000  -0.000   0.001   0.172  -0.000   0.001  -0.000   0.000   0.041
  0.000   0.001   0.000   0.000   0.000   0.000   0.000   0.000  -0.082   0.000  -0.000   0.288   0.000  -0.031   0.000  -0.000
 -0.000  -0.000   0.000   0.000  -0.000   0.000  -0.000   0.000   0.000  -0.082   0.001   0.000   0.229   0.000  -0.031   0.000
  0.000   0.000  -0.000   0.000   0.000  -0.000  -0.000  -0.000   0.063   0.000  -0.000  -0.031   0.000   0.018   0.000  -0.000
 -0.000  -0.000   0.000   0.000  -0.000   0.000   0.000   0.000   0.000   0.084   0.000   0.000  -0.031   0.000   0.026   0.000
  0.000   0.000   0.000   0.000   0.000   0.000   0.000   0.000  -0.000   0.000   0.041  -0.000   0.000  -0.000   0.000   0.011
  0.000   0.000   0.000  -0.000   0.000   0.000   0.000   0.000  -0.031   0.000  -0.000   0.084   0.000  -0.011   0.000   0.000
 -0.000  -0.000   0.000  -0.000   0.000  -0.000  -0.000   0.000   0.000  -0.031   0.000   0.000   0.063   0.000  -0.011   0.000
  0.000  -0.000  -0.000  -0.120   0.001   0.000   0.082  -0.000  -0.000   0.000   0.000   0.000   0.000  -0.000   0.000   0.000
  0.000   0.000   0.000   0.001  -0.146  -0.000  -0.000   0.101   0.000  -0.000  -0.000  -0.000   0.000   0.000   0.000   0.000
  0.000   0.000   0.066  -0.000  -0.000  -0.045   0.000   0.000   0.000   0.000   0.000   0.000   0.000   0.000   0.000  -0.000
 -0.000   0.000   0.000  -0.107  -0.000  -0.000   0.073   0.000   0.000  -0.000   0.000   0.000  -0.000   0.000   0.000   0.000
  0.000   0.000  -0.000   0.001   0.066   0.000  -0.000  -0.045   0.000  -0.000   0.000   0.000   0.000   0.000  -0.000  -0.000
  0.000   0.000  -0.146  -0.000   0.000   0.101   0.000  -0.000  -0.000   0.000   0.000   0.000   0.000   0.000  -0.000   0.000
 -0.000   0.000  -0.001   0.000  -0.000   0.000  -0.000   0.000   0.000   0.000  -0.000   0.000  -0.000   0.000  -0.000   0.000
  0.000   0.000   0.000   0.121  -0.001  -0.000  -0.076   0.000   0.000   0.000   0.000  -0.000  -0.000   0.000   0.000   0.000
 -0.000   0.000  -0.000  -0.001   0.149   0.000   0.000  -0.093  -0.000  -0.000  -0.000   0.000   0.000   0.000   0.000   0.000
  0.000   0.000  -0.067   0.000   0.000   0.042  -0.000  -0.000   0.000  -0.000   0.000   0.000   0.000   0.000  -0.000   0.000
  0.000   0.000   0.000   0.108   0.000   0.000  -0.068  -0.000   0.000  -0.000   0.000   0.000  -0.000  -0.000   0.000   0.000
  0.000   0.000   0.000  -0.001  -0.067  -0.000   0.000   0.042   0.000   0.000   0.000  -0.000   0.000   0.000   0.000  -0.000
  0.000   0.000   0.149   0.000  -0.000  -0.093  -0.000   0.000   0.000  -0.000   0.000   0.000  -0.000   0.000   0.000   0.000
  0.000   0.000   0.001  -0.000   0.001  -0.000  -0.000  -0.000  -0.000   0.000   0.000   0.000   0.000  -0.000   0.000   0.000
 total augmentation occupancy for first ion, spin component:           2
 -0.042  -0.160   0.000   0.000   0.000  -0.000  -0.000  -0.000  -0.000   0.000  -0.000  -0.000   0.000  -0.000   0.000  -0.000
 -0.160   0.131   0.000   0.000   0.000   0.000   0.000   0.000   0.005  -0.002   0.002   0.004  -0.003   0.001  -0.001   0.001
 -0.000  -0.000  -0.007  -0.000   0.000  -0.044   0.000  -0.000   0.000   0.000   0.000   0.000  -0.000   0.000   0.000   0.000
 -0.000   0.000  -0.000  -0.007   0.000   0.000  -0.044  -0.000   0.000   0.000   0.000   0.000   0.000   0.000   0.000   0.000
  0.000   0.000   0.000   0.000  -0.008  -0.000  -0.000  -0.044   0.000   0.000   0.000  -0.000  -0.000  -0.000   0.000  -0.000
  0.000   0.000  -0.044   0.000  -0.000   0.003  -0.000   0.000  -0.000   0.000  -0.000  -0.000   0.000   0.000   0.000   0.000
  0.000  -0.000   0.000  -0.044  -0.000  -0.000   0.003   0.000   0.000   0.000   0.000  -0.000   0.000   0.000   0.000   0.000
  0.000   0.000  -0.000  -0.000  -0.044   0.000   0.000   0.003   0.000   0.000  -0.000   0.000   0.000   0.000  -0.000   0.000
 -0.000   0.005   0.000   0.000   0.000  -0.000   0.000   0.000   0.036   0.002  -0.003  -0.007   0.001   0.010   0.000  -0.001
  0.000  -0.002   0.000   0.000   0.000  -0.000   0.000   0.000   0.002   0.044  -0.000   0.002  -0.005   0.000   0.012  -0.000
 -0.000   0.002   0.000   0.000   0.000   0.000   0.000   0.000  -0.003  -0.000   0.036  -0.000   0.002  -0.001  -0.000   0.008
 -0.000   0.004   0.000  -0.000   0.000   0.000   0.000   0.000  -0.007   0.002  -0.000   0.041   0.002  -0.003   0.001   0.000
  0.000  -0.003  -0.000   0.000   0.000   0.000   0.000   0.000   0.001  -0.005   0.002   0.002   0.037   0.000  -0.002   0.000
 -0.000   0.001   0.000   0.000   0.000   0.000   0.000   0.000   0.010   0.000  -0.001  -0.003   0.000   0.003   0.000  -0.000
  0.000  -0.001   0.000   0.000   0.000  -0.000   0.000  -0.000   0.000   0.012  -0.000   0.001  -0.002   0.000   0.003  -0.000
 -0.000   0.001   0.000   0.000   0.000   0.000   0.000  -0.000  -0.001  -0.000   0.008   0.000   0.000  -0.000  -0.000   0.002
 -0.000   0.001   0.000  -0.000   0.000   0.000   0.000   0.000  -0.003   0.001   0.000   0.012   0.000  -0.001   0.000   0.000
  0.000  -0.001   0.000   0.000  -0.000   0.000   0.000   0.000   0.000  -0.002   0.000   0.000   0.010   0.000  -0.001   0.000
  0.000   0.000  -0.001  -0.013   0.001   0.001   0.025  -0.002   0.000  -0.000   0.000   0.000   0.000  -0.000  -0.000   0.000
  0.000  -0.000   0.001   0.001  -0.016  -0.002  -0.002   0.031   0.000   0.000   0.000   0.000   0.000   0.000  -0.000  -0.000
 -0.000   0.000   0.007  -0.000  -0.000  -0.014   0.001   0.001   0.000   0.000   0.000   0.000   0.000   0.000   0.000   0.000
  0.000   0.000   0.000  -0.011   0.000  -0.000   0.021   0.000   0.000  -0.000  -0.000   0.000  -0.000   0.000   0.000   0.000
  0.000  -0.000  -0.000   0.001   0.008   0.001  -0.001  -0.015   0.000   0.000   0.000  -0.000   0.000  -0.000   0.000   0.000
  0.000  -0.000  -0.015  -0.001   0.001   0.030   0.001  -0.001   0.000   0.000   0.000   0.000  -0.000   0.000  -0.000   0.000
 -0.000   0.000  -0.001  -0.000  -0.001   0.002  -0.000   0.001   0.000   0.000  -0.000   0.000   0.000   0.000   0.000  -0.000
  0.000  -0.000   0.001  -0.002  -0.001  -0.001  -0.011   0.002   0.000  -0.000   0.000  -0.000  -0.000   0.000  -0.000  -0.000
  0.000   0.000  -0.001  -0.001  -0.001   0.002   0.002  -0.015   0.000  -0.000   0.000   0.000   0.000   0.000  -0.000   0.000
  0.000   0.000   0.001   0.000   0.000   0.007  -0.001  -0.001   0.000  -0.000   0.000   0.000   0.000   0.000   0.000   0.000
  0.000  -0.000  -0.000  -0.002  -0.000   0.000  -0.009  -0.000  -0.000   0.000   0.000  -0.000  -0.000   0.000   0.000   0.000
  0.000  -0.000   0.000  -0.001   0.000  -0.001   0.001   0.007   0.000  -0.000   0.000   0.000   0.000  -0.000  -0.000   0.000
  0.000  -0.000  -0.002   0.001  -0.001  -0.013  -0.001   0.002   0.000   0.000   0.000  -0.000   0.000   0.000   0.000   0.000
  0.000   0.000   0.001   0.000   0.001  -0.002   0.000  -0.001   0.000   0.000   0.000   0.000   0.000  -0.000   0.000   0.000


------------------------ aborting loop because EDIFF is reached ----------------------------------------


 


 total charge     
 
# of ion       s       p       d       f       tot
--------------------------------------------------
    1        2.083   5.888   0.616   6.717  15.304
    2        2.083   5.888   0.616   6.717  15.304
    3        1.557   3.407   0.000   0.000   4.965
    4        1.557   3.407   0.000   0.000   4.965
--------------------------------------------------
tot          7.281  18.591   1.232  13.434  40.538

 


 magnetization (x)
 
# of ion       s       p       d       f       tot
--------------------------------------------------
    1       -0.006  -0.010   0.102   6.612   6.698
    2        0.006   0.010  -0.102  -6.612  -6.698
    3        0.000  -0.000   0.000   0.000  -0.000
    4        0.000  -0.000   0.000   0.000  -0.000
--------------------------------------------------
tot          0.000  -0.000   0.000  -0.000  -0.000

 
    CHARGE:  cpu time    0.0471: real time    0.0472
    FORLOC:  cpu time    0.0008: real time    0.0008
    FORNL :  cpu time    0.1797: real time    0.1801
    STRESS:  cpu time    0.2460: real time    0.2466
    FORCOR:  cpu time    0.0166: real time    0.0167
    FORHAR:  cpu time    0.0021: real time    0.0022
    MIXING:  cpu time    0.0017: real time    0.0017
    OFIELD:  cpu time    0.0000: real time    0.0000

  FORCE on cell =-STRESS in cart. coord.  units (eV):
  Direction    XX          YY          ZZ          XY          YZ          ZX
  --------------------------------------------------------------------------------------
  Alpha Z   453.10566   453.10566   453.10566
  Ewald   -1617.75261 -1617.75125 -1617.75302     0.00351     0.00252    -0.00245
  Hartree   459.16100   459.26904   459.25425     0.06445     0.02103     0.04453
  E(xc)    -244.14806  -244.14001  -244.13888     0.00615    -0.00162     0.00435
  Local     422.71398   422.53547   422.55952    -0.12420    -0.03460    -0.08383
  n-local  -226.47562  -228.26413  -224.68481    -0.48450     0.62767     0.68483
  augment    96.42490    96.44929    96.45174     0.02484    -0.00346     0.01791
  Kinetic   656.79020   665.64438   647.60751     1.43408    -3.10552    -2.27354
  Fock        0.00000     0.00000     0.00000     0.00000     0.00000     0.00000
  -------------------------------------------------------------------------------------
  Total      -0.18056    -0.35591    -0.39368    -0.14175     0.05342    -0.10023
  in kB      -4.41140    -8.69564    -9.61851    -3.46325     1.30509    -2.44891
  external pressure =       -7.58 kB  Pullay stress =        0.00 kB


 VOLUME and BASIS-vectors are now :
 -----------------------------------------------------------------------------
  energy-cutoff  :      500.00
  volume of cell :       65.58
      direct lattice vectors                 reciprocal lattice vectors
     0.000008500 -2.074162400  2.933334000     0.139173204 -0.080355564  0.284089138
     3.592513700 -4.148395800 -2.933334000     0.139173204 -0.080355564 -0.056819875
     1.796384500  3.111279100  0.000000000     0.278346409  0.160700088  0.113630332

  length of vectors
     3.592575402  6.222522861  3.592638990     0.326393682  0.170454380  0.340900416


 FORCES acting on ions
    electron-ion (+dipol)            ewald-force                    non-local-force                 convergence-correction
 -----------------------------------------------------------------------------------------------
   -.288E-05 0.190E-05 -.193E-05   0.280E-04 -.185E-04 0.187E-04   0.000E+00 -.212E-21 0.159E-21   -.497E-08 0.328E-08 -.333E-08
   -.288E-05 0.190E-05 -.193E-05   0.280E-04 -.185E-04 0.187E-04   0.212E-21 -.529E-21 0.000E+00   -.497E-08 0.328E-08 -.333E-08
   -.166E-03 0.110E-03 -.111E-03   -.280E-04 0.185E-04 -.187E-04   -.424E-21 -.847E-21 0.212E-21   -.742E-08 0.486E-08 -.495E-08
   -.166E-03 0.110E-03 -.111E-03   -.280E-04 0.185E-04 -.187E-04   0.635E-21 0.424E-21 0.847E-21   -.742E-08 0.486E-08 -.495E-08
 -----------------------------------------------------------------------------------------------
   -.339E-03 0.224E-03 -.227E-03   0.289E-13 -.411E-15 0.569E-16   0.424E-21 -.116E-20 0.122E-20   -.248E-07 0.163E-07 -.166E-07
 
 
 POSITION                                       TOTAL-FORCE (eV/Angst)
 -----------------------------------------------------------------------------------
      0.00000      0.00000      0.00000        -0.000000     -0.000000      0.000000
      1.79626     -3.11128      0.00000        -0.000000     -0.000000     -0.000000
      1.79633     -1.03708      1.46667        -0.000000     -0.000000     -0.000000
      3.59258     -2.07420     -1.46667         0.000000      0.000000      0.000000
 -----------------------------------------------------------------------------------
    total drift:                               -0.000339      0.000224     -0.000227


--------------------------------------------------------------------------------------------------------



  FREE ENERGIE OF THE ION-ELECTRON SYSTEM (eV)
  ---------------------------------------------------
  free  energy   TOTEN  =       -41.60715891 eV

  energy  without entropy=      -41.61619288  energy(sigma->0) =      -41.61017023
 


--------------------------------------------------------------------------------------------------------


    POTLOK:  cpu time    0.0239: real time    0.0239


--------------------------------------------------------------------------------------------------------


     LOOP+:  cpu time   20.3356: real time   20.4092
    4ORBIT:  cpu time    0.0000: real time    0.0000
 


 total charge     
 
# of ion       s       p       d       f       tot
--------------------------------------------------
    1        2.083   5.888   0.616   6.717  15.304
    2        2.083   5.888   0.616   6.717  15.304
    3        1.557   3.407   0.000   0.000   4.965
    4        1.557   3.407   0.000   0.000   4.965
--------------------------------------------------
tot          7.281  18.591   1.232  13.434  40.538

 


 magnetization (x)
 
# of ion       s       p       d       f       tot
--------------------------------------------------
    1       -0.006  -0.010   0.102   6.612   6.698
    2        0.006   0.010  -0.102  -6.612  -6.698
    3        0.000  -0.000   0.000   0.000  -0.000
    4        0.000  -0.000   0.000   0.000  -0.000
--------------------------------------------------
tot          0.000  -0.000   0.000  -0.000  -0.000

 

 total amount of memory used by VASP MPI-rank0    42344. kBytes
=======================================================================

   base      :      30000. kBytes
   nonl-proj :       5237. kBytes
   fftplans  :        616. kBytes
   grid      :       1491. kBytes
   one-center:         98. kBytes
   wavefun   :       4902. kBytes
 
  
  
 General timing and accounting informations for this job:
 ========================================================
  
                  Total CPU time used (sec):       21.486
                            User time (sec):       21.351
                          System time (sec):        0.136
                         Elapsed time (sec):       22.020
  
                   Maximum memory used (kb):       63516.
                   Average memory used (kb):           0.
  
                          Minor page faults:        20360
                          Major page faults:            0
                 Voluntary context switches:         1424
