       N       E                     dE             d eps       ncg     rms          rms(c)
DAV:   1     0.173440181424E+03    0.17344E+03   -0.15525E+04  3648   0.162E+03
DAV:   2    -0.115167425785E+02   -0.18496E+03   -0.17787E+03  3432   0.344E+02
DAV:   3    -0.162333414006E+02   -0.47166E+01   -0.47105E+01  3816   0.632E+01
DAV:   4    -0.162689857681E+02   -0.35644E-01   -0.35647E-01  3732   0.507E+00
DAV:   5    -0.162696150310E+02   -0.62926E-03   -0.62929E-03  3828   0.631E-01    0.249E+01
DAV:   6    -0.164376106884E+02   -0.16800E+00   -0.74721E+00  3420   0.392E+01    0.690E+00
DAV:   7    -0.165084942069E+02   -0.70884E-01   -0.60951E-01  3396   0.932E+00    0.430E+00
DAV:   8    -0.165202749831E+02   -0.11781E-01   -0.14715E-02  3732   0.140E+00    0.137E+00
DAV:   9    -0.165128170763E+02    0.74579E-02   -0.52623E-03  3600   0.865E-01    0.337E-01
DAV:  10    -0.165127638745E+02    0.53202E-04   -0.21689E-03  3444   0.592E-01    0.436E-02
DAV:  11    -0.165128318430E+02   -0.67968E-04   -0.55898E-05  3588   0.635E-02    0.247E-02
DAV:  12    -0.165128387827E+02   -0.69397E-05   -0.43521E-06  3780   0.203E-02    0.946E-03
DAV:  13    -0.165128309486E+02    0.78341E-05   -0.16162E-06  3552   0.120E-02    0.142E-03
DAV:  14    -0.165128306867E+02    0.26194E-06   -0.90664E-08  2796   0.229E-03    0.662E-04
DAV:  15    -0.165128308193E+02   -0.13261E-06   -0.77523E-09  1740   0.917E-04    0.280E-04
DAV:  16    -0.165128305885E+02    0.23081E-06   -0.86479E-10  1704   0.275E-04    0.118E-04
DAV:  17    -0.165128307022E+02   -0.11366E-06   -0.17640E-10  1680   0.129E-04    0.293E-05
DAV:  18    -0.165128306996E+02    0.25393E-08   -0.22906E-11  1680   0.450E-05
   1 F= -.16512831E+02 E0= -.16512831E+02  d E =0.000000E+00  mag=     4.4054
