=========================================
SLURM_JOB_ID = 63455430
SLURM_JOB_NODELIST = lnode56
SLURM_GPUS = 
SLURM_CPUS_ON_NODE = 8
SLURM_JOB_PARTITION = lenovo
SLURM_TASK_PID = 2494272
CUDA_VISIBLE_DEVICES = 
==========================================
 running on    8 total cores
 distrk:  each k-point on    8 cores,    1 groups
 distr:  one band on    4 cores,    2 groups
 using from now: INCAR     
 vasp.5.4.4.18Apr17-6-g9f103f2a35 (build Apr 28 2018 00:24:27) complex          
  
 POSCAR found type information on POSCAR  Co
 POSCAR found :  1 types and       2 ions
 scaLAPACK will be used

 ----------------------------------------------------------------------------- 
|                                                                             |
|  ADVICE TO THIS USER RUNNING 'VASP/VAMP'   (HEAR YOUR MASTER'S VOICE ...):  |
|                                                                             |
|      You have a (more or less) 'small supercell' and for smaller cells      |
|      it is recommended  to use the reciprocal-space projection scheme!      |
|      The real space optimization is not  efficient for small cells and it   |
|      is also less accurate ...                                              |
|      Therefore set LREAL=.FALSE. in the  INCAR file                         |
|                                                                             |
 ----------------------------------------------------------------------------- 

 LDA part: xc-table for Pade appr. of Perdew
 POSCAR, INCAR and KPOINTS ok, starting setup
 FFT: planning ...
 WAVECAR not read
 entering main loop
       N       E                     dE             d eps       ncg     rms          rms(c)
DAV:   1     0.937060947077E+02    0.93706E+02   -0.96096E+03  4280   0.203E+03
DAV:   2    -0.136396624549E+02   -0.10735E+03   -0.10048E+03  4262   0.295E+02
DAV:   3    -0.161917727873E+02   -0.25521E+01   -0.24674E+01  4796   0.662E+01
DAV:   4    -0.162269912876E+02   -0.35219E-01   -0.35244E-01  5968   0.608E+00
DAV:   5    -0.162274323212E+02   -0.44103E-03   -0.44198E-03  5048   0.647E-01    0.145E+01
DAV:   6    -0.142634318814E+02    0.19640E+01   -0.16530E+01  4460   0.844E+01    0.796E+00
DAV:   7    -0.139286825500E+02    0.33475E+00   -0.22964E+00  4664   0.301E+01    0.482E+00
DAV:   8    -0.140782470380E+02   -0.14956E+00   -0.15134E-01  5796   0.641E+00    0.217E+00
DAV:   9    -0.140353337000E+02    0.42913E-01   -0.34408E-02  6170   0.282E+00    0.237E+00
DAV:  10    -0.140251129540E+02    0.10221E-01   -0.95817E-04  6094   0.453E-01    0.266E+00
DAV:  11    -0.140698148013E+02   -0.44702E-01   -0.32486E-02  5252   0.304E+00    0.425E-01
DAV:  12    -0.140702625997E+02   -0.44780E-03   -0.97824E-04  6108   0.386E-01    0.155E-01
DAV:  13    -0.140700590893E+02    0.20351E-03   -0.16835E-04  5660   0.213E-01    0.877E-03
DAV:  14    -0.140700470789E+02    0.12010E-04   -0.63371E-06  4816   0.286E-02    0.845E-03
DAV:  15    -0.140700534379E+02   -0.63590E-05   -0.32215E-07  4810   0.734E-03    0.451E-03
DAV:  16    -0.140700615520E+02   -0.81141E-05   -0.18616E-07  3096   0.653E-03    0.503E-04
DAV:  17    -0.140700609076E+02    0.64436E-06   -0.11045E-08  2290   0.140E-03    0.379E-04
DAV:  18    -0.140700618506E+02   -0.94294E-06   -0.29816E-09  2284   0.817E-04    0.713E-05
DAV:  19    -0.140700618003E+02    0.50228E-07   -0.82052E-10  2212   0.314E-04
   1 F= -.14070062E+02 E0= -.14070062E+02  d E =0.000000E+00  mag=     3.1560
