       N       E                     dE             d eps       ncg     rms          rms(c)
DAV:   1     0.455558405211E+03    0.45556E+03   -0.18435E+04 67064   0.357E+03
DAV:   2     0.517808104295E+02   -0.40378E+03   -0.37745E+03 80972   0.434E+02
DAV:   3    -0.335248384114E+02   -0.85306E+02   -0.83474E+02 94348   0.270E+02
DAV:   4    -0.406130129430E+02   -0.70882E+01   -0.68496E+01100268   0.669E+01
DAV:   5    -0.412890115734E+02   -0.67600E+00   -0.64913E+00103168   0.177E+01    0.264E+01
DAV:   6    -0.452719180817E+02   -0.39829E+01   -0.24887E+02 85736   0.160E+02    0.344E+01
DAV:   7    -0.406154247345E+02    0.46565E+01   -0.93638E+01 82888   0.153E+02    0.160E+01
DAV:   8    -0.418844868633E+02   -0.12691E+01   -0.13301E+01 96688   0.325E+01    0.635E+00
DAV:   9    -0.416725913053E+02    0.21190E+00   -0.57168E+00 97640   0.198E+01    0.575E+00
DAV:  10    -0.416817509697E+02   -0.91597E-02   -0.68785E-01102696   0.781E+00    0.373E+00
DAV:  11    -0.416474525622E+02    0.34298E-01   -0.32155E-01 95884   0.542E+00    0.261E+00
DAV:  12    -0.416173942239E+02    0.30058E-01   -0.15346E-01 87188   0.379E+00    0.637E-01
DAV:  13    -0.416209173373E+02   -0.35231E-02   -0.29305E-02108956   0.170E+00    0.602E-01
DAV:  14    -0.416193821784E+02    0.15352E-02   -0.62189E-03103368   0.893E-01    0.271E-01
DAV:  15    -0.416197966282E+02   -0.41445E-03   -0.17088E-03106264   0.375E-01    0.253E-01
DAV:  16    -0.416196034799E+02    0.19315E-03   -0.10621E-03 89560   0.344E-01    0.338E-02
DAV:  17    -0.416196140729E+02   -0.10593E-04   -0.89554E-05105152   0.137E-01    0.237E-02
DAV:  18    -0.416196249362E+02   -0.10863E-04   -0.33942E-05 99208   0.668E-02    0.254E-02
DAV:  19    -0.416196221383E+02    0.27979E-05   -0.13407E-05 58684   0.353E-02    0.100E-02
DAV:  20    -0.416196230418E+02   -0.90343E-06   -0.49220E-06 40704   0.286E-02
   1 F= -.41619623E+02 E0= -.41619623E+02  d E =0.000000E+00  mag=    -0.0001
