unknown system                          
   1.00000000000000     
     3.592646    0.000000    0.000000
     1.796385    3.111279    0.000000
     1.796393    1.037117    2.933334
   Eu   O 
     1     1
Direct
  0.000000  0.000000  0.000000
  0.500000  0.500000  0.500000
 
   56   56   56
 0.12419498657E+09 0.99561313531E+05 0.24283085777E+05 0.46216173688E+04 0.28258353904E+04
 0.17479601431E+04 0.86004707537E+03 0.37441364036E+03 0.15406782290E+03 0.61992332023E+02
 0.24809977289E+02 0.99514016232E+01 0.40138903529E+01 0.16312613371E+01 0.66735078350E+00
 0.27501083300E+00 0.11407624614E+00 0.47605424850E-01 0.19983316389E-01 0.84373381955E-02
 0.35777562694E-02 0.15196159156E-02 0.65159107351E-03 0.27727357905E-03 0.12126452076E-03
 0.50918805967E-04 0.24297754188E-04 0.10503994378E-04 0.95033647085E-05 0.10503994224E-04
 0.24297753986E-04 0.50918806032E-04 0.12126452076E-03 0.27727357894E-03 0.65159107348E-03
 0.15196159157E-02 0.35777562694E-02 0.84373381953E-02 0.19983316389E-01 0.47605424851E-01
 0.11407624614E+00 0.27501083300E+00 0.66735078350E+00 0.16312613371E+01 0.40138903529E+01
 0.99514016232E+01 0.24809977289E+02 0.61992332023E+02 0.15406782290E+03 0.37441364036E+03
 0.86004707537E+03 0.17479601431E+04 0.28258353904E+04 0.46216173688E+04 0.24283085777E+05
 0.99561313531E+05 0.99561735678E+05 0.37539775729E+05 0.74494464127E+04 0.32203408764E+04
 0.22092596938E+04 0.11928503295E+04 0.54636716956E+03 0.23076320102E+03 0.94027709396E+02
 0.37827571710E+02 0.15198643326E+02 0.61306944999E+01 0.24887080898E+01 0.10167808383E+01
 0.41833126288E+00 0.17326197956E+00 0.72191840059E-01 0.30248338235E-01 0.12747156044E-01
 0.53974157327E-02 0.22960482306E-02 0.97894560241E-03 0.41963505356E-03 0.18024377945E-03
 0.77947558817E-04 0.34139727906E-04 0.15780400901E-04 0.90963391504E-05 0.91000844645E-05
 0.15793294450E-04 0.34076006597E-04 0.78003936883E-04 0.18023798388E-03 0.41967914457E-03
 0.97892790689E-03 0.22961510831E-02 0.53975220713E-02 0.12747587871E-01 0.30249197238E-01
 0.72194120878E-01 0.17326713810E+00 0.41834411894E+00 0.10168119377E+01 0.24887849263E+01
 0.61308858452E+01 0.15199120767E+02 0.37828763131E+02 0.94030648446E+02 0.23077025437E+03
 0.54638284835E+03 0.11928798306E+04 0.22092975042E+04 0.32203783873E+04 0.74498464713E+04
 0.37541420596E+05 0.99565558504E+05 0.24283249153E+05 0.74494729197E+04 0.33955511291E+04
 0.24556718530E+04 0.14479283883E+04 0.70716829344E+03 0.31139928037E+03 0.13027070992E+03
 0.53296788840E+02 0.21646818172E+02 0.87953673175E+01 0.35878536541E+01 0.14711052079E+01
 0.60687665031E+00 0.25189019828E+00 0.10512195049E+00 0.44092125973E-01 0.18588347502E-01
 0.78829599468E-02 0.33559124617E-02 0.14298246855E-02 0.61506095438E-03 0.26244217761E-03
 0.11505286283E-03 0.48421288221E-04 0.23131430306E-04 0.10067936332E-04 0.91024264536E-05
 0.10032817744E-04 0.23162580017E-04 0.48411461284E-04 0.11505221662E-03 0.26243139756E-03
 0.61513187046E-03 0.14298592147E-02 0.33561338072E-02 0.78833512235E-02 0.18589557771E-01
 0.44094752690E-01 0.10512843446E+00 0.25190529042E+00 0.60691367053E+00 0.14711952324E+01
 0.35880743924E+01 0.87959136490E+01 0.21648166878E+02 0.53300099959E+02 0.13027867630E+03
 0.31141759746E+03 0.70720635247E+03 0.14479922775E+04 0.24557403178E+04 0.33956343891E+04
 0.74501130362E+04 0.24284728593E+05 0.37541602250E+05 0.46216443159E+04 0.32203456107E+04
 0.24556742158E+04 0.15429803565E+04 0.80560102531E+03 0.37440242641E+03 0.16303329586E+03
 0.68667504911E+02 0.28489137256E+02 0.11760120316E+02 0.48562487813E+01 0.20098127658E+01
 0.83563374474E+00 0.34909845753E+00 0.14647109370E+00 0.61707286956E-01 0.26091136895E-01
 0.11101047342E-01 0.47338250464E-02 0.20265433714E-02 0.87039047719E-03 0.37458981893E-03
 0.16217724761E-03 0.70180752208E-04 0.31043900557E-04 0.14309198985E-04 0.83464801964E-05
 0.83376399608E-05 0.14314912632E-04 0.31043394784E-04 0.70182537477E-04 0.16220050533E-03
 0.37462856378E-03 0.87046590278E-03 0.20267429598E-02 0.47342558200E-02 0.11102016937E-01
 0.26093415903E-01 0.61712640732E-01 0.14648427286E+00 0.34912960794E+00 0.83570927982E+00
 0.20099958433E+01 0.48566945259E+01 0.11761199548E+02 0.28491744745E+02 0.68673727493E+02
 0.16304767601E+03 0.37443365280E+03 0.80566095766E+03 0.15430712625E+04 0.24557640754E+04
 0.32204259948E+04 0.46218883484E+04 0.74501572216E+04 0.74499171637E+04 0.28258428824E+04
 0.22092666530E+04 0.14479326215E+04 0.80560242919E+03 0.39840506861E+03 0.18278248099E+03
 0.80233352324E+02 0.34381515672E+02 0.14555095154E+02 0.61304994017E+01 0.25795009934E+01
 0.10865925371E+01 0.45863262722E+00 0.19416601052E+00 0.82472329816E-01 0.35156032546E-01
 0.15019241238E-01 0.64414473728E-02 0.27734432755E-02 0.11930208991E-02 0.51777375016E-03
 0.22273777556E-03 0.98340544193E-04 0.41723043605E-04 0.20029047376E-04 0.87654876124E-05
 0.79429753285E-05 0.88035075760E-05 0.20020605237E-04 0.41724551167E-04 0.98355455569E-04
 0.22272148080E-03 0.51781700179E-03 0.11931633179E-02 0.27737688476E-02 0.64422232007E-02
 0.15021007999E-01 0.35160253653E-01 0.82482092759E-01 0.19418909939E+00 0.45868727230E+00
 0.10867225225E+01 0.25798083659E+01 0.61312331607E+01 0.14556828588E+02 0.34385569903E+02
 0.80242633155E+02 0.18280281605E+03 0.39844620281E+03 0.80567507447E+03 0.14480348450E+04
 0.22093674794E+04 0.28259107246E+04 0.32204301378E+04 0.33956435846E+04 0.32203872645E+04
 0.17479703640E+04 0.11928574373E+04 0.70717197098E+03 0.37440384110E+03 0.18278284188E+03
 0.84561036947E+02 0.37826421448E+02 0.16582851966E+02 0.71856439990E+01 0.30938542039E+01
 0.13283336986E+01 0.56998827308E+00 0.24467238223E+00 0.10511856886E+00 0.45228367787E-01
 0.19504457626E-01 0.84373543693E-02 0.36542968786E-02 0.15832270229E-02 0.68963948539E-03
 0.29923788160E-03 0.13148725698E-03 0.56970974483E-04 0.25753390202E-04 0.11749290373E-04
 0.70516022571E-05 0.69500161284E-05 0.11847384086E-04 0.25694826426E-04 0.57061764095E-04
 0.13140185496E-03 0.29939483345E-03 0.68966256975E-03 0.15835725011E-02 0.36547361992E-02
 0.84386696013E-02 0.19507107150E-01 0.45234971654E-01 0.10513352706E+00 0.24470794727E+00
 0.57007098946E+00 0.13285274907E+01 0.30943058797E+01 0.71866827966E+01 0.16585235872E+02
 0.37831752537E+02 0.84572575577E+02 0.18280644535E+03 0.37444787930E+03 0.70724333351E+03
 0.11929513048E+04 0.17480629184E+04 0.22093716549E+04 0.24557716363E+04 0.24557502415E+04
 0.22093086390E+04 0.86005479931E+03 0.54637183143E+03 0.31140159211E+03 0.16303424866E+03
 0.80233672575E+02 0.37826497642E+02 0.17327984996E+02 0.77857914150E+01 0.34572327282E+01
 0.15223974285E+01 0.66730925207E+00 0.29172676741E+00 0.12736663482E+00 0.55603106367E-01
 0.24257606642E-01 0.10601876308E-01 0.46320671129E-02 0.20263217400E-02 0.88771575217E-03
 0.38877844541E-03 0.17110876540E-03 0.74935819242E-04 0.33546166940E-04 0.14921286234E-04
 0.79033014966E-05 0.54767102088E-05 0.78888951185E-05 0.14928419768E-04 0.33518198851E-04
 0.74974548563E-04 0.17113609438E-03 0.38883849919E-03 0.88783094590E-03 0.20266856160E-02
 0.46328311621E-02 0.10603771470E-01 0.24261749789E-01 0.55612888737E-01 0.12738858914E+00
 0.29177704383E+00 0.66742370794E+00 0.15226575197E+01 0.34578198844E+01 0.77870913106E+01
 0.17330832340E+02 0.37832519188E+02 0.80245852626E+02 0.16305725792E+03 0.31144084458E+03
 0.54642972815E+03 0.86012474414E+03 0.11929545628E+04 0.14480419009E+04 0.15430813018E+04
 0.14480035666E+04 0.11928901964E+04 0.37441797303E+03 0.23076569339E+03 0.13027194702E+03
 0.68668043889E+02 0.34381720873E+02 0.16582918466E+02 0.77858069696E+01 0.35877519967E+01
 0.16311631646E+01 0.73457863692E+00 0.32870910743E+00 0.14646741805E+00 0.64994544016E-01
 0.28784271327E-01 0.12745781475E-01 0.56406212812E-02 0.24957030883E-02 0.11026110054E-02
 0.48798975088E-03 0.21571664262E-03 0.95632428145E-04 0.42457473829E-04 0.19093128574E-04
 0.90596880198E-05 0.53243606422E-05 0.53996046821E-05 0.90185508011E-05 0.19142162748E-04
 0.42427997138E-04 0.95700016535E-04 0.21571280947E-03 0.48818575680E-03 0.11027922401E-02
 0.24962414300E-02 0.56415872524E-02 0.12748271130E-01 0.28789709209E-01 0.65007252808E-01
 0.14649610977E+00 0.32877356342E+00 0.73472161163E+00 0.16314768585E+01 0.35884284760E+01
 0.77872475292E+01 0.16585905097E+02 0.34387634226E+02 0.68679147487E+02 0.13029111734E+03
 0.23079531744E+03 0.37445720832E+03 0.54643145991E+03 0.70724753688E+03 0.80568169338E+03
 0.80566898045E+03 0.70721423339E+03 0.54638924199E+03 0.15406994281E+03 0.94028912489E+02
 0.53297398347E+02 0.28489415106E+02 0.14555209963E+02 0.71856866204E+01 0.34572464700E+01
 0.16311663945E+01 0.75864544734E+00 0.34908798660E+00 0.15923108288E+00 0.72186810038E-01
 0.32599855979E-01 0.14671710432E-01 0.65872065131E-02 0.29538925243E-02 0.13194063300E-02
 0.59128159608E-03 0.26290222632E-03 0.11852965985E-03 0.52017658689E-04 0.24289548896E-04
 0.10332753263E-04 0.62338737905E-05 0.36337830291E-05 0.62082004576E-05 0.10322703719E-04
 0.24319589819E-04 0.51980186858E-04 0.11858423552E-03 0.26293389639E-03 0.59142623503E-03
 0.13196472690E-02 0.29546621224E-02 0.65886362671E-02 0.14675115098E-01 0.32607033312E-01
 0.72202815311E-01 0.15926555911E+00 0.34916273948E+00 0.75880833725E+00 0.16315091497E+01
 0.34579586392E+01 0.71871111727E+01 0.14557982332E+02 0.28494539469E+02 0.53306229029E+02
 0.94042747862E+02 0.15408914005E+03 0.23079609642E+03 0.31144286764E+03 0.37445132809E+03
 0.39845074586E+03 0.37443851629E+03 0.31142193226E+03 0.23077352572E+03 0.61993304663E+02
 0.37828125875E+02 0.21647104859E+02 0.11760256548E+02 0.61305592568E+01 0.30938784949E+01
 0.15224064041E+01 0.73458152066E+00 0.34908866093E+00 0.16375814181E+00 0.76116582534E-01
 0.35156671680E-01 0.16112883993E-01 0.73683064555E-02 0.33546660490E-02 0.15205319501E-02
 0.68930545824E-03 0.31076423282E-03 0.14072045058E-03 0.63150937481E-04 0.28745601065E-04
 0.13031196160E-04 0.63250208682E-05 0.37981880560E-05 0.36729167882E-05 0.64752439665E-05
 0.12889555925E-04 0.28888192304E-04 0.63062943319E-04 0.14091194349E-03 0.31068958390E-03
 0.68964142886E-03 0.15206694621E-02 0.33556166462E-02 0.73697700724E-02 0.16116935452E-01
 0.35164907320E-01 0.76134905209E-01 0.16379660548E+00 0.34916909091E+00 0.73475097711E+00
 0.15227469653E+01 0.30945508935E+01 0.61318353417E+01 0.11762569153E+02 0.21651049821E+02
 0.37834336081E+02 0.62002112525E+02 0.94043072563E+02 0.13029199722E+03 0.16305884618E+03
 0.18280869125E+03 0.18280542284E+03 0.16305021706E+03 0.13028079327E+03 0.94032176240E+02
 0.24810409388E+02 0.15198891989E+02 0.87954990900E+01 0.48563136872E+01 0.25795306814E+01
 0.13283465349E+01 0.66731443499E+00 0.32871102617E+00 0.15923169413E+00 0.76116729136E-01
 0.36056303959E-01 0.16893502600E-01 0.78833039938E-02 0.36538844371E-02 0.16833217171E-02
 0.77457273603E-03 0.35366516318E-03 0.16247597383E-03 0.73292952850E-04 0.34159088237E-04
 0.14947877096E-04 0.76833382597E-05 0.33496377512E-05 0.33452096974E-05 0.33459980306E-05
 0.76789402634E-05 0.14891660997E-04 0.34234029659E-04 0.73207778820E-04 0.16262286831E-03
 0.35368985722E-03 0.77494093766E-03 0.16836517584E-02 0.36551051072E-02 0.78852536959E-02
 0.16898244888E-01 0.36065757577E-01 0.76136408717E-01 0.15927225171E+00 0.32879229210E+00
 0.66747688470E+00 0.13286558018E+01 0.25801066630E+01 0.48573473798E+01 0.87972394288E+01
 0.15201621240E+02 0.24814323408E+02 0.37834467721E+02 0.53306594805E+02 0.68679834815E+02
 0.80246877613E+02 0.84573849965E+02 0.80243978393E+02 0.68674953800E+02 0.53301075242E+02
 0.37829448937E+02 0.99515912281E+01 0.61308050063E+01 0.35879130577E+01 0.20098429719E+01
 0.10866070364E+01 0.56999478357E+00 0.29172956886E+00 0.14646854877E+00 0.72187224301E-01
 0.35156807054E-01 0.16893534620E-01 0.80640221709E-02 0.38138504567E-02 0.17905479987E-02
 0.83713907532E-03 0.38883135400E-03 0.18040584853E-03 0.83126194569E-04 0.38362122914E-04
 0.17648709419E-04 0.81992712002E-05 0.41225945222E-05 0.23605842237E-05 0.26155653733E-05
 0.38497771841E-05 0.84930038427E-05 0.17397247584E-04 0.38656951952E-04 0.82895400525E-04
 0.18074520508E-03 0.38855590997E-03 0.83765575651E-03 0.17906430190E-02 0.38151880383E-02
 0.80658861901E-02 0.16898321723E-01 0.35166428538E-01 0.72206178195E-01 0.14650826580E+00
 0.29180402128E+00 0.57013749878E+00 0.10868685654E+01 0.20102993762E+01 0.35886715477E+01
 0.61319977868E+01 0.99533075879E+01 0.15201673998E+02 0.21651198782E+02 0.28494827485E+02
 0.34388082029E+02 0.37833108076E+02 0.37832417620E+02 0.34386222907E+02 0.28492310611E+02
 0.21648602526E+02 0.15199422188E+02 0.40139733340E+01 0.24887566322E+01 0.14711320832E+01
 0.83564763091E+00 0.45863952752E+00 0.24467559965E+00 0.12736808959E+00 0.64995157335E-01
 0.32600105124E-01 0.16112975262E-01 0.78833338598E-02 0.38138575682E-02 0.18273374119E-02
 0.87057116556E-03 0.41105343953E-03 0.19394592828E-03 0.90372631471E-04 0.42637589451E-04
 0.19489389793E-04 0.94957601322E-05 0.41558666620E-05 0.26290948589E-05 0.15384837263E-05
 0.26427217318E-05 0.41487968371E-05 0.95151276586E-05 0.19410455356E-04 0.42724885671E-04
 0.90307641743E-04 0.19416674728E-03 0.41118258848E-03 0.87101424650E-03 0.18278632677E-02
 0.38151245762E-02 0.78859149369E-02 0.16117493184E-01 0.32610618932E-01 0.65012388482E-01
 0.12740467586E+00 0.24473903351E+00 0.45875662827E+00 0.83584894555E+00 0.14714657014E+01
 0.24892726423E+01 0.40147251536E+01 0.61320189721E+01 0.87972998386E+01 0.11762688384E+02
 0.14558173724E+02 0.16586168384E+02 0.17331146748E+02 0.16585565660E+02 0.14557134789E+02
 0.11761455011E+02 0.87961058313E+01 0.61310175367E+01 0.16312977293E+01 0.10168023868E+01
 0.60688866038E+00 0.34910480435E+00 0.19416925837E+00 0.10512013227E+00 0.55603841992E-01
 0.28784596740E-01 0.14671847063E-01 0.73683620819E-02 0.36539050465E-02 0.17905548403E-02
 0.87057285138E-03 0.41931066257E-03 0.20091597651E-03 0.95544827842E-04 0.45238239638E-04
 0.21363810075E-04 0.99906597793E-05 0.48589378969E-05 0.23059010956E-05 0.16202709842E-05
 0.13508511548E-05 0.25747806052E-05 0.45902146122E-05 0.10273352090E-04 0.21135626418E-04
 0.45509414930E-04 0.95301818542E-04 0.20115389858E-03 0.41908208746E-03 0.87095040247E-03
 0.17909260500E-02 0.36548313281E-02 0.73709042991E-02 0.14675205255E-01 0.28794269287E-01
 0.55618587469E-01 0.10515052303E+00 0.19422213434E+00 0.34919274859E+00 0.60703491993E+00
 0.10170288489E+01 0.16316275691E+01 0.24892811308E+01 0.35886959246E+01 0.48573966064E+01
 0.61319163963E+01 0.71872259498E+01 0.77873911410E+01 0.77872504769E+01 0.71868401952E+01
 0.61313740706E+01 0.48568086583E+01 0.35881581729E+01 0.24888419572E+01 0.66736665752E+00
 0.41834074582E+00 0.25189556267E+00 0.14647403050E+00 0.82473848462E-01 0.45229119666E-01
 0.24257963978E-01 0.12745946345E-01 0.65872803477E-02 0.33546975934E-02 0.16833341839E-02
 0.83714378484E-03 0.41105503879E-03 0.20091646929E-03 0.96924848583E-04 0.46905346425E-04
 0.22234364371E-04 0.10820903526E-04 0.49946054747E-05 0.26590909299E-05 0.12627815919E-05
 0.11720834706E-05 0.12665595353E-05 0.26322639794E-05 0.50236626440E-05 0.10790601796E-04
 0.22246522874E-04 0.46959777789E-04 0.97035412191E-04 0.20104494352E-03 0.41149241411E-03
 0.83726666868E-03 0.16844696614E-02 0.33551278224E-02 0.65908769325E-02 0.12748479236E-01
 0.24267018175E-01 0.45241530914E-01 0.82496573143E-01 0.14651502953E+00 0.25195848952E+00
 0.41843922267E+00 0.66751060211E+00 0.10170323131E+01 0.14714756862E+01 0.20103196090E+01
 0.25801406011E+01 0.30946007894E+01 0.34580234384E+01 0.35885031253E+01 0.34578984255E+01
 0.30943800665E+01 0.25798719921E+01 0.20100462822E+01 0.14712320929E+01 0.10168369503E+01
 0.27501777379E+00 0.17326616397E+00 0.10512434976E+00 0.61708601983E-01 0.35156739780E-01
 0.19504816674E-01 0.10602051667E-01 0.56407046933E-02 0.29539307634E-02 0.15205489456E-02
 0.77457980129E-03 0.38883420143E-03 0.19394691651E-03 0.95545196459E-04 0.46905382917E-04
 0.22780067663E-04 0.11015569644E-04 0.53264913672E-05 0.25512935590E-05 0.13453030709E-05
 0.81574577420E-06 0.90111262334E-06 0.12872687160E-05 0.26349919979E-05 0.52451856007E-05
 0.11099557810E-04 0.22688673503E-04 0.46867096133E-04 0.95536321203E-04 0.19378375816E-03
 0.38901481219E-03 0.77426156035E-03 0.15217398366E-02 0.29535313347E-02 0.56438047814E-02
 0.10604186943E-01 0.19511109603E-01 0.35168967290E-01 0.61723939520E-01 0.10515344770E+00
 0.17330970598E+00 0.27508032658E+00 0.41844063340E+00 0.60703899713E+00 0.83585727961E+00
 0.10868829306E+01 0.13286772014E+01 0.15227756945E+01 0.16315438248E+01 0.16315147634E+01
 0.15226952244E+01 0.13285617266E+01 0.10867513872E+01 0.83573150024E+00 0.60692975786E+00
 0.41835501263E+00 0.11407929381E+00 0.72193693801E-01 0.44093202788E-01 0.26091736367E-01
 0.15019562173E-01 0.84375229662E-02 0.46321515175E-02 0.24957442413E-02 0.13194258140E-02
 0.68931439116E-03 0.35366921902E-03 0.18040747488E-03 0.90373321454E-04 0.45238484898E-04
 0.22234403410E-04 0.11015701020E-04 0.53489245215E-05 0.26865281751E-05 0.13512457585E-05
 0.77378075489E-06 0.61020728329E-06 0.72304242697E-06 0.13566598378E-05 0.26378071906E-05
 0.54362059701E-05 0.10967661206E-04 0.22427052300E-04 0.45239278071E-04 0.90740246481E-04
 0.18026605976E-03 0.35464230108E-03 0.68878424395E-03 0.13212568114E-02 0.24954781870E-02
 0.46345691439E-02 0.84406440540E-02 0.15022029812E-01 0.26101599088E-01 0.44105127711E-01
 0.72211468703E-01 0.11410777204E+00 0.17331028533E+00 0.25196016644E+00 0.34919620079E+00
 0.45876266793E+00 0.57014665684E+00 0.66748952198E+00 0.73476675144E+00 0.75882626923E+00
 0.73474026949E+00 0.66744152810E+00 0.57008665803E+00 0.45870021226E+00 0.34913940677E+00
 0.25191233172E+00 0.17327190176E+00 0.47606771318E-01 0.30249163885E-01 0.18588832304E-01
 0.11101319767E-01 0.64415966419E-02 0.36543756211E-02 0.20263622220E-02 0.11026311261E-02
 0.59129131859E-03 0.31076881715E-03 0.16247805745E-03 0.83127092619E-04 0.42637993857E-04
 0.21363999997E-04 0.10820851829E-04 0.53266335335E-05 0.26865502577E-05 0.12758906297E-05
 0.72704811781E-06 0.44155258354E-06 0.49176865256E-06 0.72010575369E-06 0.13511732607E-05
 0.26147829683E-05 0.52985556379E-05 0.10685532387E-04 0.21391413220E-04 0.42301485461E-04
 0.83384398799E-04 0.16183539123E-03 0.31138450411E-03 0.59042687781E-03 0.11037653726E-02
 0.20268693031E-02 0.36546538524E-02 0.64462560375E-02 0.11102802709E-01 0.18594033341E-01
 0.30259435876E-01 0.47618266558E-01 0.72211708718E-01 0.10515414270E+00 0.14651649040E+00
 0.19422468239E+00 0.24474295510E+00 0.29180955993E+00 0.32879940528E+00 0.34917734350E+00
 0.34917166644E+00 0.32878259533E+00 0.29178538410E+00 0.24471508635E+00 0.19419489540E+00
 0.14648867076E+00 0.10513152880E+00 0.72196214702E-01 0.19983913231E-01 0.12747517954E-01
 0.78831772965E-02 0.47339487567E-02 0.27735118537E-02 0.15832637914E-02 0.88773479747E-03
 0.48799950710E-03 0.26290699289E-03 0.14072279431E-03 0.73294086303E-04 0.38362615227E-04
 0.19489650596E-04 0.99906943550E-05 0.49944452979E-05 0.25513724107E-05 0.13512608668E-05
 0.72711031813E-06 0.50402175942E-06 0.34859991728E-06 0.46995495296E-06 0.67408504455E-06
 0.13770590639E-05 0.25622939700E-05 0.52179142610E-05 0.99733075252E-05 0.19777569937E-04
 0.38311686892E-04 0.73877297159E-04 0.14040093274E-03 0.26391771734E-03 0.48777472269E-03
 0.88785692363E-03 0.15850084457E-02 0.27720470852E-02 0.47367836961E-02 0.78868942649E-02
 0.12748931999E-01 0.19989488748E-01 0.30259536248E-01 0.44105418430E-01 0.61724542504E-01
 0.82497653558E-01 0.10515220642E+00 0.12740710139E+00 0.14651145479E+00 0.15927605666E+00
 0.16380086579E+00 0.15926997539E+00 0.14650042948E+00 0.12739246947E+00 0.10513677360E+00
 0.82484691701E-01 0.61714558806E-01 0.44096120102E-01 0.30250123246E-01 0.84376022081E-02
 0.53975784416E-02 0.33560097419E-02 0.20265997254E-02 0.11930523459E-02 0.68965651953E-03
 0.38878753403E-03 0.21572113941E-03 0.11853207088E-03 0.63152093780E-04 0.34159605133E-04
 0.17648947358E-04 0.94958211382E-05 0.48590322555E-05 0.26590816419E-05 0.13452835598E-05
 0.77372426636E-06 0.44159340516E-06 0.34855100885E-06 0.37625281091E-06 0.47667217919E-06
 0.76340801220E-06 0.13260686127E-05 0.25009567044E-05 0.47307586560E-05 0.92945568747E-05
 0.17765951879E-04 0.33752678833E-04 0.63593449040E-04 0.11794633442E-03 0.21572610867E-03
 0.38923652876E-03 0.68892791035E-03 0.11956181390E-02 0.20267050410E-02 0.33551699324E-02
 0.54011820228E-02 0.84407548449E-02 0.12748973478E-01 0.18594155987E-01 0.26101853962E-01
 0.35169427592E-01 0.45242256706E-01 0.55619649815E-01 0.65013789826E-01 0.72207923387E-01
 0.76138423135E-01 0.76137066147E-01 0.72204974784E-01 0.65009267522E-01 0.55614686774E-01
 0.45236449250E-01 0.35161421355E-01 0.26094270137E-01 0.18590165114E-01 0.12747991334E-01
 0.35778733129E-02 0.22961211081E-02 0.14298684251E-02 0.87041593044E-03 0.51778810862E-03
 0.29924580961E-03 0.17111301692E-03 0.95634559668E-04 0.52018826998E-04 0.28746110226E-04
 0.14948281310E-04 0.81994347524E-05 0.41558639239E-05 0.23059919670E-05 0.12627559721E-05
 0.81572322385E-06 0.61025507011E-06 0.49180200377E-06 0.46997474048E-06 0.47667398880E-06
 0.61108302592E-06 0.82479908408E-06 0.13921608390E-05 0.24114465708E-05 0.45015123067E-05
 0.82122597273E-05 0.15328600219E-04 0.28659319367E-04 0.52607419554E-04 0.96048009414E-04
 0.17116412994E-03 0.29989799624E-03 0.51622098348E-03 0.87071864659E-03 0.14323316983E-02
 0.22954843074E-02 0.35774382058E-02 0.54011996529E-02 0.78869458851E-02 0.11102910689E-01
 0.15022222494E-01 0.19511423909E-01 0.24267473975E-01 0.28794895947E-01 0.32611416558E-01
 0.35167372744E-01 0.36066801148E-01 0.35165986947E-01 0.32608080395E-01 0.28790661243E-01
 0.24262563199E-01 0.19507780382E-01 0.15021521352E-01 0.11102397470E-01 0.78836201796E-02
 0.53977023952E-02 0.15196676145E-02 0.97897797418E-03 0.61508046126E-03 0.37460152081E-03
 0.22274437187E-03 0.13149087277E-03 0.74937825989E-04 0.42458410332E-04 0.24290056547E-04
 0.13031484638E-04 0.76834685422E-05 0.41228008384E-05 0.26291678617E-05 0.16202760327E-05
 0.11723764481E-05 0.90113736807E-06 0.72306355519E-06 0.72009134702E-06 0.67405577063E-06
 0.76344679931E-06 0.82483189842E-06 0.10989981225E-05 0.14443149150E-05 0.24200094593E-05
 0.38093838482E-05 0.71232994693E-05 0.12793141117E-04 0.23370848611E-04 0.42446055720E-04
 0.75432029050E-04 0.13112480228E-03 0.22375258346E-03 0.37509092994E-03 0.61394325662E-03
 0.97987767060E-03 0.15221057423E-02 0.22954918868E-02 0.33551917223E-02 0.47368298070E-02
 0.64463391237E-02 0.84407789910E-02 0.10604387188E-01 0.12748753924E-01 0.14675559665E-01
 0.16117923373E-01 0.16898810916E-01 0.16898766091E-01 0.16117456979E-01 0.14675606069E-01
 0.12748710662E-01 0.10604147328E-01 0.84389733894E-02 0.64424554588E-02 0.47344254249E-02
 0.33562527260E-02 0.22962314997E-02 0.65161384789E-03 0.41964969041E-03 0.26245106528E-03
 0.16218245130E-03 0.98343559014E-04 0.56972657575E-04 0.33546986946E-04 0.19093712503E-04
 0.10333095692E-04 0.63251897223E-05 0.33497835821E-05 0.23604815958E-05 0.15385731518E-05
 0.13509712473E-05 0.12666198416E-05 0.12873053282E-05 0.13566283027E-05 0.13512469819E-05
 0.13770706628E-05 0.13261430029E-05 0.13922258671E-05 0.14444973137E-05 0.18170316485E-05
 0.22882080945E-05 0.37316867902E-05 0.59950279411E-05 0.10547067636E-04 0.18790462954E-04
 0.32919589176E-04 0.57513957490E-04 0.98323068032E-04 0.16173104576E-03 0.26350911778E-03
 0.41972686322E-03 0.64949438709E-03 0.97988093935E-03 0.14323410436E-02 0.20267246249E-02
 0.27720826837E-02 0.36547120829E-02 0.46346567009E-02 0.56439275530E-02 0.65910380946E-02
 0.73711032151E-02 0.78861457592E-02 0.80661385373E-02 0.78855143991E-02 0.73700245447E-02
 0.65888715737E-02 0.56417933891E-02 0.46330030141E-02 0.36548729933E-02 0.27738730939E-02
 0.20268189873E-02 0.14299121918E-02 0.97896338669E-03 0.27728447424E-03 0.18025027904E-03
 0.11505679909E-03 0.70183141785E-04 0.41724412815E-04 0.25754185041E-04 0.14921862399E-04
 0.90600101856E-05 0.62341293832E-05 0.37983332490E-05 0.33452497498E-05 0.26157375598E-05
 0.26427624390E-05 0.25749106485E-05 0.26325549471E-05 0.26351299624E-05 0.26379099507E-05
 0.26149365630E-05 0.25624177315E-05 0.25010274366E-05 0.24115446793E-05 0.24200496201E-05
 0.22883029897E-05 0.26969928716E-05 0.35568814916E-05 0.54196929106E-05 0.89088106856E-05
 0.14162522817E-04 0.25476073663E-04 0.43284117619E-04 0.70517650863E-04 0.11315103704E-03
 0.18020717455E-03 0.27965579095E-03 0.41972823521E-03 0.61394712977E-03 0.87072705960E-03
 0.11956334476E-02 0.15850336082E-02 0.20269075059E-02 0.24955325670E-02 0.29536037035E-02
 0.33552186135E-02 0.36549388310E-02 0.38152447746E-02 0.38153153938E-02 0.36552330941E-02
 0.33557387608E-02 0.29547729318E-02 0.24963371088E-02 0.20267645368E-02 0.15836345825E-02
 0.11932098844E-02 0.87049962518E-03 0.61515547021E-03 0.41969515023E-03 0.12126909454E-03
 0.77950465327E-04 0.48423063963E-04 0.31044964765E-04 0.20029804319E-04 0.11749589866E-04
 0.79035636571E-05 0.53244295689E-05 0.36338667582E-05 0.36730903422E-05 0.33461203930E-05
 0.38499535179E-05 0.41490263065E-05 0.45904634720E-05 0.50238217252E-05 0.52453741625E-05
 0.54364363048E-05 0.52988149064E-05 0.52181219317E-05 0.47308996096E-05 0.45015766943E-05
 0.38094739972E-05 0.37317146955E-05 0.35569091182E-05 0.42261732972E-05 0.50539821452E-05
 0.67774876378E-05 0.11763449522E-04 0.19213304856E-04 0.31083632535E-04 0.49717861533E-04
 0.77948977704E-04 0.12080939197E-03 0.18020772774E-03 0.26351081485E-03 0.37509436822E-03
 0.51622748521E-03 0.68893880978E-03 0.88787368451E-03 0.11037893957E-02 0.13212892163E-02
 0.15217810303E-02 0.16845193619E-02 0.17909830366E-02 0.18279251404E-02 0.17907067024E-02
 0.16837141763E-02 0.15207277306E-02 0.13196989718E-02 0.11028362108E-02 0.88786670655E-03
 0.68969040540E-03 0.51783810106E-03 0.37464377853E-03 0.26244203464E-03 0.18024497817E-03
 0.50920893804E-04 0.34141036052E-04 0.23132262102E-04 0.14309724106E-04 0.87658073821E-05
 0.70519066943E-05 0.54770294684E-05 0.53999844268E-05 0.62084683793E-05 0.64755430185E-05
 0.76793250678E-05 0.84933941756E-05 0.95156110688E-05 0.10273836404E-04 0.10790886561E-04
 0.11100093348E-04 0.10968088279E-04 0.10685975917E-04 0.99736827155E-05 0.92948935196E-05
 0.82124763747E-05 0.71233944621E-05 0.59951675432E-05 0.54197953799E-05 0.50540011916E-05
 0.49222798117E-05 0.67886973580E-05 0.90436061875E-05 0.14278666292E-04 0.23473180946E-04
 0.34183815419E-04 0.51271326258E-04 0.77949237545E-04 0.11315175998E-03 0.16173263865E-03
 0.22375536108E-03 0.29990274619E-03 0.38924387266E-03 0.48778533552E-03 0.59044136489E-03
 0.68880297739E-03 0.77428462000E-03 0.83729363576E-03 0.87098014988E-03 0.87104555563E-03
 0.83768712575E-03 0.77497115608E-03 0.68966911056E-03 0.59145056195E-03 0.48820615540E-03
 0.38885504048E-03 0.29940751289E-03 0.22273082498E-03 0.16220723516E-03 0.11505684738E-03
 0.78007153736E-04 0.24298593790E-04 0.15781051973E-04 0.10068384897E-04 0.83468895844E-05
 0.79433386421E-05 0.69503497982E-05 0.78890801778E-05 0.90188421478E-05 0.10323216011E-04
 0.12890143677E-04 0.14892353031E-04 0.17398083047E-04 0.19411364268E-04 0.21136534930E-04
 0.22247649884E-04 0.22689599917E-04 0.22427927380E-04 0.21392152399E-04 0.19778239536E-04
 0.17766481339E-04 0.15329107298E-04 0.12793395815E-04 0.10547278035E-04 0.89090668024E-05
 0.67775739776E-05 0.67887123825E-05 0.61486264897E-05 0.84461062926E-05 0.12784687613E-04
 0.15599485437E-04 0.21725883101E-04 0.34183906870E-04 0.49718084609E-04 0.70518324206E-04
 0.98324305501E-04 0.13112695502E-03 0.17116738102E-03 0.21573086376E-03 0.26392421910E-03
 0.31139297767E-03 0.35465280697E-03 0.38902732910E-03 0.41150651132E-03 0.41909729428E-03
 0.41119831538E-03 0.38857130037E-03 0.35370438590E-03 0.31070262713E-03 0.26294507085E-03
 0.21572209349E-03 0.17114340734E-03 0.13140749574E-03 0.98359726430E-04 0.70185568308E-04
 0.48413588277E-04 0.34077391746E-04 0.10504481195E-04 0.90968031827E-05 0.91028208558E-05
 0.83379507422E-05 0.88039098350E-05 0.11847979278E-04 0.14929218512E-04 0.19143043809E-04
 0.24320794507E-04 0.28889556733E-04 0.34235578017E-04 0.38658649752E-04 0.42726653970E-04
 0.45511395698E-04 0.46961706491E-04 0.46868953593E-04 0.45240927392E-04 0.42302882269E-04
 0.38312968141E-04 0.33753642143E-04 0.28660164060E-04 0.23371374781E-04 0.18790834325E-04
 0.14162838604E-04 0.11763554240E-04 0.90435833560E-05 0.84460943626E-05 0.96774839164E-05
 0.89819195637E-05 0.10142891028E-04 0.15599573430E-04 0.23473344587E-04 0.31083909341E-04
 0.43284654657E-04 0.57514792668E-04 0.75433601500E-04 0.96050058024E-04 0.11794926244E-03
 0.14040492161E-03 0.16184021470E-03 0.18027187073E-03 0.19379046957E-03 0.20105230626E-03
 0.20116165951E-03 0.19417448622E-03 0.18075268614E-03 0.16262975794E-03 0.14091815991E-03
 0.11858953455E-03 0.95704438310E-04 0.74978033701E-04 0.57064401777E-04 0.41726391008E-04
 0.31044698759E-04 0.23163560520E-04 0.15793994670E-04 0.95034483820E-05 0.91005585179E-05
 0.10033424664E-04 0.14315489750E-04 0.20021314945E-04 0.25696110016E-04 0.33519499805E-04
 0.42429950710E-04 0.51982621584E-04 0.63066127440E-04 0.73210984838E-04 0.82898889380E-04
 0.90311305195E-04 0.95305801714E-04 0.97039142958E-04 0.95539973474E-04 0.90743621501E-04
 0.83386903608E-04 0.73879406595E-04 0.63595194408E-04 0.52608355369E-04 0.42446897822E-04
 0.32920092571E-04 0.25476407160E-04 0.19213775120E-04 0.14278876220E-04 0.12784832521E-04
 0.89816317086E-05 0.69974230428E-05 0.89816307991E-05 0.12784832393E-04 0.14278876325E-04
 0.19213775125E-04 0.25476407215E-04 0.32920092580E-04 0.42446898037E-04 0.52608355369E-04
 0.63595194062E-04 0.73879406601E-04 0.83386903285E-04 0.90743621501E-04 0.95539973529E-04
 0.97039142901E-04 0.95305801654E-04 0.90311305195E-04 0.82898889342E-04 0.73210984822E-04
 0.63066127349E-04 0.51982621561E-04 0.42429950752E-04 0.33519499906E-04 0.25696110070E-04
 0.20021314869E-04 0.14315489834E-04 0.10033425285E-04 0.91005579661E-05 0.10504480817E-04
 0.15793995274E-04 0.23163560376E-04 0.31044698754E-04 0.41726390989E-04 0.57064401875E-04