unknown system                          
   1.00000000000000     
     3.592646    0.000000    0.000000
     1.796385    3.111279    0.000000
     1.796393    1.037117    2.933334
   Eu   O 
     1     1
Direct
  0.000000  0.000000  0.000000
  0.500000  0.500000  0.500000
 
   56   56   56
 0.11772642968E+06 0.28891888851E+03 0.57266526900E+03 0.73689005004E+03 0.64845662642E+03
 0.38179082572E+03 0.23084864458E+03 0.17680479530E+03 0.15534829406E+03 0.13693460807E+03
 0.11559577551E+03 0.93192408874E+02 0.72393394531E+02 0.54748616293E+02 0.40691203629E+02
 0.29971943926E+02 0.22051018676E+02 0.16327347379E+02 0.12260600743E+02 0.93010943898E+01
 0.73878614796E+01 0.60399026405E+01 0.50992503261E+01 0.44569318782E+01 0.40220600060E+01
 0.37370749550E+01 0.35572742892E+01 0.34601790537E+01 0.34282520223E+01 0.34601790537E+01
 0.35572742892E+01 0.37370749550E+01 0.40220600060E+01 0.44569318782E+01 0.50992503261E+01
 0.60399026405E+01 0.73878614796E+01 0.93010943898E+01 0.12260600743E+02 0.16327347379E+02
 0.22051018676E+02 0.29971943926E+02 0.40691203629E+02 0.54748616293E+02 0.72393394531E+02
 0.93192408874E+02 0.11559577551E+03 0.13693460807E+03 0.15534829406E+03 0.17680479530E+03
 0.23084864458E+03 0.38179082572E+03 0.64845662642E+03 0.73689005004E+03 0.57266526900E+03
 0.28891888851E+03 0.28891438555E+03 0.66572669729E+03 0.65328834216E+03 0.73453605155E+03
 0.48546307883E+03 0.27986752782E+03 0.19359331615E+03 0.16364479262E+03 0.14564999500E+03
 0.12573318173E+03 0.10353878103E+03 0.81786766057E+02 0.62600224997E+02 0.46888147127E+02
 0.34669258323E+02 0.25510100335E+02 0.18821370854E+02 0.14032470877E+02 0.10473283891E+02
 0.82274843270E+01 0.66306878917E+01 0.55108693080E+01 0.47376876534E+01 0.42119147238E+01
 0.38608189713E+01 0.36339583048E+01 0.34989431109E+01 0.34359585723E+01 0.34359852535E+01
 0.34989279351E+01 0.36339895195E+01 0.38607959451E+01 0.42119479760E+01 0.47376874556E+01
 0.55109167990E+01 0.66307250120E+01 0.82275744703E+01 0.10473355099E+02 0.14032622568E+02
 0.18821523581E+02 0.25510396340E+02 0.34669577760E+02 0.46888692316E+02 0.62600812429E+02
 0.81787616419E+02 0.10353965924E+03 0.12573399384E+03 0.14565091751E+03 0.16364521834E+03
 0.19359535791E+03 0.27987208991E+03 0.48547267548E+03 0.73454280926E+03 0.65328088290E+03
 0.66574205004E+03 0.28888370888E+03 0.57266364722E+03 0.65328653902E+03 0.75220936218E+03
 0.54804470609E+03 0.32363963017E+03 0.21157274782E+03 0.17108218874E+03 0.15208163012E+03
 0.13360225507E+03 0.11225481835E+03 0.90231327018E+02 0.70009271815E+02 0.52952201599E+02
 0.39396920615E+02 0.29068100568E+02 0.21433623386E+02 0.15912462139E+02 0.11984546807E+02
 0.91289688644E+01 0.72732114783E+01 0.59647746930E+01 0.50515767033E+01 0.44274976944E+01
 0.40048307914E+01 0.37274962160E+01 0.35526129284E+01 0.34580131923E+01 0.34270265439E+01
 0.34580214080E+01 0.35526088067E+01 0.37275277111E+01 0.40048516388E+01 0.44275351224E+01
 0.50515964770E+01 0.59648801531E+01 0.72732977485E+01 0.91291646237E+01 0.11984733820E+02
 0.15912809317E+02 0.21433976377E+02 0.29068742309E+02 0.39397622359E+02 0.52953333467E+02
 0.70010492627E+02 0.90233013226E+02 0.11225632404E+03 0.13360381080E+03 0.15208279615E+03
 0.17108389446E+03 0.21157752371E+03 0.32365189019E+03 0.54806415081E+03 0.75221757616E+03
 0.65327419037E+03 0.57267270640E+03 0.66574108541E+03 0.73688614993E+03 0.73453497157E+03
 0.54804478332E+03 0.34128519753E+03 0.22374114886E+03 0.17680376041E+03 0.15645660794E+03
 0.13913717086E+03 0.11896189414E+03 0.97246733431E+02 0.76535479150E+02 0.58539200911E+02
 0.43907135944E+02 0.32558373472E+02 0.24053629896E+02 0.17834083472E+02 0.13372823174E+02
 0.10064082699E+02 0.79518560391E+01 0.64490368244E+01 0.53932350769E+01 0.46642134370E+01
 0.41674846060E+01 0.38355732570E+01 0.36207369078E+01 0.34928548998E+01 0.34331670632E+01
 0.34331586468E+01 0.34928777209E+01 0.36207363044E+01 0.38356018290E+01 0.41675067571E+01
 0.46643058254E+01 0.53933219497E+01 0.64491754662E+01 0.79520052359E+01 0.10064356745E+02
 0.13373195582E+02 0.17834685935E+02 0.24054390344E+02 0.32559478296E+02 0.43908482584E+02
 0.58540960123E+02 0.76537452051E+02 0.97248992301E+02 0.11896409690E+03 0.13913919940E+03
 0.15645838918E+03 0.17680675499E+03 0.22374901464E+03 0.34130310230E+03 0.54807054075E+03
 0.73454901931E+03 0.73688034621E+03 0.65327118510E+03 0.65327607449E+03 0.64845616991E+03
 0.48546347195E+03 0.32363991358E+03 0.22374121158E+03 0.17902195727E+03 0.15873336731E+03
 0.14240997774E+03 0.12347422512E+03 0.10247423268E+03 0.81787832840E+02 0.63306407285E+02
 0.47934346372E+02 0.35789770626E+02 0.26549771861E+02 0.19710264822E+02 0.14753017220E+02
 0.11210977757E+02 0.86431960381E+01 0.69494561293E+01 0.57526352220E+01 0.49168533568E+01
 0.43444186855E+01 0.39562013446E+01 0.37007927146E+01 0.35397428406E+01 0.34524052988E+01
 0.34239140896E+01 0.34524077227E+01 0.35397650408E+01 0.37008221650E+01 0.39562551872E+01
 0.43444789049E+01 0.49169494370E+01 0.57527803298E+01 0.69496562582E+01 0.86434727548E+01
 0.11211377671E+02 0.14753583522E+02 0.19711023120E+02 0.26550877282E+02 0.35791232927E+02
 0.47936281009E+02 0.63308703344E+02 0.81790636578E+02 0.10247700142E+03 0.12347712012E+03
 0.14241234859E+03 0.15873570538E+03 0.17902655438E+03 0.22375098697E+03 0.32365972342E+03
 0.48549001581E+03 0.64847604862E+03 0.73454807415E+03 0.75221527436E+03 0.73454078412E+03
 0.38179153419E+03 0.27986795839E+03 0.21157289345E+03 0.17680379541E+03 0.15873338686E+03
 0.14349330533E+03 0.12573299898E+03 0.10568724120E+03 0.85457805062E+02 0.66950007469E+02
 0.51221159281E+02 0.38564100054E+02 0.28779594400E+02 0.21441518834E+02 0.16059504429E+02
 0.12181627769E+02 0.93185149561E+01 0.74488096718E+01 0.61166734658E+01 0.51782744813E+01
 0.45298576328E+01 0.40864482509E+01 0.37897448570E+01 0.35971323874E+01 0.34825141734E+01
 0.34288550266E+01 0.34289146964E+01 0.34824850512E+01 0.35971902353E+01 0.37897382358E+01
 0.40865630698E+01 0.45299077497E+01 0.51784638481E+01 0.61168210800E+01 0.74491185987E+01
 0.93188421452E+01 0.12182264813E+02 0.16060295970E+02 0.21442709186E+02 0.28781082761E+02
 0.38566139877E+02 0.51223684402E+02 0.66952992108E+02 0.85461348588E+02 0.10569069466E+03
 0.12573663099E+03 0.14349619569E+03 0.15873609135E+03 0.17680806859E+03 0.21158194475E+03
 0.27988337716E+03 0.38181154563E+03 0.48549025162E+03 0.54807078766E+03 0.54806447493E+03
 0.48547330444E+03 0.23084901003E+03 0.19359346042E+03 0.17108224868E+03 0.15645667130E+03
 0.14241004940E+03 0.12573304725E+03 0.10676981686E+03 0.87343437929E+02 0.69233986201E+02
 0.53547611680E+02 0.40697706240E+02 0.30602853507E+02 0.22924467947E+02 0.17222446601E+02
 0.13070707902E+02 0.99478134016E+01 0.79255746140E+01 0.64712533953E+01 0.54383018672E+01
 0.47178933736E+01 0.42212484494E+01 0.38849469975E+01 0.36617336251E+01 0.35220660456E+01
 0.34450483639E+01 0.34209442332E+01 0.34450592521E+01 0.35220931009E+01 0.36617832302E+01
 0.38850096358E+01 0.42213314720E+01 0.47180226987E+01 0.54384938654E+01 0.64715010412E+01
 0.79259478974E+01 0.99482773080E+01 0.13071433646E+02 0.17223397926E+02 0.22925817413E+02
 0.30604614072E+02 0.40699973306E+02 0.53550568335E+02 0.69237313668E+02 0.87347556529E+02
 0.10677365911E+03 0.12573694455E+03 0.14241355749E+03 0.15645949199E+03 0.17108599111E+03
 0.19359999741E+03 0.23085889181E+03 0.27988357454E+03 0.32366019588E+03 0.34130378807E+03
 0.32365264606E+03 0.27987271784E+03 0.17680490244E+03 0.16364488382E+03 0.15208175362E+03
 0.13913732335E+03 0.12347437144E+03 0.10568734806E+03 0.87343489857E+02 0.70011981037E+02
 0.54752773426E+02 0.42041915753E+02 0.31895838100E+02 0.24063580868E+02 0.18170183718E+02
 0.13827409233E+02 0.10500324488E+02 0.83572077721E+01 0.68005294936E+01 0.56860311332E+01
 0.49008081619E+01 0.43555801474E+01 0.39822282360E+01 0.37309469560E+01 0.35679942439E+01
 0.34705802636E+01 0.34251734230E+01 0.34251399235E+01 0.34706187642E+01 0.35680095161E+01
 0.37310053971E+01 0.39822890859E+01 0.43557301613E+01 0.49009257031E+01 0.56862820388E+01
 0.68008178622E+01 0.83576888930E+01 0.10500931847E+02 0.13828422710E+02 0.18171466859E+02
 0.24065315981E+02 0.31898056785E+02 0.42044627832E+02 0.54756318591E+02 0.70015648024E+02
 0.87347975631E+02 0.10569156476E+03 0.12347814789E+03 0.13914104553E+03 0.15208448701E+03
 0.16364775063E+03 0.17680880645E+03 0.19360005101E+03 0.21158211120E+03 0.22375128262E+03
 0.22374937300E+03 0.21157783578E+03 0.19359555576E+03 0.15534845021E+03 0.14565020429E+03
 0.13360250195E+03 0.11896214146E+03 0.10247444395E+03 0.85457958353E+02 0.69234077461E+02
 0.54752811619E+02 0.42501429186E+02 0.32566782394E+02 0.24781271549E+02 0.18840882793E+02
 0.14406875919E+02 0.11150259760E+02 0.87213234831E+01 0.70884331466E+01 0.59097359296E+01
 0.50704053288E+01 0.44835710737E+01 0.40773367824E+01 0.38013159854E+01 0.36175574063E+01
 0.35025713365E+01 0.34389857695E+01 0.34191956388E+01 0.34390027943E+01 0.35025982853E+01
 0.36175984949E+01 0.38013935313E+01 0.40774215931E+01 0.44837245458E+01 0.50705944111E+01
 0.59100432213E+01 0.70887758133E+01 0.87218624902E+01 0.11150944974E+02 0.14407905888E+02
 0.18842236349E+02 0.24783066721E+02 0.32569260131E+02 0.42504218180E+02 0.54756754000E+02
 0.69238054287E+02 0.85462824083E+02 0.10247943291E+03 0.11896632460E+03 0.13360669112E+03
 0.14565313946E+03 0.15535110438E+03 0.16364777915E+03 0.17108604363E+03 0.17680815390E+03
 0.17902666863E+03 0.17680687531E+03 0.17108400695E+03 0.16364533803E+03 0.13693492737E+03
 0.12573353272E+03 0.11225516580E+03 0.97247042197E+02 0.81788079400E+02 0.66950184004E+02
 0.53547723438E+02 0.42041975652E+02 0.32566805579E+02 0.25026053396E+02 0.19188569367E+02
 0.14770679514E+02 0.11486741967E+02 0.89972866695E+01 0.73201804761E+01 0.60976221569E+01
 0.52189390434E+01 0.45987263829E+01 0.41661808371E+01 0.38688114202E+01 0.36681216933E+01
 0.35377840661E+01 0.34598872722E+01 0.34234903379E+01 0.34235823316E+01 0.34598457094E+01
 0.35378859892E+01 0.36681082985E+01 0.38689426264E+01 0.41662091223E+01 0.45989661362E+01
 0.52190870739E+01 0.60980334512E+01 0.73205903092E+01 0.89980171214E+01 0.11487619032E+02
 0.14772003945E+02 0.19190220547E+02 0.25028121705E+02 0.32569666908E+02 0.42044993610E+02
 0.53551895288E+02 0.66954342843E+02 0.81792648240E+02 0.97252044606E+02 0.11225955200E+03
 0.12573734615E+03 0.13693811694E+03 0.14565319597E+03 0.15208457483E+03 0.15645959760E+03
 0.15873621314E+03 0.15873584676E+03 0.15645855814E+03 0.15208300746E+03 0.14565118327E+03
 0.11559622704E+03 0.10353921858E+03 0.90231719696E+02 0.76535805034E+02 0.63306657479E+02
 0.51221336441E+02 0.40697821461E+02 0.31895905819E+02 0.24781305959E+02 0.19188582270E+02
 0.14895168612E+02 0.11660771445E+02 0.91700235234E+01 0.74825207796E+01 0.62402390611E+01
 0.53379853105E+01 0.46957993822E+01 0.42435806617E+01 0.39304613304E+01 0.37159416520E+01
 0.35740930903E+01 0.34842383389E+01 0.34355917571E+01 0.34196195326E+01 0.34355916393E+01
 0.34842656836E+01 0.35741359188E+01 0.37159943064E+01 0.39305883323E+01 0.42436930058E+01
 0.46960134874E+01 0.53382215534E+01 0.62406195169E+01 0.74829456469E+01 0.91706695692E+01
 0.11661690598E+02 0.14896341678E+02 0.19190365041E+02 0.24783154347E+02 0.31898946537E+02
 0.40700699739E+02 0.51225587976E+02 0.63311149824E+02 0.76540431129E+02 0.90236420656E+02
 0.10354385347E+03 0.11559978486E+03 0.12573742948E+03 0.13360683929E+03 0.13914123995E+03
 0.14241378684E+03 0.14349645839E+03 0.14241264960E+03 0.13913954629E+03 0.13360420585E+03
 0.12573442820E+03 0.93192914801E+02 0.81787221286E+02 0.70009657482E+02 0.58539507863E+02
 0.47934576107E+02 0.38564261843E+02 0.30602960534E+02 0.24063647077E+02 0.18840920602E+02
 0.14770698521E+02 0.11660778632E+02 0.92284694110E+01 0.75662416035E+01 0.63288866776E+01
 0.54215674595E+01 0.47690144415E+01 0.43061256313E+01 0.39822684516E+01 0.37587535585E+01
 0.36079023664E+01 0.35100184150E+01 0.34515254912E+01 0.34243957304E+01 0.34242898043E+01
 0.34516760723E+01 0.35099412894E+01 0.36080618114E+01 0.37586984851E+01 0.39824664447E+01
 0.43061691483E+01 0.47693459230E+01 0.54217778482E+01 0.63294401062E+01 0.75667773293E+01
 0.92293133871E+01 0.11661917928E+02 0.14772035055E+02 0.18843040039E+02 0.24065563274E+02
 0.30606200535E+02 0.38567264971E+02 0.47938280430E+02 0.58543891291E+02 0.70014104286E+02
 0.81791507589E+02 0.93197147542E+02 0.10354394636E+03 0.11225973252E+03 0.11896658103E+03
 0.12347846728E+03 0.12573731754E+03 0.12573705223E+03 0.12347758586E+03 0.11896460060E+03
 0.11225685201E+03 0.10354018963E+03 0.72393884634E+02 0.62600646000E+02 0.52952545008E+02
 0.43907402312E+02 0.35789967285E+02 0.28779732803E+02 0.22924561121E+02 0.18170243700E+02
 0.14406912658E+02 0.11486763041E+02 0.91700337291E+01 0.75662455155E+01 0.63593231884E+01
 0.54644825068E+01 0.48149533712E+01 0.43496482562E+01 0.40218333927E+01 0.37931746440E+01
 0.36375232755E+01 0.35338671694E+01 0.34693228660E+01 0.34336686673E+01 0.34226598203E+01
 0.34336761627E+01 0.34693251728E+01 0.35339216578E+01 0.36375719959E+01 0.37932849663E+01
 0.40219462176E+01 0.43498104534E+01 0.48151415505E+01 0.54648115513E+01 0.63596567984E+01
 0.75668673492E+01 0.91705522064E+01 0.11488040697E+02 0.14407774874E+02 0.18172550910E+02
 0.22926130202E+02 0.28782815549E+02 0.35793215413E+02 0.43910850180E+02 0.52956553746E+02
 0.62604802260E+02 0.72397842300E+02 0.81791594846E+02 0.90236600696E+02 0.97252314809E+02
 0.10247978507E+03 0.10569198780E+03 0.10677414159E+03 0.10569122459E+03 0.10247756487E+03
 0.97249571298E+02 0.90233585943E+02 0.81788158936E+02 0.54749046620E+02 0.46888505416E+02
 0.39397206191E+02 0.32558591625E+02 0.26549932076E+02 0.21441632467E+02 0.17222524705E+02
 0.13827461297E+02 0.11150293394E+02 0.89973065119E+01 0.74825323225E+01 0.63288926177E+01
 0.54644848007E+01 0.48303399197E+01 0.43722146137E+01 0.40463624409E+01 0.38176771961E+01
 0.36601169965E+01 0.35541673683E+01 0.34857334927E+01 0.34451831297E+01 0.34263323527E+01
 0.34263951280E+01 0.34451652012E+01 0.34858250482E+01 0.35541509287E+01 0.36602185696E+01
 0.38177018643E+01 0.40465203683E+01 0.43724070065E+01 0.48306571967E+01 0.54648962360E+01
 0.63293290480E+01 0.74833936975E+01 0.89978669691E+01 0.11151941784E+02 0.13828330085E+02
 0.17224801027E+02 0.21443521917E+02 0.26552091723E+02 0.32562045110E+02 0.39400031798E+02
 0.46892015003E+02 0.54752344158E+02 0.62604875915E+02 0.70014262578E+02 0.76540678385E+02
 0.81792982213E+02 0.85463237006E+02 0.87348455343E+02 0.87348088170E+02 0.85461914749E+02
 0.81791217106E+02 0.76538025172E+02 0.70011036565E+02 0.62601307064E+02 0.40691556537E+02
 0.34669546251E+02 0.29068326839E+02 0.24053801907E+02 0.19710391795E+02 0.16059595688E+02
 0.13070772158E+02 0.10500366335E+02 0.87213518661E+01 0.73201990087E+01 0.62402506261E+01
 0.54215742209E+01 0.48149569028E+01 0.43722160276E+01 0.40548544612E+01 0.38301939717E+01
 0.36744891992E+01 0.35685854591E+01 0.34991989097E+01 0.34559965842E+01 0.34327339482E+01
 0.34252947704E+01 0.34327295916E+01 0.34560154652E+01 0.34992048523E+01 0.35686859215E+01
 0.36745208965E+01 0.38303467049E+01 0.40549042416E+01 0.43724394468E+01 0.48150037478E+01
 0.54220817893E+01 0.62403492554E+01 0.73211654406E+01 0.87214584406E+01 0.10501883851E+02
 0.13071604713E+02 0.16061310012E+02 0.19712922033E+02 0.24055312116E+02 0.29071335362E+02
 0.34672437845E+02 0.40694413435E+02 0.46892072621E+02 0.52956681369E+02 0.58544096933E+02
 0.63311435863E+02 0.66954705519E+02 0.69238484608E+02 0.70016132677E+02 0.69237835255E+02
 0.66953531368E+02 0.63309239597E+02 0.58541472742E+02 0.52953804504E+02 0.46889108228E+02
 0.29972219849E+02 0.25510322986E+02 0.21433797820E+02 0.17834216533E+02 0.14753116527E+02
 0.12181700662E+02 0.99478630335E+01 0.83572431838E+01 0.70884576951E+01 0.60976387768E+01
 0.53379962191E+01 0.47690213583E+01 0.43496524317E+01 0.40463647413E+01 0.38301949490E+01
 0.36793658730E+01 0.35762186411E+01 0.35078811327E+01 0.34643740403E+01 0.34390527689E+01
 0.34274019690E+01 0.34274207313E+01 0.34390401688E+01 0.34644369094E+01 0.35078809573E+01
 0.35762977226E+01 0.36793844836E+01 0.38303711808E+01 0.40464434887E+01 0.43500571075E+01
 0.47691807643E+01 0.53387077422E+01 0.60977816892E+01 0.70895995263E+01 0.83576117745E+01
 0.99490077940E+01 0.12183212209E+02 0.14753626280E+02 0.17836952202E+02 0.21435434586E+02
 0.25512184071E+02 0.29974845282E+02 0.34672480699E+02 0.39400128806E+02 0.43911010164E+02
 0.47938508190E+02 0.51225883494E+02 0.53552253186E+02 0.54757164193E+02 0.54756766969E+02
 0.53551037973E+02 0.51224157047E+02 0.47936738467E+02 0.43908908925E+02 0.39398004926E+02
 0.34669908544E+02 0.22051228589E+02 0.18821539932E+02 0.15912594997E+02 0.13372925661E+02
 0.11211055409E+02 0.93185700325E+01 0.79256152997E+01 0.68005588638E+01 0.59097567961E+01
 0.52189535788E+01 0.46958093622E+01 0.43061324072E+01 0.40218379088E+01 0.38176801141E+01
 0.36744909302E+01 0.35762194438E+01 0.35108663139E+01 0.34688909836E+01 0.34435866663E+01
 0.34302091375E+01 0.34260568387E+01 0.34302196538E+01 0.34435965695E+01 0.34689549276E+01
 0.35108459277E+01 0.35763362952E+01 0.36744713737E+01 0.38178338802E+01 0.40217962837E+01
 0.43064222937E+01 0.46957085179E+01 0.52195395829E+01 0.59097687088E+01 0.68013514173E+01
 0.79263344287E+01 0.93188973469E+01 0.11213283610E+02 0.13373321204E+02 0.15914001438E+02
 0.18824008375E+02 0.22052748146E+02 0.25512214933E+02 0.29071406161E+02 0.32562163830E+02
 0.35793387601E+02 0.38567492681E+02 0.40700980769E+02 0.42045321504E+02 0.42504582639E+02
 0.42045015642E+02 0.40700369560E+02 0.38566529426E+02 0.35791601819E+02 0.32559815188E+02
 0.29069039373E+02 0.25510649841E+02 0.16327505284E+02 0.14032598673E+02 0.11984648452E+02
 0.10064157651E+02 0.86432540993E+01 0.74488536936E+01 0.64712861995E+01 0.56860552811E+01
 0.50704228429E+01 0.45987390287E+01 0.42435897766E+01 0.39822750370E+01 0.37931794084E+01
 0.36601204145E+01 0.35685878396E+01 0.35078826540E+01 0.34688917340E+01 0.34452652663E+01
 0.34320081781E+01 0.34261801132E+01 0.34261528144E+01 0.34320469457E+01 0.34452227042E+01
 0.34689578843E+01 0.35078873421E+01 0.35687324851E+01 0.36601488842E+01 0.37934707909E+01
 0.39823413498E+01 0.42441300860E+01 0.45989098607E+01 0.50710479215E+01 0.56863560433E+01
 0.64715788792E+01 0.74501935138E+01 0.86429414335E+01 0.10065631446E+02 0.11986353487E+02
 0.14032916340E+02 0.16329064638E+02 0.18824030273E+02 0.21435485146E+02 0.24055397793E+02
 0.26552217602E+02 0.28782984447E+02 0.30606412345E+02 0.31899197766E+02 0.32569950781E+02
 0.32569567187E+02 0.31898375738E+02 0.30604932882E+02 0.28781390013E+02 0.26551163319E+02
 0.24054648029E+02 0.21434201390E+02 0.18821714566E+02 0.12260720096E+02 0.10473375697E+02
 0.91290429078E+01 0.79519147277E+01 0.69495016871E+01 0.61167083976E+01 0.54383283057E+01
 0.49008279468E+01 0.44835858879E+01 0.41661919614E+01 0.39304697652E+01 0.37587600348E+01
 0.36375283021E+01 0.35541712909E+01 0.34992019402E+01 0.34643762923E+01 0.34435881838E+01
 0.34320089544E+01 0.34263729340E+01 0.34247170273E+01 0.34263783657E+01 0.34320514099E+01
 0.34436037582E+01 0.34644412356E+01 0.34991483668E+01 0.35542109084E+01 0.36374180400E+01
 0.37588144484E+01 0.39303429671E+01 0.41663220853E+01 0.44836410017E+01 0.49011934401E+01
 0.54390930354E+01 0.61164702641E+01 0.69509619214E+01 0.79524344850E+01 0.91289294726E+01
 0.10475175715E+02 0.12262063988E+02 0.14032931888E+02 0.15914037367E+02 0.17837013276E+02
 0.19713012402E+02 0.21443644360E+02 0.22926285664E+02 0.24065750251E+02 0.24783368738E+02
 0.25028357297E+02 0.24783315510E+02 0.24065569179E+02 0.22926066078E+02 0.21442945326E+02
 0.19711240512E+02 0.17834880053E+02 0.15912978078E+02 0.14032765909E+02 0.93011803092E+01
 0.82275552413E+01 0.72732687494E+01 0.64490823335E+01 0.57526709597E+01 0.51783021481E+01
 0.47179146654E+01 0.43555965868E+01 0.40773495344E+01 0.38688214551E+01 0.37159496776E+01
 0.36079088924E+01 0.35338725630E+01 0.34857379796E+01 0.34560003072E+01 0.34390557899E+01
 0.34302114702E+01 0.34261817257E+01 0.34247178664E+01 0.34247309660E+01 0.34261698402E+01
 0.34302030498E+01 0.34390725037E+01 0.34560401247E+01 0.34858188351E+01 0.35340316875E+01
 0.36080659427E+01 0.37162397713E+01 0.38688983812E+01 0.40775858696E+01 0.43558617992E+01
 0.47179034117E+01 0.51791626098E+01 0.57524539071E+01 0.64494884825E+01 0.72748938800E+01
 0.82276338259E+01 0.93012934651E+01 0.10475186230E+02 0.11986379143E+02 0.13373364789E+02
 0.14753691022E+02 0.16061398256E+02 0.17224914010E+02 0.18172688125E+02 0.18843199409E+02
 0.19190542680E+02 0.19190411104E+02 0.18842433531E+02 0.18171664043E+02 0.17223588971E+02
 0.16060475399E+02 0.14753747535E+02 0.13373341688E+02 0.11984861149E+02 0.10473457413E+02
 0.73879273960E+01 0.66307421849E+01 0.59648188148E+01 0.53932704373E+01 0.49168813602E+01
 0.45298797887E+01 0.42212660234E+01 0.39822422602E+01 0.38013273595E+01 0.36681310711E+01
 0.35741009836E+01 0.35100251911E+01 0.34693287668E+01 0.34451883092E+01 0.34327384751E+01
 0.34274058610E+01 0.34260600718E+01 0.34261553430E+01 0.34263801221E+01 0.34261707546E+01
 0.34260961179E+01 0.34274445099E+01 0.34326944521E+01 0.34452132925E+01 0.34693002582E+01
 0.35101885867E+01 0.35741339302E+01 0.36683568917E+01 0.38014244249E+01 0.39822452384E+01
 0.42214920540E+01 0.45299246112E+01 0.49177504551E+01 0.53938435064E+01 0.59644497044E+01
 0.66314683444E+01 0.73892973318E+01 0.82276414555E+01 0.91289470301E+01 0.10065661157E+02
 0.11213330188E+02 0.12183275974E+02 0.13071686658E+02 0.13828430449E+02 0.14407892622E+02
 0.14772167880E+02 0.14896486140E+02 0.14772155772E+02 0.14408060365E+02 0.13828575168E+02
 0.13071579902E+02 0.12182401539E+02 0.11211501913E+02 0.10064461364E+02 0.91292562071E+01
 0.82276530332E+01 0.60399529345E+01 0.55109109938E+01 0.50516107562E+01 0.46642410504E+01
 0.43444410771E+01 0.40864664233E+01 0.38849618824E+01 0.37309593685E+01 0.36175679296E+01
 0.35377931930E+01 0.34842464132E+01 0.34515327496E+01 0.34336752623E+01 0.34263383631E+01
 0.34253002212E+01 0.34274256037E+01 0.34302238933E+01 0.34320504876E+01 0.34320541735E+01
 0.34302049597E+01 0.34274454945E+01 0.34252865680E+01 0.34264562836E+01 0.34339009534E+01
 0.34517508397E+01 0.34845235264E+01 0.35379892121E+01 0.36180550725E+01 0.37311926189E+01
 0.38849364203E+01 0.40866999083E+01 0.43443815162E+01 0.46644048561E+01 0.50523177897E+01
 0.55113450112E+01 0.60395618226E+01 0.66314738664E+01 0.72749065855E+01 0.79524561233E+01
 0.86429736334E+01 0.93189414053E+01 0.99490645421E+01 0.10501953599E+02 0.11152028926E+02
 0.11488140084E+02 0.11662027361E+02 0.11661807217E+02 0.11487739506E+02 0.11151065745E+02
 0.10501043401E+02 0.99483836287E+01 0.93189412271E+01 0.86435630277E+01 0.79520856011E+01
 0.72733677277E+01 0.66307847986E+01 0.50992887936E+01 0.47377197231E+01 0.44275243217E+01
 0.41675066940E+01 0.39562197115E+01 0.37897603357E+01 0.36617468663E+01 0.35680057554E+01
 0.35025815761E+01 0.34598965558E+01 0.34356003201E+01 0.34244037334E+01 0.34226673353E+01
 0.34264021815E+01 0.34327361522E+01 0.34390461859E+01 0.34436019578E+01 0.34452273791E+01
 0.34436076290E+01 0.34390754914E+01 0.34326964864E+01 0.34264573193E+01 0.34226333720E+01
 0.34244365593E+01 0.34353961107E+01 0.34600337195E+01 0.35026010180E+01 0.35682175902E+01
 0.36621971226E+01 0.37897513105E+01 0.39563910693E+01 0.41678021538E+01 0.44276159569E+01
 0.47378154498E+01 0.51004370466E+01 0.55113489185E+01 0.59644588338E+01 0.64495041234E+01
 0.69509853236E+01 0.74502257388E+01 0.79263762849E+01 0.83576636574E+01 0.87215202014E+01
 0.89979378925E+01 0.91706310203E+01 0.92293983556E+01 0.91707585832E+01 0.89981078814E+01
 0.87219526484E+01 0.83577762388E+01 0.79260304925E+01 0.74491948764E+01 0.69497251956E+01
 0.64492365960E+01 0.59649334126E+01 0.55109624254E+01 0.44569615951E+01 0.42119399702E+01
 0.40048522020E+01 0.38355915177E+01 0.37008084853E+01 0.35971461751E+01 0.35220783293E+01
 0.34705914685E+01 0.34389961751E+01 0.34235001734E+01 0.34196289360E+01 0.34242988450E+01
 0.34336848599E+01 0.34451735215E+01 0.34560233402E+01 0.34644442494E+01 0.34689616273E+01
 0.34689638329E+01 0.34644463304E+01 0.34560442805E+01 0.34452164405E+01 0.34339030545E+01
 0.34244375987E+01 0.34198182381E+01 0.34235790143E+01 0.34392371480E+01 0.34707157017E+01
 0.35223612486E+01 0.35974058125E+01 0.37003799041E+01 0.38356583352E+01 0.40056546430E+01
 0.42122419381E+01 0.44563859490E+01 0.47378182383E+01 0.50523242969E+01 0.53938547234E+01
 0.57524707825E+01 0.61164936956E+01 0.64716095386E+01 0.68013896917E+01 0.70896454507E+01
 0.73212186677E+01 0.74834534732E+01 0.75669325253E+01 0.75668464245E+01 0.74830169702E+01
 0.73206620654E+01 0.70888462658E+01 0.68008854463E+01 0.64715644719E+01 0.61168794298E+01
 0.57528329666E+01 0.53933685353E+01 0.50516370270E+01 0.47377223022E+01 0.40220835907E+01
 0.38608394269E+01 0.37275140986E+01 0.36207527127E+01 0.35397570050E+01 0.34825271486E+01
 0.34450604914E+01 0.34251849344E+01 0.34192067560E+01 0.34235931757E+01 0.34356022796E+01
 0.34516865249E+01 0.34693353937E+01 0.34858349592E+01 0.34992143365E+01 0.35078898797E+01
 0.35108541536E+01 0.35078947377E+01 0.34991548167E+01 0.34858242483E+01 0.34693045761E+01
 0.34517540319E+01 0.34353981868E+01 0.34235800093E+01 0.34190538550E+01 0.34252882992E+01
 0.34456008360E+01 0.34825439400E+01 0.35401467864E+01 0.36208883461E+01 0.37271997618E+01
 0.38609717147E+01 0.40224542925E+01 0.42122439103E+01 0.44276205337E+01 0.46644128109E+01
 0.49177625265E+01 0.51791794888E+01 0.54391152813E+01 0.56863840481E+01 0.59098026336E+01
 0.60978214027E+01 0.62403943036E+01 0.63293786737E+01 0.63597099945E+01 0.63294956657E+01
 0.62406761302E+01 0.60980897940E+01 0.59100980467E+01 0.56863342403E+01 0.54385425657E+01
 0.51785083903E+01 0.49169894930E+01 0.46643413715E+01 0.44275663323E+01 0.42119751720E+01
 0.37370943145E+01 0.36339756461E+01 0.35526286258E+01 0.34928693357E+01 0.34524188481E+01
 0.34288679429E+01 0.34209567700E+01 0.34251522992E+01 0.34390151184E+01 0.34598580506E+01
 0.34842780416E+01 0.35099535991E+01 0.35339338216E+01 0.35541628009E+01 0.35686973483E+01
 0.35763085211E+01 0.35763462983E+01 0.35687415314E+01 0.35542188715E+01 0.35340384645E+01
 0.35101941238E+01 0.34845278071E+01 0.34600367844E+01 0.34392390672E+01 0.34252891887E+01
 0.34210988375E+01 0.34290341443E+01 0.34524073580E+01 0.34929030987E+01 0.35527662619E+01
 0.36340916022E+01 0.37370609905E+01 0.38609730463E+01 0.40056578226E+01 0.41678077190E+01
 0.43443900564E+01 0.45299366315E+01 0.47179194185E+01 0.49012137779E+01 0.50710727794E+01
 0.52195689278E+01 0.53387413414E+01 0.54221191883E+01 0.54649367635E+01 0.54648543761E+01
 0.54218220096E+01 0.53382660576E+01 0.52191309346E+01 0.50706367486E+01 0.49009657903E+01
 0.47180599893E+01 0.45299419413E+01 0.43445098490E+01 0.41675344419E+01 0.40048762302E+01
 0.38608177286E+01 0.35572909714E+01 0.34989585719E+01 0.34580277717E+01 0.34331810624E+01
 0.34239277682E+01 0.34289283235E+01 0.34450730037E+01 0.34706327257E+01 0.35026125231E+01
 0.35379004885E+01 0.35741506131E+01 0.36080765828E+01 0.36375866717E+01 0.36602329418E+01
 0.36745347404E+01 0.36793975688E+01 0.36744834838E+01 0.36601598288E+01 0.36374276811E+01
 0.36080741822E+01 0.35741407277E+01 0.35379945735E+01 0.35026050108E+01 0.34707184295E+01
 0.34456024562E+01 0.34290348497E+01 0.34244783876E+01 0.34332582838E+01 0.34573304665E+01
 0.34990813344E+01 0.35581923239E+01 0.36340924547E+01 0.37272018978E+01 0.38356621549E+01
 0.39563970300E+01 0.40867084271E+01 0.42215034963E+01 0.43558764651E+01 0.44836590803E+01
 0.45989314285E+01 0.46957334669E+01 0.47692088271E+01 0.48150344884E+01 0.48306900437E+01
 0.48151758257E+01 0.47693809018E+01 0.46960484298E+01 0.45990003696E+01 0.44837574690E+01
 0.43557613018E+01 0.42213604974E+01 0.40865897636E+01 0.39562795101E+01 0.38356239074E+01
 0.37275477288E+01 0.36340077283E+01 0.34601942049E+01 0.34359732296E+01 0.34270409776E+01
 0.34331731130E+01 0.34524224554E+01 0.34825001939E+01 0.35221087722E+01 0.35680258152E+01
 0.36176153998E+01 0.36681257363E+01 0.37160121253E+01 0.37587164673E+01 0.37933028555E+01
 0.38177193676E+01 0.38303635178E+01 0.38303870165E+01 0.38178484730E+01 0.37934839252E+01
 0.37588259619E+01 0.37162495812E+01 0.36683649601E+01 0.36180614603E+01 0.35682223969E+01
 0.35223646443E+01 0.34825461155E+01 0.34524085408E+01 0.34332587388E+01 0.34270165822E+01
 0.34361426617E+01 0.34602395315E+01 0.34990818099E+01 0.35527675746E+01 0.36208908379E+01
 0.37003839236E+01 0.37897572094E+01 0.38849444752E+01 0.39822557295E+01 0.40775989624E+01
 0.41663378746E+01 0.42441485425E+01 0.43064432734E+01 0.43500803351E+01 0.43724645508E+01
 0.43724335188E+01 0.43498378553E+01 0.43061968944E+01 0.42437205678E+01 0.41662360171E+01
 0.40774474235E+01 0.39823135640E+01 0.38850325722E+01 0.37897595902E+01 0.37008419594E+01
 0.36207546125E+01 0.35526258142E+01 0.34989438791E+01 0.34282667178E+01 0.34360000698E+01
 0.34580366116E+01 0.34928935474E+01 0.35397816824E+01 0.35972078718E+01 0.36618019424E+01
 0.37310251442E+01 0.38014142393E+01 0.38689641121E+01 0.39306103466E+01 0.39824886698E+01
 0.40219682802E+01 0.40465418709E+01 0.40549247799E+01 0.40464626863E+01 0.40218138229E+01
 0.39823569795E+01 0.39303565338E+01 0.38689098222E+01 0.38014337558E+01 0.37311999376E+01
 0.36622025897E+01 0.35974096629E+01 0.35401492670E+01 0.34929045067E+01 0.34573310920E+01
 0.34361428151E+01 0.34290987875E+01 0.34361428151E+01 0.34573310920E+01 0.34929045067E+01
 0.35401492670E+01 0.35974096629E+01 0.36622025897E+01 0.37311999376E+01 0.38014337558E+01
 0.38689098222E+01 0.39303565338E+01 0.39823569795E+01 0.40218138229E+01 0.40464626863E+01
 0.40549247799E+01 0.40465418709E+01 0.40219682802E+01 0.39824886698E+01 0.39306103466E+01
 0.38689641121E+01 0.38014142393E+01 0.37310251442E+01 0.36618019424E+01 0.35972078718E+01
 0.35397816824E+01 0.34928935474E+01 0.34580366116E+01 0.34360000698E+01 0.34601942049E+01
 0.34989438791E+01 0.35526258142E+01 0.36207546125E+01 0.37008419594E+01 0.37897595902E+01