=========================================
SLURM_JOB_ID = 33324641
SLURM_JOB_NODELIST = lnode32
SLURM_GPUS = 
SLURM_CPUS_ON_NODE = 8
SLURM_JOB_PARTITION = lenovo
SLURM_TASK_PID = 504757
CUDA_VISIBLE_DEVICES = 
==========================================
 running on    8 total cores
 distrk:  each k-point on    8 cores,    1 groups
 distr:  one band on    4 cores,    2 groups
 using from now: INCAR     
 vasp.5.4.4.18Apr17-6-g9f103f2a35 (build Apr 28 2018 00:24:27) complex          
  
 POSCAR found type information on POSCAR  Eu O 
 POSCAR found :  2 types and       2 ions
 scaLAPACK will be used

 ----------------------------------------------------------------------------- 
|                                                                             |
|  ADVICE TO THIS USER RUNNING 'VASP/VAMP'   (HEAR YOUR MASTER'S VOICE ...):  |
|                                                                             |
|      You have a (more or less) 'small supercell' and for smaller cells      |
|      it is recommended  to use the reciprocal-space projection scheme!      |
|      The real space optimization is not  efficient for small cells and it   |
|      is also less accurate ...                                              |
|      Therefore set LREAL=.FALSE. in the  INCAR file                         |
|                                                                             |
 ----------------------------------------------------------------------------- 

 LDA part: xc-table for Pade appr. of Perdew
 POSCAR, INCAR and KPOINTS ok, starting setup
 FFT: planning ...
 WAVECAR not read
 WARNING: random wavefunctions but no delay for mixing, default for NELMDL
 entering main loop
       N       E                     dE             d eps       ncg     rms          rms(c)
DAV:   1     0.145967373216E+03    0.14597E+03   -0.10184E+04109188   0.263E+03
DAV:   2    -0.512896677787E+01   -0.15110E+03   -0.13297E+03 97396   0.299E+02
DAV:   3    -0.199331960610E+02   -0.14804E+02   -0.14207E+02100984   0.993E+01
DAV:   4    -0.206961184485E+02   -0.76292E+00   -0.74230E+00140668   0.202E+01
DAV:   5    -0.207225969085E+02   -0.26478E-01   -0.26342E-01120576   0.289E+00    0.180E+01
DAV:   6    -0.255395649046E+02   -0.48170E+01   -0.98127E+01134456   0.108E+02    0.270E+01
DAV:   7    -0.209490619726E+02    0.45905E+01   -0.18946E+01112856   0.803E+01    0.997E+00
DAV:   8    -0.209441449979E+02    0.49170E-02   -0.12927E+00132168   0.982E+00    0.472E+00
DAV:   9    -0.209088860172E+02    0.35259E-01   -0.16354E+00134304   0.113E+01    0.254E+00
DAV:  10    -0.208595819346E+02    0.49304E-01   -0.23428E-01124056   0.443E+00    0.918E-01
DAV:  11    -0.208571472881E+02    0.24346E-02   -0.13909E-02129020   0.126E+00    0.749E-01
DAV:  12    -0.208576662601E+02   -0.51897E-03   -0.22034E-02131748   0.142E+00    0.377E-01
DAV:  13    -0.208577105237E+02   -0.44264E-04   -0.18190E-03130600   0.311E-01    0.188E-01
DAV:  14    -0.208577541123E+02   -0.43589E-04   -0.17067E-03124504   0.413E-01    0.734E-02
DAV:  15    -0.208577325814E+02    0.21531E-04   -0.10494E-04127752   0.867E-02    0.502E-02
DAV:  16    -0.208577308932E+02    0.16882E-05   -0.17385E-05126884   0.307E-02    0.207E-02
DAV:  17    -0.208577316186E+02   -0.72544E-06   -0.24153E-06108920   0.135E-02
   1 F= -.20857732E+02 E0= -.20857732E+02  d E =0.000000E+00  mag=     6.9861
