 vasp.5.4.4.18Apr17-6-g9f103f2a35 (build Apr 28 2018 00:24:27) complex          
  
 executed on             LinuxIFC date 2021.03.31  13:55:09
 running on    8 total cores
 distrk:  each k-point on    8 cores,    1 groups
 distr:  one band on NCORES_PER_BAND=   4 cores,    2 groups


--------------------------------------------------------------------------------------------------------


 INCAR:
 POTCAR:    PAW_PBE Eu 23Dec2003                  
 POTCAR:    PAW_PBE O 08Apr2002                   
 POTCAR:    PAW_PBE Eu 23Dec2003                  
   VRHFIN =Eu : [core=Kr4d]                                                     
   LEXCH  = PE                                                                  
   EATOM  =  2619.8085 eV,  192.5505 Ry                                         
                                                                                
   TITEL  = PAW_PBE Eu 23Dec2003                                                
   LULTRA =        F    use ultrasoft PP ?                                      
   IUNSCR =        1    unscreen: 0-lin 1-nonlin 2-no                           
   RPACOR =    2.300    partial core radius                                     
   POMASS =  151.965; ZVAL   =   17.000    mass and valenz                      
   RCORE  =    2.800    outmost cutoff radius                                   
   RWIGS  =    2.800; RWIGS  =    1.482    wigner-seitz radius (au A)           
   ENMAX  =  249.668; ENMIN  =  187.251 eV                                      
   RCLOC  =    2.308    cutoff for local pot                                    
   LCOR   =        T    correct aug charges                                     
   LPAW   =        T    paw PP                                                  
   EAUG   =  549.628                                                            
   DEXC   =    0.000                                                            
   RMAX   =    2.870    core radius for proj-oper                               
   RAUG   =    1.300    factor for augmentation sphere                          
   RDEP   =    2.887    radius for radial grids                                 
   RDEPT  =    2.221    core radius for aug-charge                              
                                                                                
   Atomic configuration                                                         
   14 entries                                                                   
     n  l   j            E        occ.                                          
     1  0  0.50    -48354.7667   2.0000                                         
     2  0  0.50     -7939.6472   2.0000                                         
     2  1  1.50     -7072.6637   6.0000                                         
     3  0  0.50     -1747.1875   2.0000                                         
     3  1  1.50     -1477.5221   6.0000                                         
     3  2  2.50     -1117.4686  10.0000                                         
     4  0  0.50      -346.8682   2.0000                                         
     4  1  1.50      -258.1962   6.0000                                         
     4  2  2.50      -134.7724  10.0000                                         
     5  0  0.50       -44.6510   2.0000                                         
     6  0  0.50        -3.6227   2.0000                                         
     5  1  1.50       -23.7639   6.0000                                         
     5  2  2.50        -1.3130   0.0000                                         
     4  3  2.50        -2.7310   7.0000                                         
   Description                                                                  
     l       E           TYP  RCUT    TYP  RCUT                                 
     0    -44.6510453     23  2.400                                             
     0     -3.6226685     23  2.400                                             
     1    -23.7638687     23  2.400                                             
     1     27.2116520     23  2.400                                             
     2     -1.3129622     23  2.500                                             
     2     13.6058260     23  2.500                                             
     3     -2.7309948     23  2.800                                             
     3     -3.4014565     23  2.800                                             
  local pseudopotential read in
  partial core-charges read in
  partial kinetic energy density read in
  atomic valenz-charges read in
  non local Contribution for L=           0  read in
    real space projection operators read in
  non local Contribution for L=           0  read in
    real space projection operators read in
  non local Contribution for L=           1  read in
    real space projection operators read in
  non local Contribution for L=           1  read in
    real space projection operators read in
  non local Contribution for L=           2  read in
    real space projection operators read in
  non local Contribution for L=           2  read in
    real space projection operators read in
  non local Contribution for L=           3  read in
    real space projection operators read in
  non local Contribution for L=           3  read in
    real space projection operators read in
    PAW grid and wavefunctions read in
 
   number of l-projection  operators is LMAX  =           8
   number of lm-projection operators is LMMAX =          32
 
 POTCAR:    PAW_PBE O 08Apr2002                   
   VRHFIN =O: s2p4                                                              
   LEXCH  = PE                                                                  
   EATOM  =   432.3788 eV,   31.7789 Ry                                         
                                                                                
   TITEL  = PAW_PBE O 08Apr2002                                                 
   LULTRA =        F    use ultrasoft PP ?                                      
   IUNSCR =        1    unscreen: 0-lin 1-nonlin 2-no                           
   RPACOR =    1.200    partial core radius                                     
   POMASS =   16.000; ZVAL   =    6.000    mass and valenz                      
   RCORE  =    1.520    outmost cutoff radius                                   
   RWIGS  =    1.550; RWIGS  =    0.820    wigner-seitz radius (au A)           
   ENMAX  =  400.000; ENMIN  =  300.000 eV                                      
   ICORE  =        2    local potential                                         
   LCOR   =        T    correct aug charges                                     
   LPAW   =        T    paw PP                                                  
   EAUG   =  605.392                                                            
   DEXC   =    0.000                                                            
   RMAX   =    1.553    core radius for proj-oper                               
   RAUG   =    1.300    factor for augmentation sphere                          
   RDEP   =    1.550    radius for radial grids                                 
   RDEPT  =    1.329    core radius for aug-charge                              
                                                                                
   Atomic configuration                                                         
    4 entries                                                                   
     n  l   j            E        occ.                                          
     1  0  0.50      -514.6923   2.0000                                         
     2  0  0.50       -23.9615   2.0000                                         
     2  1  0.50        -9.0305   4.0000                                         
     3  2  1.50        -9.5241   0.0000                                         
   Description                                                                  
     l       E           TYP  RCUT    TYP  RCUT                                 
     0    -23.9615318     23  1.200                                             
     0     -9.5240782     23  1.200                                             
     1     -9.0304911     23  1.520                                             
     1      8.1634956     23  1.520                                             
     2     -9.5240782      7  1.500                                             
  local pseudopotential read in
  partial core-charges read in
  partial kinetic energy density read in
  kinetic energy density of atom read in
  atomic valenz-charges read in
  non local Contribution for L=           0  read in
    real space projection operators read in
  non local Contribution for L=           0  read in
    real space projection operators read in
  non local Contribution for L=           1  read in
    real space projection operators read in
  non local Contribution for L=           1  read in
    real space projection operators read in
    PAW grid and wavefunctions read in
 
   number of l-projection  operators is LMAX  =           4
   number of lm-projection operators is LMMAX =           8
 

 ----------------------------------------------------------------------------- 
|                                                                             |
|  ADVICE TO THIS USER RUNNING 'VASP/VAMP'   (HEAR YOUR MASTER'S VOICE ...):  |
|                                                                             |
|      You have a (more or less) 'small supercell' and for smaller cells      |
|      it is recommended  to use the reciprocal-space projection scheme!      |
|      The real space optimization is not  efficient for small cells and it   |
|      is also less accurate ...                                              |
|      Therefore set LREAL=.FALSE. in the  INCAR file                         |
|                                                                             |
 ----------------------------------------------------------------------------- 

 Optimization of the real space projectors (new method)

 maximal supplied QI-value         = 13.42
 optimisation between [QCUT,QGAM] = [ 11.67, 23.35] = [ 38.16,152.62] Ry 
 Optimized for a Real-space Cutoff    1.63 Angstroem

   l    n(q)    QCUT    max X(q) W(low)/X(q) W(high)/X(q)  e(spline) 
   0     11    11.673    10.400    0.14E-04    0.18E-05    0.24E-07
   0     11    11.673    10.768    0.21E-04    0.32E-05    0.49E-07
   1     11    11.673     4.094    0.40E-05    0.13E-04    0.93E-07
   1     11    11.673     4.009    0.11E-04    0.46E-04    0.33E-06
   2     10    11.673    29.030    0.79E-04    0.60E-04    0.70E-06
   2     10    11.673    19.941    0.80E-04    0.60E-04    0.71E-06
   3     10    11.673    88.889    0.23E-03    0.29E-03    0.30E-06
   3     10    11.673    76.102    0.23E-03    0.30E-03    0.30E-06
 Optimization of the real space projectors (new method)

 maximal supplied QI-value         = 24.76
 optimisation between [QCUT,QGAM] = [ 11.64, 23.27] = [ 37.91,151.63] Ry 
 Optimized for a Real-space Cutoff    1.14 Angstroem

   l    n(q)    QCUT    max X(q) W(low)/X(q) W(high)/X(q)  e(spline) 
   0      8    11.635    20.381    0.10E-03    0.33E-03    0.24E-06
   0      8    11.635    15.268    0.11E-03    0.35E-03    0.26E-06
   1      7    11.635     5.964    0.24E-03    0.31E-03    0.30E-06
   1      7    11.635     5.382    0.22E-03    0.25E-03    0.26E-06
  PAW_PBE Eu 23Dec2003                  :
 energy of atom  1       EATOM=-2619.8085
 kinetic energy error for atom=    0.0015 (will be added to EATOM!!)
  PAW_PBE O 08Apr2002                   :
 energy of atom  2       EATOM= -432.3788
 kinetic energy error for atom=    0.0208 (will be added to EATOM!!)
 
 
 POSCAR: Eu1 O1                                  
  positions in direct lattice
  velocities in cartesian coordinates
 exchange correlation table for  LEXCH =        8
   RHO(1)=    0.500       N(1)  =     2000
   RHO(2)=  100.500       N(2)  =     4000
 


--------------------------------------------------------------------------------------------------------


 ion  position               nearest neighbor table
   1  0.000  0.000  0.000-   2 2.54   2 2.54   2 2.54   2 2.54   2 2.54   2 2.54
   2  0.500  0.500  0.500-   1 2.54   1 2.54   1 2.54   1 2.54   1 2.54   1 2.54
 
  LATTYP: Found a triclinic cell.
 ALAT       =    10.7777411448
 B/A-ratio  =     0.3333327015
 C/A-ratio  =     0.3333387864
 COS(alpha) =     0.0000001242
 COS(beta)  =     0.5000019158
 COS(gamma) =     0.8333316112
  
  Lattice vectors:
  
 A1 = (  -5.3888830000,  -3.1112070000,   8.8000020000)
 A2 = (  -1.7962530000,   1.0371170000,   2.9333340000)
 A3 = (  -1.7963850000,  -3.1112790000,   0.0000000000)


Analysis of symmetry for initial positions (statically):
=====================================================================
 Subroutine PRICEL returns:
 Original cell was already a primitive cell.
 

 Routine SETGRP: Setting up the symmetry group for a 
 triclinic supercell.


 Subroutine GETGRP returns: Found  2 space group operations
 (whereof  2 operations were pure point group operations)
 out of a pool of  2 trial point group operations.


The static configuration has the point symmetry S_2 .


Analysis of symmetry for dynamics (positions and initial velocities):
=====================================================================
 Subroutine PRICEL returns:
 Original cell was already a primitive cell.
 

 Routine SETGRP: Setting up the symmetry group for a 
 triclinic supercell.


 Subroutine GETGRP returns: Found  2 space group operations
 (whereof  2 operations were pure point group operations)
 out of a pool of  2 trial point group operations.


The dynamic configuration has the point symmetry S_2 .


Analysis of structural, dynamic, and magnetic symmetry:
=====================================================================
 Subroutine PRICEL returns:
 Original cell was already a primitive cell.
 

 Routine SETGRP: Setting up the symmetry group for a 
 triclinic supercell.


 Subroutine GETGRP returns: Found  2 space group operations
 (whereof  2 operations were pure point group operations)
 out of a pool of  2 trial point group operations.


The magnetic configuration has the point symmetry S_2 .


 Subroutine INISYM returns: Found  2 space group operations
 (whereof  2 operations are pure point group operations),
 and found     1 'primitive' translations

 
 
 KPOINTS: pymatgen v2019.10.16 with grid density =

Automatic generation of k-mesh.
Space group operators:
 irot       det(A)        alpha          n_x          n_y          n_z        tau_x        tau_y        tau_z
    1     1.000000     0.000001     1.000000     0.000000     0.000000     0.000000     0.000000     0.000000
    2    -1.000000     0.000001     1.000000     0.000000     0.000000     0.000000     0.000000     0.000000
 
 Subroutine IBZKPT returns following result:
 ===========================================
 
 Found   1099 irreducible k-points:
 
 Following reciprocal coordinates:
            Coordinates               Weight
  0.000000  0.000000  0.000000      1.000000
  0.076923 -0.000000  0.000000      2.000000
  0.153846  0.000000  0.000000      2.000000
  0.230769  0.000000  0.000000      2.000000
  0.307692  0.000000  0.000000      2.000000
  0.384615 -0.000000  0.000000      2.000000
  0.461538  0.000000  0.000000      2.000000
  0.000000  0.076923  0.000000      2.000000
  0.076923  0.076923  0.000000      2.000000
  0.153846  0.076923  0.000000      2.000000
  0.230769  0.076923  0.000000      2.000000
  0.307692  0.076923  0.000000      2.000000
  0.384615  0.076923  0.000000      2.000000
  0.461538  0.076923  0.000000      2.000000
 -0.461538  0.076923 -0.000000      2.000000
 -0.384615  0.076923 -0.000000      2.000000
 -0.307692  0.076923  0.000000      2.000000
 -0.230769  0.076923 -0.000000      2.000000
 -0.153846  0.076923  0.000000      2.000000
 -0.076923  0.076923  0.000000      2.000000
  0.000000  0.153846  0.000000      2.000000
  0.076923  0.153846  0.000000      2.000000
  0.153846  0.153846  0.000000      2.000000
  0.230769  0.153846  0.000000      2.000000
  0.307692  0.153846  0.000000      2.000000
  0.384615  0.153846  0.000000      2.000000
  0.461538  0.153846  0.000000      2.000000
 -0.461538  0.153846 -0.000000      2.000000
 -0.384615  0.153846 -0.000000      2.000000
 -0.307692  0.153846  0.000000      2.000000
 -0.230769  0.153846  0.000000      2.000000
 -0.153846  0.153846  0.000000      2.000000
 -0.076923  0.153846  0.000000      2.000000
  0.000000  0.230769  0.000000      2.000000
  0.076923  0.230769  0.000000      2.000000
  0.153846  0.230769  0.000000      2.000000
  0.230769  0.230769  0.000000      2.000000
  0.307692  0.230769  0.000000      2.000000
  0.384615  0.230769  0.000000      2.000000
  0.461538  0.230769  0.000000      2.000000
 -0.461538  0.230769 -0.000000      2.000000
 -0.384615  0.230769 -0.000000      2.000000
 -0.307692  0.230769  0.000000      2.000000
 -0.230769  0.230769 -0.000000      2.000000
 -0.153846  0.230769  0.000000      2.000000
 -0.076923  0.230769  0.000000      2.000000
  0.000000  0.307692  0.000000      2.000000
  0.076923  0.307692  0.000000      2.000000
  0.153846  0.307692  0.000000      2.000000
  0.230769  0.307692  0.000000      2.000000
  0.307692  0.307692 -0.000000      2.000000
  0.384615  0.307692  0.000000      2.000000
  0.461538  0.307692  0.000000      2.000000
 -0.461538  0.307692 -0.000000      2.000000
 -0.384615  0.307692 -0.000000      2.000000
 -0.307692  0.307692  0.000000      2.000000
 -0.230769  0.307692  0.000000      2.000000
 -0.153846  0.307692  0.000000      2.000000
 -0.076923  0.307692  0.000000      2.000000
  0.000000  0.384615  0.000000      2.000000
  0.076923  0.384615  0.000000      2.000000
  0.153846  0.384615  0.000000      2.000000
  0.230769  0.384615  0.000000      2.000000
  0.307692  0.384615  0.000000      2.000000
  0.384615  0.384615  0.000000      2.000000
  0.461538  0.384615  0.000000      2.000000
 -0.461538  0.384615 -0.000000      2.000000
 -0.384615  0.384615 -0.000000      2.000000
 -0.307692  0.384615  0.000000      2.000000
 -0.230769  0.384615  0.000000      2.000000
 -0.153846  0.384615  0.000000      2.000000
 -0.076923  0.384615  0.000000      2.000000
  0.000000  0.461538  0.000000      2.000000
  0.076923  0.461538  0.000000      2.000000
  0.153846  0.461538  0.000000      2.000000
  0.230769  0.461538  0.000000      2.000000
  0.307692  0.461538  0.000000      2.000000
  0.384615  0.461538  0.000000      2.000000
  0.461538  0.461538  0.000000      2.000000
 -0.461538  0.461538 -0.000000      2.000000
 -0.384615  0.461538  0.000000      2.000000
 -0.307692  0.461538  0.000000      2.000000
 -0.230769  0.461538  0.000000      2.000000
 -0.153846  0.461538  0.000000      2.000000
 -0.076923  0.461538  0.000000      2.000000
  0.000000  0.000000  0.076923      2.000000
  0.076923 -0.000000  0.076923      2.000000
  0.153846  0.000000  0.076923      2.000000
  0.230769  0.000000  0.076923      2.000000
  0.307692  0.000000  0.076923      2.000000
  0.384615 -0.000000  0.076923      2.000000
  0.461538  0.000000  0.076923      2.000000
 -0.461538 -0.000000  0.076923      2.000000
 -0.384615  0.000000  0.076923      2.000000
 -0.307692  0.000000  0.076923      2.000000
 -0.230769 -0.000000  0.076923      2.000000
 -0.153846  0.000000  0.076923      2.000000
 -0.076923  0.000000  0.076923      2.000000
  0.000000  0.076923  0.076923      2.000000
  0.076923  0.076923  0.076923      2.000000
  0.153846  0.076923  0.076923      2.000000
  0.230769  0.076923  0.076923      2.000000
  0.307692  0.076923  0.076923      2.000000
  0.384615  0.076923  0.076923      2.000000
  0.461538  0.076923  0.076923      2.000000
 -0.461538  0.076923  0.076923      2.000000
 -0.384615  0.076923  0.076923      2.000000
 -0.307692  0.076923  0.076923      2.000000
 -0.230769  0.076923  0.076923      2.000000
 -0.153846  0.076923  0.076923      2.000000
 -0.076923  0.076923  0.076923      2.000000
  0.000000  0.153846  0.076923      2.000000
  0.076923  0.153846  0.076923      2.000000
  0.153846  0.153846  0.076923      2.000000
  0.230769  0.153846  0.076923      2.000000
  0.307692  0.153846  0.076923      2.000000
  0.384615  0.153846  0.076923      2.000000
  0.461538  0.153846  0.076923      2.000000
 -0.461538  0.153846  0.076923      2.000000
 -0.384615  0.153846  0.076923      2.000000
 -0.307692  0.153846  0.076923      2.000000
 -0.230769  0.153846  0.076923      2.000000
 -0.153846  0.153846  0.076923      2.000000
 -0.076923  0.153846  0.076923      2.000000
  0.000000  0.230769  0.076923      2.000000
  0.076923  0.230769  0.076923      2.000000
  0.153846  0.230769  0.076923      2.000000
  0.230769  0.230769  0.076923      2.000000
  0.307692  0.230769  0.076923      2.000000
  0.384615  0.230769  0.076923      2.000000
  0.461538  0.230769  0.076923      2.000000
 -0.461538  0.230769  0.076923      2.000000
 -0.384615  0.230769  0.076923      2.000000
 -0.307692  0.230769  0.076923      2.000000
 -0.230769  0.230769  0.076923      2.000000
 -0.153846  0.230769  0.076923      2.000000
 -0.076923  0.230769  0.076923      2.000000
  0.000000  0.307692  0.076923      2.000000
  0.076923  0.307692  0.076923      2.000000
  0.153846  0.307692  0.076923      2.000000
  0.230769  0.307692  0.076923      2.000000
  0.307692  0.307692  0.076923      2.000000
  0.384615  0.307692  0.076923      2.000000
  0.461538  0.307692  0.076923      2.000000
 -0.461538  0.307692  0.076923      2.000000
 -0.384615  0.307692  0.076923      2.000000
 -0.307692  0.307692  0.076923      2.000000
 -0.230769  0.307692  0.076923      2.000000
 -0.153846  0.307692  0.076923      2.000000
 -0.076923  0.307692  0.076923      2.000000
  0.000000  0.384615  0.076923      2.000000
  0.076923  0.384615  0.076923      2.000000
  0.153846  0.384615  0.076923      2.000000
  0.230769  0.384615  0.076923      2.000000
  0.307692  0.384615  0.076923      2.000000
  0.384615  0.384615  0.076923      2.000000
  0.461538  0.384615  0.076923      2.000000
 -0.461538  0.384615  0.076923      2.000000
 -0.384615  0.384615  0.076923      2.000000
 -0.307692  0.384615  0.076923      2.000000
 -0.230769  0.384615  0.076923      2.000000
 -0.153846  0.384615  0.076923      2.000000
 -0.076923  0.384615  0.076923      2.000000
  0.000000  0.461538  0.076923      2.000000
  0.076923  0.461538  0.076923      2.000000
  0.153846  0.461538  0.076923      2.000000
  0.230769  0.461538  0.076923      2.000000
  0.307692  0.461538  0.076923      2.000000
  0.384615  0.461538  0.076923      2.000000
  0.461538  0.461538  0.076923      2.000000
 -0.461538  0.461538  0.076923      2.000000
 -0.384615  0.461538  0.076923      2.000000
 -0.307692  0.461538  0.076923      2.000000
 -0.230769  0.461538  0.076923      2.000000
 -0.153846  0.461538  0.076923      2.000000
 -0.076923  0.461538  0.076923      2.000000
  0.000000 -0.461538  0.076923      2.000000
  0.076923 -0.461538  0.076923      2.000000
  0.153846 -0.461538  0.076923      2.000000
  0.230769 -0.461538  0.076923      2.000000
  0.307692 -0.461538  0.076923      2.000000
  0.384615 -0.461538  0.076923      2.000000
  0.461538 -0.461538  0.076923      2.000000
 -0.461538 -0.461538  0.076923      2.000000
 -0.384615 -0.461538  0.076923      2.000000
 -0.307692 -0.461538  0.076923      2.000000
 -0.230769 -0.461538  0.076923      2.000000
 -0.153846 -0.461538  0.076923      2.000000
 -0.076923 -0.461538  0.076923      2.000000
  0.000000 -0.384615  0.076923      2.000000
  0.076923 -0.384615  0.076923      2.000000
  0.153846 -0.384615  0.076923      2.000000
  0.230769 -0.384615  0.076923      2.000000
  0.307692 -0.384615  0.076923      2.000000
  0.384615 -0.384615  0.076923      2.000000
  0.461538 -0.384615  0.076923      2.000000
 -0.461538 -0.384615  0.076923      2.000000
 -0.384615 -0.384615  0.076923      2.000000
 -0.307692 -0.384615  0.076923      2.000000
 -0.230769 -0.384615  0.076923      2.000000
 -0.153846 -0.384615  0.076923      2.000000
 -0.076923 -0.384615  0.076923      2.000000
  0.000000 -0.307692  0.076923      2.000000
  0.076923 -0.307692  0.076923      2.000000
  0.153846 -0.307692  0.076923      2.000000
  0.230769 -0.307692  0.076923      2.000000
  0.307692 -0.307692  0.076923      2.000000
  0.384615 -0.307692  0.076923      2.000000
  0.461538 -0.307692  0.076923      2.000000
 -0.461538 -0.307692  0.076923      2.000000
 -0.384615 -0.307692  0.076923      2.000000
 -0.307692 -0.307692  0.076923      2.000000
 -0.230769 -0.307692  0.076923      2.000000
 -0.153846 -0.307692  0.076923      2.000000
 -0.076923 -0.307692  0.076923      2.000000
  0.000000 -0.230769  0.076923      2.000000
  0.076923 -0.230769  0.076923      2.000000
  0.153846 -0.230769  0.076923      2.000000
  0.230769 -0.230769  0.076923      2.000000
  0.307692 -0.230769  0.076923      2.000000
  0.384615 -0.230769  0.076923      2.000000
  0.461538 -0.230769  0.076923      2.000000
 -0.461538 -0.230769  0.076923      2.000000
 -0.384615 -0.230769  0.076923      2.000000
 -0.307692 -0.230769  0.076923      2.000000
 -0.230769 -0.230769  0.076923      2.000000
 -0.153846 -0.230769  0.076923      2.000000
 -0.076923 -0.230769  0.076923      2.000000
  0.000000 -0.153846  0.076923      2.000000
  0.076923 -0.153846  0.076923      2.000000
  0.153846 -0.153846  0.076923      2.000000
  0.230769 -0.153846  0.076923      2.000000
  0.307692 -0.153846  0.076923      2.000000
  0.384615 -0.153846  0.076923      2.000000
  0.461538 -0.153846  0.076923      2.000000
 -0.461538 -0.153846  0.076923      2.000000
 -0.384615 -0.153846  0.076923      2.000000
 -0.307692 -0.153846  0.076923      2.000000
 -0.230769 -0.153846  0.076923      2.000000
 -0.153846 -0.153846  0.076923      2.000000
 -0.076923 -0.153846  0.076923      2.000000
  0.000000 -0.076923  0.076923      2.000000
  0.076923 -0.076923  0.076923      2.000000
  0.153846 -0.076923  0.076923      2.000000
  0.230769 -0.076923  0.076923      2.000000
  0.307692 -0.076923  0.076923      2.000000
  0.384615 -0.076923  0.076923      2.000000
  0.461538 -0.076923  0.076923      2.000000
 -0.461538 -0.076923  0.076923      2.000000
 -0.384615 -0.076923  0.076923      2.000000
 -0.307692 -0.076923  0.076923      2.000000
 -0.230769 -0.076923  0.076923      2.000000
 -0.153846 -0.076923  0.076923      2.000000
 -0.076923 -0.076923  0.076923      2.000000
  0.000000  0.000000  0.153846      2.000000
  0.076923 -0.000000  0.153846      2.000000
  0.153846  0.000000  0.153846      2.000000
  0.230769  0.000000  0.153846      2.000000
  0.307692  0.000000  0.153846      2.000000
  0.384615 -0.000000  0.153846      2.000000
  0.461538  0.000000  0.153846      2.000000
 -0.461538 -0.000000  0.153846      2.000000
 -0.384615  0.000000  0.153846      2.000000
 -0.307692  0.000000  0.153846      2.000000
 -0.230769 -0.000000  0.153846      2.000000
 -0.153846  0.000000  0.153846      2.000000
 -0.076923  0.000000  0.153846      2.000000
  0.000000  0.076923  0.153846      2.000000
  0.076923  0.076923  0.153846      2.000000
  0.153846  0.076923  0.153846      2.000000
  0.230769  0.076923  0.153846      2.000000
  0.307692  0.076923  0.153846      2.000000
  0.384615  0.076923  0.153846      2.000000
  0.461538  0.076923  0.153846      2.000000
 -0.461538  0.076923  0.153846      2.000000
 -0.384615  0.076923  0.153846      2.000000
 -0.307692  0.076923  0.153846      2.000000
 -0.230769  0.076923  0.153846      2.000000
 -0.153846  0.076923  0.153846      2.000000
 -0.076923  0.076923  0.153846      2.000000
  0.000000  0.153846  0.153846      2.000000
  0.076923  0.153846  0.153846      2.000000
  0.153846  0.153846  0.153846      2.000000
  0.230769  0.153846  0.153846      2.000000
  0.307692  0.153846  0.153846      2.000000
  0.384615  0.153846  0.153846      2.000000
  0.461538  0.153846  0.153846      2.000000
 -0.461538  0.153846  0.153846      2.000000
 -0.384615  0.153846  0.153846      2.000000
 -0.307692  0.153846  0.153846      2.000000
 -0.230769  0.153846  0.153846      2.000000
 -0.153846  0.153846  0.153846      2.000000
 -0.076923  0.153846  0.153846      2.000000
  0.000000  0.230769  0.153846      2.000000
  0.076923  0.230769  0.153846      2.000000
  0.153846  0.230769  0.153846      2.000000
  0.230769  0.230769  0.153846      2.000000
  0.307692  0.230769  0.153846      2.000000
  0.384615  0.230769  0.153846      2.000000
  0.461538  0.230769  0.153846      2.000000
 -0.461538  0.230769  0.153846      2.000000
 -0.384615  0.230769  0.153846      2.000000
 -0.307692  0.230769  0.153846      2.000000
 -0.230769  0.230769  0.153846      2.000000
 -0.153846  0.230769  0.153846      2.000000
 -0.076923  0.230769  0.153846      2.000000
  0.000000  0.307692  0.153846      2.000000
  0.076923  0.307692  0.153846      2.000000
  0.153846  0.307692  0.153846      2.000000
  0.230769  0.307692  0.153846      2.000000
  0.307692  0.307692  0.153846      2.000000
  0.384615  0.307692  0.153846      2.000000
  0.461538  0.307692  0.153846      2.000000
 -0.461538  0.307692  0.153846      2.000000
 -0.384615  0.307692  0.153846      2.000000
 -0.307692  0.307692  0.153846      2.000000
 -0.230769  0.307692  0.153846      2.000000
 -0.153846  0.307692  0.153846      2.000000
 -0.076923  0.307692  0.153846      2.000000
  0.000000  0.384615  0.153846      2.000000
  0.076923  0.384615  0.153846      2.000000
  0.153846  0.384615  0.153846      2.000000
  0.230769  0.384615  0.153846      2.000000
  0.307692  0.384615  0.153846      2.000000
  0.384615  0.384615  0.153846      2.000000
  0.461538  0.384615  0.153846      2.000000
 -0.461538  0.384615  0.153846      2.000000
 -0.384615  0.384615  0.153846      2.000000
 -0.307692  0.384615  0.153846      2.000000
 -0.230769  0.384615  0.153846      2.000000
 -0.153846  0.384615  0.153846      2.000000
 -0.076923  0.384615  0.153846      2.000000
  0.000000  0.461538  0.153846      2.000000
  0.076923  0.461538  0.153846      2.000000
  0.153846  0.461538  0.153846      2.000000
  0.230769  0.461538  0.153846      2.000000
  0.307692  0.461538  0.153846      2.000000
  0.384615  0.461538  0.153846      2.000000
  0.461538  0.461538  0.153846      2.000000
 -0.461538  0.461538  0.153846      2.000000
 -0.384615  0.461538  0.153846      2.000000
 -0.307692  0.461538  0.153846      2.000000
 -0.230769  0.461538  0.153846      2.000000
 -0.153846  0.461538  0.153846      2.000000
 -0.076923  0.461538  0.153846      2.000000
  0.000000 -0.461538  0.153846      2.000000
  0.076923 -0.461538  0.153846      2.000000
  0.153846 -0.461538  0.153846      2.000000
  0.230769 -0.461538  0.153846      2.000000
  0.307692 -0.461538  0.153846      2.000000
  0.384615 -0.461538  0.153846      2.000000
  0.461538 -0.461538  0.153846      2.000000
 -0.461538 -0.461538  0.153846      2.000000
 -0.384615 -0.461538  0.153846      2.000000
 -0.307692 -0.461538  0.153846      2.000000
 -0.230769 -0.461538  0.153846      2.000000
 -0.153846 -0.461538  0.153846      2.000000
 -0.076923 -0.461538  0.153846      2.000000
  0.000000 -0.384615  0.153846      2.000000
  0.076923 -0.384615  0.153846      2.000000
  0.153846 -0.384615  0.153846      2.000000
  0.230769 -0.384615  0.153846      2.000000
  0.307692 -0.384615  0.153846      2.000000
  0.384615 -0.384615  0.153846      2.000000
  0.461538 -0.384615  0.153846      2.000000
 -0.461538 -0.384615  0.153846      2.000000
 -0.384615 -0.384615  0.153846      2.000000
 -0.307692 -0.384615  0.153846      2.000000
 -0.230769 -0.384615  0.153846      2.000000
 -0.153846 -0.384615  0.153846      2.000000
 -0.076923 -0.384615  0.153846      2.000000
  0.000000 -0.307692  0.153846      2.000000
  0.076923 -0.307692  0.153846      2.000000
  0.153846 -0.307692  0.153846      2.000000
  0.230769 -0.307692  0.153846      2.000000
  0.307692 -0.307692  0.153846      2.000000
  0.384615 -0.307692  0.153846      2.000000
  0.461538 -0.307692  0.153846      2.000000
 -0.461538 -0.307692  0.153846      2.000000
 -0.384615 -0.307692  0.153846      2.000000
 -0.307692 -0.307692  0.153846      2.000000
 -0.230769 -0.307692  0.153846      2.000000
 -0.153846 -0.307692  0.153846      2.000000
 -0.076923 -0.307692  0.153846      2.000000
  0.000000 -0.230769  0.153846      2.000000
  0.076923 -0.230769  0.153846      2.000000
  0.153846 -0.230769  0.153846      2.000000
  0.230769 -0.230769  0.153846      2.000000
  0.307692 -0.230769  0.153846      2.000000
  0.384615 -0.230769  0.153846      2.000000
  0.461538 -0.230769  0.153846      2.000000
 -0.461538 -0.230769  0.153846      2.000000
 -0.384615 -0.230769  0.153846      2.000000
 -0.307692 -0.230769  0.153846      2.000000
 -0.230769 -0.230769  0.153846      2.000000
 -0.153846 -0.230769  0.153846      2.000000
 -0.076923 -0.230769  0.153846      2.000000
  0.000000 -0.153846  0.153846      2.000000
  0.076923 -0.153846  0.153846      2.000000
  0.153846 -0.153846  0.153846      2.000000
  0.230769 -0.153846  0.153846      2.000000
  0.307692 -0.153846  0.153846      2.000000
  0.384615 -0.153846  0.153846      2.000000
  0.461538 -0.153846  0.153846      2.000000
 -0.461538 -0.153846  0.153846      2.000000
 -0.384615 -0.153846  0.153846      2.000000
 -0.307692 -0.153846  0.153846      2.000000
 -0.230769 -0.153846  0.153846      2.000000
 -0.153846 -0.153846  0.153846      2.000000
 -0.076923 -0.153846  0.153846      2.000000
  0.000000 -0.076923  0.153846      2.000000
  0.076923 -0.076923  0.153846      2.000000
  0.153846 -0.076923  0.153846      2.000000
  0.230769 -0.076923  0.153846      2.000000
  0.307692 -0.076923  0.153846      2.000000
  0.384615 -0.076923  0.153846      2.000000
  0.461538 -0.076923  0.153846      2.000000
 -0.461538 -0.076923  0.153846      2.000000
 -0.384615 -0.076923  0.153846      2.000000
 -0.307692 -0.076923  0.153846      2.000000
 -0.230769 -0.076923  0.153846      2.000000
 -0.153846 -0.076923  0.153846      2.000000
 -0.076923 -0.076923  0.153846      2.000000
  0.000000  0.000000  0.230769      2.000000
  0.076923 -0.000000  0.230769      2.000000
  0.153846  0.000000  0.230769      2.000000
  0.230769  0.000000  0.230769      2.000000
  0.307692  0.000000  0.230769      2.000000
  0.384615 -0.000000  0.230769      2.000000
  0.461538  0.000000  0.230769      2.000000
 -0.461538 -0.000000  0.230769      2.000000
 -0.384615  0.000000  0.230769      2.000000
 -0.307692  0.000000  0.230769      2.000000
 -0.230769 -0.000000  0.230769      2.000000
 -0.153846  0.000000  0.230769      2.000000
 -0.076923  0.000000  0.230769      2.000000
  0.000000  0.076923  0.230769      2.000000
  0.076923  0.076923  0.230769      2.000000
  0.153846  0.076923  0.230769      2.000000
  0.230769  0.076923  0.230769      2.000000
  0.307692  0.076923  0.230769      2.000000
  0.384615  0.076923  0.230769      2.000000
  0.461538  0.076923  0.230769      2.000000
 -0.461538  0.076923  0.230769      2.000000
 -0.384615  0.076923  0.230769      2.000000
 -0.307692  0.076923  0.230769      2.000000
 -0.230769  0.076923  0.230769      2.000000
 -0.153846  0.076923  0.230769      2.000000
 -0.076923  0.076923  0.230769      2.000000
  0.000000  0.153846  0.230769      2.000000
  0.076923  0.153846  0.230769      2.000000
  0.153846  0.153846  0.230769      2.000000
  0.230769  0.153846  0.230769      2.000000
  0.307692  0.153846  0.230769      2.000000
  0.384615  0.153846  0.230769      2.000000
  0.461538  0.153846  0.230769      2.000000
 -0.461538  0.153846  0.230769      2.000000
 -0.384615  0.153846  0.230769      2.000000
 -0.307692  0.153846  0.230769      2.000000
 -0.230769  0.153846  0.230769      2.000000
 -0.153846  0.153846  0.230769      2.000000
 -0.076923  0.153846  0.230769      2.000000
  0.000000  0.230769  0.230769      2.000000
  0.076923  0.230769  0.230769      2.000000
  0.153846  0.230769  0.230769      2.000000
  0.230769  0.230769  0.230769      2.000000
  0.307692  0.230769  0.230769      2.000000
  0.384615  0.230769  0.230769      2.000000
  0.461538  0.230769  0.230769      2.000000
 -0.461538  0.230769  0.230769      2.000000
 -0.384615  0.230769  0.230769      2.000000
 -0.307692  0.230769  0.230769      2.000000
 -0.230769  0.230769  0.230769      2.000000
 -0.153846  0.230769  0.230769      2.000000
 -0.076923  0.230769  0.230769      2.000000
  0.000000  0.307692  0.230769      2.000000
  0.076923  0.307692  0.230769      2.000000
  0.153846  0.307692  0.230769      2.000000
  0.230769  0.307692  0.230769      2.000000
  0.307692  0.307692  0.230769      2.000000
  0.384615  0.307692  0.230769      2.000000
  0.461538  0.307692  0.230769      2.000000
 -0.461538  0.307692  0.230769      2.000000
 -0.384615  0.307692  0.230769      2.000000
 -0.307692  0.307692  0.230769      2.000000
 -0.230769  0.307692  0.230769      2.000000
 -0.153846  0.307692  0.230769      2.000000
 -0.076923  0.307692  0.230769      2.000000
  0.000000  0.384615  0.230769      2.000000
  0.076923  0.384615  0.230769      2.000000
  0.153846  0.384615  0.230769      2.000000
  0.230769  0.384615  0.230769      2.000000
  0.307692  0.384615  0.230769      2.000000
  0.384615  0.384615  0.230769      2.000000
  0.461538  0.384615  0.230769      2.000000
 -0.461538  0.384615  0.230769      2.000000
 -0.384615  0.384615  0.230769      2.000000
 -0.307692  0.384615  0.230769      2.000000
 -0.230769  0.384615  0.230769      2.000000
 -0.153846  0.384615  0.230769      2.000000
 -0.076923  0.384615  0.230769      2.000000
  0.000000  0.461538  0.230769      2.000000
  0.076923  0.461538  0.230769      2.000000
  0.153846  0.461538  0.230769      2.000000
  0.230769  0.461538  0.230769      2.000000
  0.307692  0.461538  0.230769      2.000000
  0.384615  0.461538  0.230769      2.000000
  0.461538  0.461538  0.230769      2.000000
 -0.461538  0.461538  0.230769      2.000000
 -0.384615  0.461538  0.230769      2.000000
 -0.307692  0.461538  0.230769      2.000000
 -0.230769  0.461538  0.230769      2.000000
 -0.153846  0.461538  0.230769      2.000000
 -0.076923  0.461538  0.230769      2.000000
  0.000000 -0.461538  0.230769      2.000000
  0.076923 -0.461538  0.230769      2.000000
  0.153846 -0.461538  0.230769      2.000000
  0.230769 -0.461538  0.230769      2.000000
  0.307692 -0.461538  0.230769      2.000000
  0.384615 -0.461538  0.230769      2.000000
  0.461538 -0.461538  0.230769      2.000000
 -0.461538 -0.461538  0.230769      2.000000
 -0.384615 -0.461538  0.230769      2.000000
 -0.307692 -0.461538  0.230769      2.000000
 -0.230769 -0.461538  0.230769      2.000000
 -0.153846 -0.461538  0.230769      2.000000
 -0.076923 -0.461538  0.230769      2.000000
  0.000000 -0.384615  0.230769      2.000000
  0.076923 -0.384615  0.230769      2.000000
  0.153846 -0.384615  0.230769      2.000000
  0.230769 -0.384615  0.230769      2.000000
  0.307692 -0.384615  0.230769      2.000000
  0.384615 -0.384615  0.230769      2.000000
  0.461538 -0.384615  0.230769      2.000000
 -0.461538 -0.384615  0.230769      2.000000
 -0.384615 -0.384615  0.230769      2.000000
 -0.307692 -0.384615  0.230769      2.000000
 -0.230769 -0.384615  0.230769      2.000000
 -0.153846 -0.384615  0.230769      2.000000
 -0.076923 -0.384615  0.230769      2.000000
  0.000000 -0.307692  0.230769      2.000000
  0.076923 -0.307692  0.230769      2.000000
  0.153846 -0.307692  0.230769      2.000000
  0.230769 -0.307692  0.230769      2.000000
  0.307692 -0.307692  0.230769      2.000000
  0.384615 -0.307692  0.230769      2.000000
  0.461538 -0.307692  0.230769      2.000000
 -0.461538 -0.307692  0.230769      2.000000
 -0.384615 -0.307692  0.230769      2.000000
 -0.307692 -0.307692  0.230769      2.000000
 -0.230769 -0.307692  0.230769      2.000000
 -0.153846 -0.307692  0.230769      2.000000
 -0.076923 -0.307692  0.230769      2.000000
  0.000000 -0.230769  0.230769      2.000000
  0.076923 -0.230769  0.230769      2.000000
  0.153846 -0.230769  0.230769      2.000000
  0.230769 -0.230769  0.230769      2.000000
  0.307692 -0.230769  0.230769      2.000000
  0.384615 -0.230769  0.230769      2.000000
  0.461538 -0.230769  0.230769      2.000000
 -0.461538 -0.230769  0.230769      2.000000
 -0.384615 -0.230769  0.230769      2.000000
 -0.307692 -0.230769  0.230769      2.000000
 -0.230769 -0.230769  0.230769      2.000000
 -0.153846 -0.230769  0.230769      2.000000
 -0.076923 -0.230769  0.230769      2.000000
  0.000000 -0.153846  0.230769      2.000000
  0.076923 -0.153846  0.230769      2.000000
  0.153846 -0.153846  0.230769      2.000000
  0.230769 -0.153846  0.230769      2.000000
  0.307692 -0.153846  0.230769      2.000000
  0.384615 -0.153846  0.230769      2.000000
  0.461538 -0.153846  0.230769      2.000000
 -0.461538 -0.153846  0.230769      2.000000
 -0.384615 -0.153846  0.230769      2.000000
 -0.307692 -0.153846  0.230769      2.000000
 -0.230769 -0.153846  0.230769      2.000000
 -0.153846 -0.153846  0.230769      2.000000
 -0.076923 -0.153846  0.230769      2.000000
  0.000000 -0.076923  0.230769      2.000000
  0.076923 -0.076923  0.230769      2.000000
  0.153846 -0.076923  0.230769      2.000000
  0.230769 -0.076923  0.230769      2.000000
  0.307692 -0.076923  0.230769      2.000000
  0.384615 -0.076923  0.230769      2.000000
  0.461538 -0.076923  0.230769      2.000000
 -0.461538 -0.076923  0.230769      2.000000
 -0.384615 -0.076923  0.230769      2.000000
 -0.307692 -0.076923  0.230769      2.000000
 -0.230769 -0.076923  0.230769      2.000000
 -0.153846 -0.076923  0.230769      2.000000
 -0.076923 -0.076923  0.230769      2.000000
  0.000000  0.000000  0.307692      2.000000
  0.076923 -0.000000  0.307692      2.000000
  0.153846  0.000000  0.307692      2.000000
  0.230769  0.000000  0.307692      2.000000
  0.307692  0.000000  0.307692      2.000000
  0.384615 -0.000000  0.307692      2.000000
  0.461538  0.000000  0.307692      2.000000
 -0.461538 -0.000000  0.307692      2.000000
 -0.384615  0.000000  0.307692      2.000000
 -0.307692  0.000000  0.307692      2.000000
 -0.230769 -0.000000  0.307692      2.000000
 -0.153846  0.000000  0.307692      2.000000
 -0.076923  0.000000  0.307692      2.000000
  0.000000  0.076923  0.307692      2.000000
  0.076923  0.076923  0.307692      2.000000
  0.153846  0.076923  0.307692      2.000000
  0.230769  0.076923  0.307692      2.000000
  0.307692  0.076923  0.307692      2.000000
  0.384615  0.076923  0.307692      2.000000
  0.461538  0.076923  0.307692      2.000000
 -0.461538  0.076923  0.307692      2.000000
 -0.384615  0.076923  0.307692      2.000000
 -0.307692  0.076923  0.307692      2.000000
 -0.230769  0.076923  0.307692      2.000000
 -0.153846  0.076923  0.307692      2.000000
 -0.076923  0.076923  0.307692      2.000000
  0.000000  0.153846  0.307692      2.000000
  0.076923  0.153846  0.307692      2.000000
  0.153846  0.153846  0.307692      2.000000
  0.230769  0.153846  0.307692      2.000000
  0.307692  0.153846  0.307692      2.000000
  0.384615  0.153846  0.307692      2.000000
  0.461538  0.153846  0.307692      2.000000
 -0.461538  0.153846  0.307692      2.000000
 -0.384615  0.153846  0.307692      2.000000
 -0.307692  0.153846  0.307692      2.000000
 -0.230769  0.153846  0.307692      2.000000
 -0.153846  0.153846  0.307692      2.000000
 -0.076923  0.153846  0.307692      2.000000
  0.000000  0.230769  0.307692      2.000000
  0.076923  0.230769  0.307692      2.000000
  0.153846  0.230769  0.307692      2.000000
  0.230769  0.230769  0.307692      2.000000
  0.307692  0.230769  0.307692      2.000000
  0.384615  0.230769  0.307692      2.000000
  0.461538  0.230769  0.307692      2.000000
 -0.461538  0.230769  0.307692      2.000000
 -0.384615  0.230769  0.307692      2.000000
 -0.307692  0.230769  0.307692      2.000000
 -0.230769  0.230769  0.307692      2.000000
 -0.153846  0.230769  0.307692      2.000000
 -0.076923  0.230769  0.307692      2.000000
  0.000000  0.307692  0.307692      2.000000
  0.076923  0.307692  0.307692      2.000000
  0.153846  0.307692  0.307692      2.000000
  0.230769  0.307692  0.307692      2.000000
  0.307692  0.307692  0.307692      2.000000
  0.384615  0.307692  0.307692      2.000000
  0.461538  0.307692  0.307692      2.000000
 -0.461538  0.307692  0.307692      2.000000
 -0.384615  0.307692  0.307692      2.000000
 -0.307692  0.307692  0.307692      2.000000
 -0.230769  0.307692  0.307692      2.000000
 -0.153846  0.307692  0.307692      2.000000
 -0.076923  0.307692  0.307692      2.000000
  0.000000  0.384615  0.307692      2.000000
  0.076923  0.384615  0.307692      2.000000
  0.153846  0.384615  0.307692      2.000000
  0.230769  0.384615  0.307692      2.000000
  0.307692  0.384615  0.307692      2.000000
  0.384615  0.384615  0.307692      2.000000
  0.461538  0.384615  0.307692      2.000000
 -0.461538  0.384615  0.307692      2.000000
 -0.384615  0.384615  0.307692      2.000000
 -0.307692  0.384615  0.307692      2.000000
 -0.230769  0.384615  0.307692      2.000000
 -0.153846  0.384615  0.307692      2.000000
 -0.076923  0.384615  0.307692      2.000000
  0.000000  0.461538  0.307692      2.000000
  0.076923  0.461538  0.307692      2.000000
  0.153846  0.461538  0.307692      2.000000
  0.230769  0.461538  0.307692      2.000000
  0.307692  0.461538  0.307692      2.000000
  0.384615  0.461538  0.307692      2.000000
  0.461538  0.461538  0.307692      2.000000
 -0.461538  0.461538  0.307692      2.000000
 -0.384615  0.461538  0.307692      2.000000
 -0.307692  0.461538  0.307692      2.000000
 -0.230769  0.461538  0.307692      2.000000
 -0.153846  0.461538  0.307692      2.000000
 -0.076923  0.461538  0.307692      2.000000
  0.000000 -0.461538  0.307692      2.000000
  0.076923 -0.461538  0.307692      2.000000
  0.153846 -0.461538  0.307692      2.000000
  0.230769 -0.461538  0.307692      2.000000
  0.307692 -0.461538  0.307692      2.000000
  0.384615 -0.461538  0.307692      2.000000
  0.461538 -0.461538  0.307692      2.000000
 -0.461538 -0.461538  0.307692      2.000000
 -0.384615 -0.461538  0.307692      2.000000
 -0.307692 -0.461538  0.307692      2.000000
 -0.230769 -0.461538  0.307692      2.000000
 -0.153846 -0.461538  0.307692      2.000000
 -0.076923 -0.461538  0.307692      2.000000
  0.000000 -0.384615  0.307692      2.000000
  0.076923 -0.384615  0.307692      2.000000
  0.153846 -0.384615  0.307692      2.000000
  0.230769 -0.384615  0.307692      2.000000
  0.307692 -0.384615  0.307692      2.000000
  0.384615 -0.384615  0.307692      2.000000
  0.461538 -0.384615  0.307692      2.000000
 -0.461538 -0.384615  0.307692      2.000000
 -0.384615 -0.384615  0.307692      2.000000
 -0.307692 -0.384615  0.307692      2.000000
 -0.230769 -0.384615  0.307692      2.000000
 -0.153846 -0.384615  0.307692      2.000000
 -0.076923 -0.384615  0.307692      2.000000
  0.000000 -0.307692  0.307692      2.000000
  0.076923 -0.307692  0.307692      2.000000
  0.153846 -0.307692  0.307692      2.000000
  0.230769 -0.307692  0.307692      2.000000
  0.307692 -0.307692  0.307692      2.000000
  0.384615 -0.307692  0.307692      2.000000
  0.461538 -0.307692  0.307692      2.000000
 -0.461538 -0.307692  0.307692      2.000000
 -0.384615 -0.307692  0.307692      2.000000
 -0.307692 -0.307692  0.307692      2.000000
 -0.230769 -0.307692  0.307692      2.000000
 -0.153846 -0.307692  0.307692      2.000000
 -0.076923 -0.307692  0.307692      2.000000
  0.000000 -0.230769  0.307692      2.000000
  0.076923 -0.230769  0.307692      2.000000
  0.153846 -0.230769  0.307692      2.000000
  0.230769 -0.230769  0.307692      2.000000
  0.307692 -0.230769  0.307692      2.000000
  0.384615 -0.230769  0.307692      2.000000
  0.461538 -0.230769  0.307692      2.000000
 -0.461538 -0.230769  0.307692      2.000000
 -0.384615 -0.230769  0.307692      2.000000
 -0.307692 -0.230769  0.307692      2.000000
 -0.230769 -0.230769  0.307692      2.000000
 -0.153846 -0.230769  0.307692      2.000000
 -0.076923 -0.230769  0.307692      2.000000
  0.000000 -0.153846  0.307692      2.000000
  0.076923 -0.153846  0.307692      2.000000
  0.153846 -0.153846  0.307692      2.000000
  0.230769 -0.153846  0.307692      2.000000
  0.307692 -0.153846  0.307692      2.000000
  0.384615 -0.153846  0.307692      2.000000
  0.461538 -0.153846  0.307692      2.000000
 -0.461538 -0.153846  0.307692      2.000000
 -0.384615 -0.153846  0.307692      2.000000
 -0.307692 -0.153846  0.307692      2.000000
 -0.230769 -0.153846  0.307692      2.000000
 -0.153846 -0.153846  0.307692      2.000000
 -0.076923 -0.153846  0.307692      2.000000
  0.000000 -0.076923  0.307692      2.000000
  0.076923 -0.076923  0.307692      2.000000
  0.153846 -0.076923  0.307692      2.000000
  0.230769 -0.076923  0.307692      2.000000
  0.307692 -0.076923  0.307692      2.000000
  0.384615 -0.076923  0.307692      2.000000
  0.461538 -0.076923  0.307692      2.000000
 -0.461538 -0.076923  0.307692      2.000000
 -0.384615 -0.076923  0.307692      2.000000
 -0.307692 -0.076923  0.307692      2.000000
 -0.230769 -0.076923  0.307692      2.000000
 -0.153846 -0.076923  0.307692      2.000000
 -0.076923 -0.076923  0.307692      2.000000
  0.000000  0.000000  0.384615      2.000000
  0.076923 -0.000000  0.384615      2.000000
  0.153846  0.000000  0.384615      2.000000
  0.230769  0.000000  0.384615      2.000000
  0.307692  0.000000  0.384615      2.000000
  0.384615 -0.000000  0.384615      2.000000
  0.461538  0.000000  0.384615      2.000000
 -0.461538 -0.000000  0.384615      2.000000
 -0.384615  0.000000  0.384615      2.000000
 -0.307692  0.000000  0.384615      2.000000
 -0.230769 -0.000000  0.384615      2.000000
 -0.153846  0.000000  0.384615      2.000000
 -0.076923  0.000000  0.384615      2.000000
  0.000000  0.076923  0.384615      2.000000
  0.076923  0.076923  0.384615      2.000000
  0.153846  0.076923  0.384615      2.000000
  0.230769  0.076923  0.384615      2.000000
  0.307692  0.076923  0.384615      2.000000
  0.384615  0.076923  0.384615      2.000000
  0.461538  0.076923  0.384615      2.000000
 -0.461538  0.076923  0.384615      2.000000
 -0.384615  0.076923  0.384615      2.000000
 -0.307692  0.076923  0.384615      2.000000
 -0.230769  0.076923  0.384615      2.000000
 -0.153846  0.076923  0.384615      2.000000
 -0.076923  0.076923  0.384615      2.000000
  0.000000  0.153846  0.384615      2.000000
  0.076923  0.153846  0.384615      2.000000
  0.153846  0.153846  0.384615      2.000000
  0.230769  0.153846  0.384615      2.000000
  0.307692  0.153846  0.384615      2.000000
  0.384615  0.153846  0.384615      2.000000
  0.461538  0.153846  0.384615      2.000000
 -0.461538  0.153846  0.384615      2.000000
 -0.384615  0.153846  0.384615      2.000000
 -0.307692  0.153846  0.384615      2.000000
 -0.230769  0.153846  0.384615      2.000000
 -0.153846  0.153846  0.384615      2.000000
 -0.076923  0.153846  0.384615      2.000000
  0.000000  0.230769  0.384615      2.000000
  0.076923  0.230769  0.384615      2.000000
  0.153846  0.230769  0.384615      2.000000
  0.230769  0.230769  0.384615      2.000000
  0.307692  0.230769  0.384615      2.000000
  0.384615  0.230769  0.384615      2.000000
  0.461538  0.230769  0.384615      2.000000
 -0.461538  0.230769  0.384615      2.000000
 -0.384615  0.230769  0.384615      2.000000
 -0.307692  0.230769  0.384615      2.000000
 -0.230769  0.230769  0.384615      2.000000
 -0.153846  0.230769  0.384615      2.000000
 -0.076923  0.230769  0.384615      2.000000
  0.000000  0.307692  0.384615      2.000000
  0.076923  0.307692  0.384615      2.000000
  0.153846  0.307692  0.384615      2.000000
  0.230769  0.307692  0.384615      2.000000
  0.307692  0.307692  0.384615      2.000000
  0.384615  0.307692  0.384615      2.000000
  0.461538  0.307692  0.384615      2.000000
 -0.461538  0.307692  0.384615      2.000000
 -0.384615  0.307692  0.384615      2.000000
 -0.307692  0.307692  0.384615      2.000000
 -0.230769  0.307692  0.384615      2.000000
 -0.153846  0.307692  0.384615      2.000000
 -0.076923  0.307692  0.384615      2.000000
  0.000000  0.384615  0.384615      2.000000
  0.076923  0.384615  0.384615      2.000000
  0.153846  0.384615  0.384615      2.000000
  0.230769  0.384615  0.384615      2.000000
  0.307692  0.384615  0.384615      2.000000
  0.384615  0.384615  0.384615      2.000000
  0.461538  0.384615  0.384615      2.000000
 -0.461538  0.384615  0.384615      2.000000
 -0.384615  0.384615  0.384615      2.000000
 -0.307692  0.384615  0.384615      2.000000
 -0.230769  0.384615  0.384615      2.000000
 -0.153846  0.384615  0.384615      2.000000
 -0.076923  0.384615  0.384615      2.000000
  0.000000  0.461538  0.384615      2.000000
  0.076923  0.461538  0.384615      2.000000
  0.153846  0.461538  0.384615      2.000000
  0.230769  0.461538  0.384615      2.000000
  0.307692  0.461538  0.384615      2.000000
  0.384615  0.461538  0.384615      2.000000
  0.461538  0.461538  0.384615      2.000000
 -0.461538  0.461538  0.384615      2.000000
 -0.384615  0.461538  0.384615      2.000000
 -0.307692  0.461538  0.384615      2.000000
 -0.230769  0.461538  0.384615      2.000000
 -0.153846  0.461538  0.384615      2.000000
 -0.076923  0.461538  0.384615      2.000000
  0.000000 -0.461538  0.384615      2.000000
  0.076923 -0.461538  0.384615      2.000000
  0.153846 -0.461538  0.384615      2.000000
  0.230769 -0.461538  0.384615      2.000000
  0.307692 -0.461538  0.384615      2.000000
  0.384615 -0.461538  0.384615      2.000000
  0.461538 -0.461538  0.384615      2.000000
 -0.461538 -0.461538  0.384615      2.000000
 -0.384615 -0.461538  0.384615      2.000000
 -0.307692 -0.461538  0.384615      2.000000
 -0.230769 -0.461538  0.384615      2.000000
 -0.153846 -0.461538  0.384615      2.000000
 -0.076923 -0.461538  0.384615      2.000000
  0.000000 -0.384615  0.384615      2.000000
  0.076923 -0.384615  0.384615      2.000000
  0.153846 -0.384615  0.384615      2.000000
  0.230769 -0.384615  0.384615      2.000000
  0.307692 -0.384615  0.384615      2.000000
  0.384615 -0.384615  0.384615      2.000000
  0.461538 -0.384615  0.384615      2.000000
 -0.461538 -0.384615  0.384615      2.000000
 -0.384615 -0.384615  0.384615      2.000000
 -0.307692 -0.384615  0.384615      2.000000
 -0.230769 -0.384615  0.384615      2.000000
 -0.153846 -0.384615  0.384615      2.000000
 -0.076923 -0.384615  0.384615      2.000000
  0.000000 -0.307692  0.384615      2.000000
  0.076923 -0.307692  0.384615      2.000000
  0.153846 -0.307692  0.384615      2.000000
  0.230769 -0.307692  0.384615      2.000000
  0.307692 -0.307692  0.384615      2.000000
  0.384615 -0.307692  0.384615      2.000000
  0.461538 -0.307692  0.384615      2.000000
 -0.461538 -0.307692  0.384615      2.000000
 -0.384615 -0.307692  0.384615      2.000000
 -0.307692 -0.307692  0.384615      2.000000
 -0.230769 -0.307692  0.384615      2.000000
 -0.153846 -0.307692  0.384615      2.000000
 -0.076923 -0.307692  0.384615      2.000000
  0.000000 -0.230769  0.384615      2.000000
  0.076923 -0.230769  0.384615      2.000000
  0.153846 -0.230769  0.384615      2.000000
  0.230769 -0.230769  0.384615      2.000000
  0.307692 -0.230769  0.384615      2.000000
  0.384615 -0.230769  0.384615      2.000000
  0.461538 -0.230769  0.384615      2.000000
 -0.461538 -0.230769  0.384615      2.000000
 -0.384615 -0.230769  0.384615      2.000000
 -0.307692 -0.230769  0.384615      2.000000
 -0.230769 -0.230769  0.384615      2.000000
 -0.153846 -0.230769  0.384615      2.000000
 -0.076923 -0.230769  0.384615      2.000000
  0.000000 -0.153846  0.384615      2.000000
  0.076923 -0.153846  0.384615      2.000000
  0.153846 -0.153846  0.384615      2.000000
  0.230769 -0.153846  0.384615      2.000000
  0.307692 -0.153846  0.384615      2.000000
  0.384615 -0.153846  0.384615      2.000000
  0.461538 -0.153846  0.384615      2.000000
 -0.461538 -0.153846  0.384615      2.000000
 -0.384615 -0.153846  0.384615      2.000000
 -0.307692 -0.153846  0.384615      2.000000
 -0.230769 -0.153846  0.384615      2.000000
 -0.153846 -0.153846  0.384615      2.000000
 -0.076923 -0.153846  0.384615      2.000000
  0.000000 -0.076923  0.384615      2.000000
  0.076923 -0.076923  0.384615      2.000000
  0.153846 -0.076923  0.384615      2.000000
  0.230769 -0.076923  0.384615      2.000000
  0.307692 -0.076923  0.384615      2.000000
  0.384615 -0.076923  0.384615      2.000000
  0.461538 -0.076923  0.384615      2.000000
 -0.461538 -0.076923  0.384615      2.000000
 -0.384615 -0.076923  0.384615      2.000000
 -0.307692 -0.076923  0.384615      2.000000
 -0.230769 -0.076923  0.384615      2.000000
 -0.153846 -0.076923  0.384615      2.000000
 -0.076923 -0.076923  0.384615      2.000000
  0.000000  0.000000  0.461538      2.000000
  0.076923 -0.000000  0.461538      2.000000
  0.153846  0.000000  0.461538      2.000000
  0.230769  0.000000  0.461538      2.000000
  0.307692  0.000000  0.461538      2.000000
  0.384615 -0.000000  0.461538      2.000000
  0.461538  0.000000  0.461538      2.000000
 -0.461538 -0.000000  0.461538      2.000000
 -0.384615  0.000000  0.461538      2.000000
 -0.307692  0.000000  0.461538      2.000000
 -0.230769 -0.000000  0.461538      2.000000
 -0.153846  0.000000  0.461538      2.000000
 -0.076923  0.000000  0.461538      2.000000
  0.000000  0.076923  0.461538      2.000000
  0.076923  0.076923  0.461538      2.000000
  0.153846  0.076923  0.461538      2.000000
  0.230769  0.076923  0.461538      2.000000
  0.307692  0.076923  0.461538      2.000000
  0.384615  0.076923  0.461538      2.000000
  0.461538  0.076923  0.461538      2.000000
 -0.461538  0.076923  0.461538      2.000000
 -0.384615  0.076923  0.461538      2.000000
 -0.307692  0.076923  0.461538      2.000000
 -0.230769  0.076923  0.461538      2.000000
 -0.153846  0.076923  0.461538      2.000000
 -0.076923  0.076923  0.461538      2.000000
  0.000000  0.153846  0.461538      2.000000
  0.076923  0.153846  0.461538      2.000000
  0.153846  0.153846  0.461538      2.000000
  0.230769  0.153846  0.461538      2.000000
  0.307692  0.153846  0.461538      2.000000
  0.384615  0.153846  0.461538      2.000000
  0.461538  0.153846  0.461538      2.000000
 -0.461538  0.153846  0.461538      2.000000
 -0.384615  0.153846  0.461538      2.000000
 -0.307692  0.153846  0.461538      2.000000
 -0.230769  0.153846  0.461538      2.000000
 -0.153846  0.153846  0.461538      2.000000
 -0.076923  0.153846  0.461538      2.000000
  0.000000  0.230769  0.461538      2.000000
  0.076923  0.230769  0.461538      2.000000
  0.153846  0.230769  0.461538      2.000000
  0.230769  0.230769  0.461538      2.000000
  0.307692  0.230769  0.461538      2.000000
  0.384615  0.230769  0.461538      2.000000
  0.461538  0.230769  0.461538      2.000000
 -0.461538  0.230769  0.461538      2.000000
 -0.384615  0.230769  0.461538      2.000000
 -0.307692  0.230769  0.461538      2.000000
 -0.230769  0.230769  0.461538      2.000000
 -0.153846  0.230769  0.461538      2.000000
 -0.076923  0.230769  0.461538      2.000000
  0.000000  0.307692  0.461538      2.000000
  0.076923  0.307692  0.461538      2.000000
  0.153846  0.307692  0.461538      2.000000
  0.230769  0.307692  0.461538      2.000000
  0.307692  0.307692  0.461538      2.000000
  0.384615  0.307692  0.461538      2.000000
  0.461538  0.307692  0.461538      2.000000
 -0.461538  0.307692  0.461538      2.000000
 -0.384615  0.307692  0.461538      2.000000
 -0.307692  0.307692  0.461538      2.000000
 -0.230769  0.307692  0.461538      2.000000
 -0.153846  0.307692  0.461538      2.000000
 -0.076923  0.307692  0.461538      2.000000
  0.000000  0.384615  0.461538      2.000000
  0.076923  0.384615  0.461538      2.000000
  0.153846  0.384615  0.461538      2.000000
  0.230769  0.384615  0.461538      2.000000
  0.307692  0.384615  0.461538      2.000000
  0.384615  0.384615  0.461538      2.000000
  0.461538  0.384615  0.461538      2.000000
 -0.461538  0.384615  0.461538      2.000000
 -0.384615  0.384615  0.461538      2.000000
 -0.307692  0.384615  0.461538      2.000000
 -0.230769  0.384615  0.461538      2.000000
 -0.153846  0.384615  0.461538      2.000000
 -0.076923  0.384615  0.461538      2.000000
  0.000000  0.461538  0.461538      2.000000
  0.076923  0.461538  0.461538      2.000000
  0.153846  0.461538  0.461538      2.000000
  0.230769  0.461538  0.461538      2.000000
  0.307692  0.461538  0.461538      2.000000
  0.384615  0.461538  0.461538      2.000000
  0.461538  0.461538  0.461538      2.000000
 -0.461538  0.461538  0.461538      2.000000
 -0.384615  0.461538  0.461538      2.000000
 -0.307692  0.461538  0.461538      2.000000
 -0.230769  0.461538  0.461538      2.000000
 -0.153846  0.461538  0.461538      2.000000
 -0.076923  0.461538  0.461538      2.000000
  0.000000 -0.461538  0.461538      2.000000
  0.076923 -0.461538  0.461538      2.000000
  0.153846 -0.461538  0.461538      2.000000
  0.230769 -0.461538  0.461538      2.000000
  0.307692 -0.461538  0.461538      2.000000
  0.384615 -0.461538  0.461538      2.000000
  0.461538 -0.461538  0.461538      2.000000
 -0.461538 -0.461538  0.461538      2.000000
 -0.384615 -0.461538  0.461538      2.000000
 -0.307692 -0.461538  0.461538      2.000000
 -0.230769 -0.461538  0.461538      2.000000
 -0.153846 -0.461538  0.461538      2.000000
 -0.076923 -0.461538  0.461538      2.000000
  0.000000 -0.384615  0.461538      2.000000
  0.076923 -0.384615  0.461538      2.000000
  0.153846 -0.384615  0.461538      2.000000
  0.230769 -0.384615  0.461538      2.000000
  0.307692 -0.384615  0.461538      2.000000
  0.384615 -0.384615  0.461538      2.000000
  0.461538 -0.384615  0.461538      2.000000
 -0.461538 -0.384615  0.461538      2.000000
 -0.384615 -0.384615  0.461538      2.000000
 -0.307692 -0.384615  0.461538      2.000000
 -0.230769 -0.384615  0.461538      2.000000
 -0.153846 -0.384615  0.461538      2.000000
 -0.076923 -0.384615  0.461538      2.000000
  0.000000 -0.307692  0.461538      2.000000
  0.076923 -0.307692  0.461538      2.000000
  0.153846 -0.307692  0.461538      2.000000
  0.230769 -0.307692  0.461538      2.000000
  0.307692 -0.307692  0.461538      2.000000
  0.384615 -0.307692  0.461538      2.000000
  0.461538 -0.307692  0.461538      2.000000
 -0.461538 -0.307692  0.461538      2.000000
 -0.384615 -0.307692  0.461538      2.000000
 -0.307692 -0.307692  0.461538      2.000000
 -0.230769 -0.307692  0.461538      2.000000
 -0.153846 -0.307692  0.461538      2.000000
 -0.076923 -0.307692  0.461538      2.000000
  0.000000 -0.230769  0.461538      2.000000
  0.076923 -0.230769  0.461538      2.000000
  0.153846 -0.230769  0.461538      2.000000
  0.230769 -0.230769  0.461538      2.000000
  0.307692 -0.230769  0.461538      2.000000
  0.384615 -0.230769  0.461538      2.000000
  0.461538 -0.230769  0.461538      2.000000
 -0.461538 -0.230769  0.461538      2.000000
 -0.384615 -0.230769  0.461538      2.000000
 -0.307692 -0.230769  0.461538      2.000000
 -0.230769 -0.230769  0.461538      2.000000
 -0.153846 -0.230769  0.461538      2.000000
 -0.076923 -0.230769  0.461538      2.000000
  0.000000 -0.153846  0.461538      2.000000
  0.076923 -0.153846  0.461538      2.000000
  0.153846 -0.153846  0.461538      2.000000
  0.230769 -0.153846  0.461538      2.000000
  0.307692 -0.153846  0.461538      2.000000
  0.384615 -0.153846  0.461538      2.000000
  0.461538 -0.153846  0.461538      2.000000
 -0.461538 -0.153846  0.461538      2.000000
 -0.384615 -0.153846  0.461538      2.000000
 -0.307692 -0.153846  0.461538      2.000000
 -0.230769 -0.153846  0.461538      2.000000
 -0.153846 -0.153846  0.461538      2.000000
 -0.076923 -0.153846  0.461538      2.000000
  0.000000 -0.076923  0.461538      2.000000
  0.076923 -0.076923  0.461538      2.000000
  0.153846 -0.076923  0.461538      2.000000
  0.230769 -0.076923  0.461538      2.000000
  0.307692 -0.076923  0.461538      2.000000
  0.384615 -0.076923  0.461538      2.000000
  0.461538 -0.076923  0.461538      2.000000
 -0.461538 -0.076923  0.461538      2.000000
 -0.384615 -0.076923  0.461538      2.000000
 -0.307692 -0.076923  0.461538      2.000000
 -0.230769 -0.076923  0.461538      2.000000
 -0.153846 -0.076923  0.461538      2.000000
 -0.076923 -0.076923  0.461538      2.000000
 
 Following cartesian coordinates:
            Coordinates               Weight
  0.000000  0.000000  0.000000      1.000000
  0.021411 -0.012362 -0.008742      2.000000
  0.042823 -0.024725 -0.017483      2.000000
  0.064234 -0.037087 -0.026225      2.000000
  0.085645 -0.049450 -0.034966      2.000000
  0.107056 -0.061812 -0.043708      2.000000
  0.128468 -0.074174 -0.052449      2.000000
  0.000000  0.024724 -0.008741      2.000000
  0.021411  0.012362 -0.017483      2.000000
  0.042823 -0.000001 -0.026224      2.000000
  0.064234 -0.012363 -0.034966      2.000000
  0.085645 -0.024726 -0.043708      2.000000
  0.107056 -0.037088 -0.052449      2.000000
  0.128468 -0.049450 -0.061191      2.000000
 -0.128468  0.098898  0.043708      2.000000
 -0.107056  0.086536  0.034966      2.000000
 -0.085645  0.074174  0.026225      2.000000
 -0.064234  0.061811  0.017483      2.000000
 -0.042823  0.049449  0.008742      2.000000
 -0.021411  0.037086  0.000000      2.000000
  0.000000  0.049448 -0.017483      2.000000
  0.021411  0.037085 -0.026224      2.000000
  0.042823  0.024723 -0.034966      2.000000
  0.064234  0.012361 -0.043707      2.000000
  0.085645 -0.000002 -0.052449      2.000000
  0.107056 -0.012364 -0.061190      2.000000
  0.128468 -0.024727 -0.069932      2.000000
 -0.128468  0.123622  0.034966      2.000000
 -0.107056  0.111260  0.026225      2.000000
 -0.085645  0.098897  0.017483      2.000000
 -0.064234  0.086535  0.008742      2.000000
 -0.042823  0.074173  0.000000      2.000000
 -0.021411  0.061810 -0.008741      2.000000
  0.000000  0.074172 -0.026224      2.000000
  0.021411  0.061809 -0.034966      2.000000
  0.042823  0.049447 -0.043707      2.000000
  0.064234  0.037085 -0.052449      2.000000
  0.085645  0.024722 -0.061190      2.000000
  0.107056  0.012360 -0.069932      2.000000
  0.128468 -0.000003 -0.078673      2.000000
 -0.128468  0.148346  0.026225      2.000000
 -0.107056  0.135984  0.017483      2.000000
 -0.085645  0.123621  0.008742      2.000000
 -0.064234  0.111259  0.000000      2.000000
 -0.042823  0.098897 -0.008741      2.000000
 -0.021411  0.086534 -0.017483      2.000000
  0.000000  0.098896 -0.034966      2.000000
  0.021411  0.086533 -0.043707      2.000000
  0.042823  0.074171 -0.052449      2.000000
  0.064234  0.061809 -0.061190      2.000000
  0.085645  0.049446 -0.069932      2.000000
  0.107056  0.037084 -0.078673      2.000000
  0.128468  0.024721 -0.087415      2.000000
 -0.128468  0.173070  0.017483      2.000000
 -0.107056  0.160708  0.008742      2.000000
 -0.085645  0.148345  0.000000      2.000000
 -0.064234  0.135983 -0.008741      2.000000
 -0.042823  0.123621 -0.017483      2.000000
 -0.021411  0.111258 -0.026224      2.000000
  0.000000  0.123620 -0.043707      2.000000
  0.021411  0.111257 -0.052449      2.000000
  0.042823  0.098895 -0.061190      2.000000
  0.064234  0.086533 -0.069932      2.000000
  0.085645  0.074170 -0.078673      2.000000
  0.107056  0.061808 -0.087415      2.000000
  0.128468  0.049445 -0.096156      2.000000
 -0.128468  0.197794  0.008742      2.000000
 -0.107056  0.185432  0.000000      2.000000
 -0.085645  0.173069 -0.008741      2.000000
 -0.064234  0.160707 -0.017483      2.000000
 -0.042823  0.148344 -0.026224      2.000000
 -0.021411  0.135982 -0.034966      2.000000
  0.000000  0.148344 -0.052449      2.000000
  0.021411  0.135981 -0.061190      2.000000
  0.042823  0.123619 -0.069932      2.000000
  0.064234  0.111256 -0.078673      2.000000
  0.085645  0.098894 -0.087415      2.000000
  0.107056  0.086532 -0.096156      2.000000
  0.128468  0.074169 -0.104898      2.000000
 -0.128468  0.222518  0.000000      2.000000
 -0.107056  0.210156 -0.008741      2.000000
 -0.085645  0.197793 -0.017483      2.000000
 -0.064234  0.185431 -0.026224      2.000000
 -0.042823  0.173068 -0.034966      2.000000
 -0.021411  0.160706 -0.043707      2.000000
  0.000000  0.000000  0.026224      2.000000
  0.021411 -0.012362  0.017482      2.000000
  0.042823 -0.024725  0.008741      2.000000
  0.064234 -0.037087 -0.000001      2.000000
  0.085645 -0.049450 -0.008742      2.000000
  0.107056 -0.061812 -0.017484      2.000000
  0.128468 -0.074174 -0.026225      2.000000
 -0.128468  0.074174  0.078673      2.000000
 -0.107056  0.061812  0.069931      2.000000
 -0.085645  0.049450  0.061190      2.000000
 -0.064234  0.037087  0.052448      2.000000
 -0.042823  0.024725  0.043707      2.000000
 -0.021411  0.012362  0.034965      2.000000
  0.000000  0.024724  0.017482      2.000000
  0.021411  0.012362  0.008741      2.000000
  0.042823 -0.000001 -0.000001      2.000000
  0.064234 -0.012363 -0.008742      2.000000
  0.085645 -0.024726 -0.017484      2.000000
  0.107056 -0.037088 -0.026225      2.000000
  0.128468 -0.049450 -0.034967      2.000000
 -0.128468  0.098898  0.069931      2.000000
 -0.107056  0.086536  0.061190      2.000000
 -0.085645  0.074174  0.052448      2.000000
 -0.064234  0.061811  0.043707      2.000000
 -0.042823  0.049449  0.034965      2.000000
 -0.021411  0.037086  0.026224      2.000000
  0.000000  0.049448  0.008741      2.000000
  0.021411  0.037085 -0.000001      2.000000
  0.042823  0.024723 -0.008742      2.000000
  0.064234  0.012361 -0.017484      2.000000
  0.085645 -0.000002 -0.026225      2.000000
  0.107056 -0.012364 -0.034967      2.000000
  0.128468 -0.024727 -0.043708      2.000000
 -0.128468  0.123622  0.061190      2.000000
 -0.107056  0.111260  0.052448      2.000000
 -0.085645  0.098897  0.043707      2.000000
 -0.064234  0.086535  0.034965      2.000000
 -0.042823  0.074173  0.026224      2.000000
 -0.021411  0.061810  0.017482      2.000000
  0.000000  0.074172 -0.000001      2.000000
  0.021411  0.061809 -0.008742      2.000000
  0.042823  0.049447 -0.017484      2.000000
  0.064234  0.037085 -0.026225      2.000000
  0.085645  0.024722 -0.034967      2.000000
  0.107056  0.012360 -0.043708      2.000000
  0.128468 -0.000003 -0.052450      2.000000
 -0.128468  0.148346  0.052448      2.000000
 -0.107056  0.135984  0.043707      2.000000
 -0.085645  0.123621  0.034965      2.000000
 -0.064234  0.111259  0.026224      2.000000
 -0.042823  0.098897  0.017482      2.000000
 -0.021411  0.086534  0.008741      2.000000
  0.000000  0.098896 -0.008742      2.000000
  0.021411  0.086533 -0.017484      2.000000
  0.042823  0.074171 -0.026225      2.000000
  0.064234  0.061809 -0.034967      2.000000
  0.085645  0.049446 -0.043708      2.000000
  0.107056  0.037084 -0.052450      2.000000
  0.128468  0.024721 -0.061191      2.000000
 -0.128468  0.173070  0.043707      2.000000
 -0.107056  0.160708  0.034966      2.000000
 -0.085645  0.148345  0.026224      2.000000
 -0.064234  0.135983  0.017482      2.000000
 -0.042823  0.123621  0.008741      2.000000
 -0.021411  0.111258 -0.000001      2.000000
  0.000000  0.123620 -0.017484      2.000000
  0.021411  0.111257 -0.026225      2.000000
  0.042823  0.098895 -0.034967      2.000000
  0.064234  0.086533 -0.043708      2.000000
  0.085645  0.074170 -0.052450      2.000000
  0.107056  0.061808 -0.061191      2.000000
  0.128468  0.049445 -0.069933      2.000000
 -0.128468  0.197794  0.034966      2.000000
 -0.107056  0.185432  0.026224      2.000000
 -0.085645  0.173069  0.017483      2.000000
 -0.064234  0.160707  0.008741      2.000000
 -0.042823  0.148344 -0.000000      2.000000
 -0.021411  0.135982 -0.008742      2.000000
  0.000000  0.148344 -0.026225      2.000000
  0.021411  0.135981 -0.034966      2.000000
  0.042823  0.123619 -0.043708      2.000000
  0.064234  0.111256 -0.052450      2.000000
  0.085645  0.098894 -0.061191      2.000000
  0.107056  0.086532 -0.069933      2.000000
  0.128468  0.074169 -0.078674      2.000000
 -0.128468  0.222518  0.026224      2.000000
 -0.107056  0.210156  0.017483      2.000000
 -0.085645  0.197793  0.008741      2.000000
 -0.064234  0.185431 -0.000000      2.000000
 -0.042823  0.173068 -0.008742      2.000000
 -0.021411  0.160706 -0.017483      2.000000
  0.000000 -0.148344  0.078673      2.000000
  0.021411 -0.160706  0.069931      2.000000
  0.042823 -0.173068  0.061189      2.000000
  0.064234 -0.185431  0.052448      2.000000
  0.085645 -0.197793  0.043706      2.000000
  0.107056 -0.210156  0.034965      2.000000
  0.128468 -0.222518  0.026223      2.000000
 -0.128468 -0.074169  0.131122      2.000000
 -0.107056 -0.086532  0.122380      2.000000
 -0.085645 -0.098894  0.113639      2.000000
 -0.064234 -0.111256  0.104897      2.000000
 -0.042823 -0.123619  0.096156      2.000000
 -0.021411 -0.135981  0.087414      2.000000
  0.000000 -0.123620  0.069931      2.000000
  0.021411 -0.135982  0.061190      2.000000
  0.042823 -0.148344  0.052448      2.000000
  0.064234 -0.160707  0.043707      2.000000
  0.085645 -0.173069  0.034965      2.000000
  0.107056 -0.185432  0.026223      2.000000
  0.128468 -0.197794  0.017482      2.000000
 -0.128468 -0.049445  0.122380      2.000000
 -0.107056 -0.061808  0.113639      2.000000
 -0.085645 -0.074170  0.104897      2.000000
 -0.064234 -0.086533  0.096156      2.000000
 -0.042823 -0.098895  0.087414      2.000000
 -0.021411 -0.111257  0.078673      2.000000
  0.000000 -0.098896  0.061190      2.000000
  0.021411 -0.111258  0.052448      2.000000
  0.042823 -0.123621  0.043707      2.000000
  0.064234 -0.135983  0.034965      2.000000
  0.085645 -0.148345  0.026224      2.000000
  0.107056 -0.160708  0.017482      2.000000
  0.128468 -0.173070  0.008741      2.000000
 -0.128468 -0.024721  0.113639      2.000000
 -0.107056 -0.037084  0.104897      2.000000
 -0.085645 -0.049446  0.096156      2.000000
 -0.064234 -0.061809  0.087414      2.000000
 -0.042823 -0.074171  0.078673      2.000000
 -0.021411 -0.086533  0.069931      2.000000
  0.000000 -0.074172  0.052448      2.000000
  0.021411 -0.086534  0.043707      2.000000
  0.042823 -0.098897  0.034965      2.000000
  0.064234 -0.111259  0.026224      2.000000
  0.085645 -0.123621  0.017482      2.000000
  0.107056 -0.135984  0.008741      2.000000
  0.128468 -0.148346 -0.000001      2.000000
 -0.128468  0.000003  0.104897      2.000000
 -0.107056 -0.012360  0.096156      2.000000
 -0.085645 -0.024722  0.087414      2.000000
 -0.064234 -0.037085  0.078673      2.000000
 -0.042823 -0.049447  0.069931      2.000000
 -0.021411 -0.061809  0.061190      2.000000
  0.000000 -0.049448  0.043707      2.000000
  0.021411 -0.061810  0.034965      2.000000
  0.042823 -0.074173  0.026224      2.000000
  0.064234 -0.086535  0.017482      2.000000
  0.085645 -0.098897  0.008741      2.000000
  0.107056 -0.111260 -0.000001      2.000000
  0.128468 -0.123622 -0.008742      2.000000
 -0.128468  0.024727  0.096156      2.000000
 -0.107056  0.012364  0.087414      2.000000
 -0.085645  0.000002  0.078673      2.000000
 -0.064234 -0.012361  0.069931      2.000000
 -0.042823 -0.024723  0.061190      2.000000
 -0.021411 -0.037085  0.052448      2.000000
  0.000000 -0.024724  0.034965      2.000000
  0.021411 -0.037086  0.026224      2.000000
  0.042823 -0.049449  0.017482      2.000000
  0.064234 -0.061811  0.008741      2.000000
  0.085645 -0.074174 -0.000001      2.000000
  0.107056 -0.086536 -0.008742      2.000000
  0.128468 -0.098898 -0.017484      2.000000
 -0.128468  0.049450  0.087414      2.000000
 -0.107056  0.037088  0.078673      2.000000
 -0.085645  0.024726  0.069931      2.000000
 -0.064234  0.012363  0.061190      2.000000
 -0.042823  0.000001  0.052448      2.000000
 -0.021411 -0.012362  0.043707      2.000000
  0.000000  0.000000  0.052448      2.000000
  0.021411 -0.012362  0.043706      2.000000
  0.042823 -0.024725  0.034965      2.000000
  0.064234 -0.037087  0.026223      2.000000
  0.085645 -0.049450  0.017481      2.000000
  0.107056 -0.061812  0.008740      2.000000
  0.128468 -0.074174 -0.000002      2.000000
 -0.128468  0.074174  0.104897      2.000000
 -0.107056  0.061812  0.096155      2.000000
 -0.085645  0.049450  0.087414      2.000000
 -0.064234  0.037087  0.078672      2.000000
 -0.042823  0.024725  0.069931      2.000000
 -0.021411  0.012362  0.061189      2.000000
  0.000000  0.024724  0.043706      2.000000
  0.021411  0.012362  0.034965      2.000000
  0.042823 -0.000001  0.026223      2.000000
  0.064234 -0.012363  0.017482      2.000000
  0.085645 -0.024726  0.008740      2.000000
  0.107056 -0.037088 -0.000001      2.000000
  0.128468 -0.049450 -0.008743      2.000000
 -0.128468  0.098898  0.096155      2.000000
 -0.107056  0.086536  0.087414      2.000000
 -0.085645  0.074174  0.078672      2.000000
 -0.064234  0.061811  0.069931      2.000000
 -0.042823  0.049449  0.061189      2.000000
 -0.021411  0.037086  0.052448      2.000000
  0.000000  0.049448  0.034965      2.000000
  0.021411  0.037085  0.026223      2.000000
  0.042823  0.024723  0.017482      2.000000
  0.064234  0.012361  0.008740      2.000000
  0.085645 -0.000002 -0.000001      2.000000
  0.107056 -0.012364 -0.008743      2.000000
  0.128468 -0.024727 -0.017484      2.000000
 -0.128468  0.123622  0.087414      2.000000
 -0.107056  0.111260  0.078672      2.000000
 -0.085645  0.098897  0.069931      2.000000
 -0.064234  0.086535  0.061189      2.000000
 -0.042823  0.074173  0.052448      2.000000
 -0.021411  0.061810  0.043706      2.000000
  0.000000  0.074172  0.026223      2.000000
  0.021411  0.061809  0.017482      2.000000
  0.042823  0.049447  0.008740      2.000000
  0.064234  0.037085 -0.000001      2.000000
  0.085645  0.024722 -0.008743      2.000000
  0.107056  0.012360 -0.017484      2.000000
  0.128468 -0.000003 -0.026226      2.000000
 -0.128468  0.148346  0.078672      2.000000
 -0.107056  0.135984  0.069931      2.000000
 -0.085645  0.123621  0.061189      2.000000
 -0.064234  0.111259  0.052448      2.000000
 -0.042823  0.098897  0.043706      2.000000
 -0.021411  0.086534  0.034965      2.000000
  0.000000  0.098896  0.017482      2.000000
  0.021411  0.086533  0.008740      2.000000
  0.042823  0.074171 -0.000001      2.000000
  0.064234  0.061809 -0.008743      2.000000
  0.085645  0.049446 -0.017484      2.000000
  0.107056  0.037084 -0.026226      2.000000
  0.128468  0.024721 -0.034967      2.000000
 -0.128468  0.173070  0.069931      2.000000
 -0.107056  0.160708  0.061189      2.000000
 -0.085645  0.148345  0.052448      2.000000
 -0.064234  0.135983  0.043706      2.000000
 -0.042823  0.123621  0.034965      2.000000
 -0.021411  0.111258  0.026223      2.000000
  0.000000  0.123620  0.008740      2.000000
  0.021411  0.111257 -0.000001      2.000000
  0.042823  0.098895 -0.008743      2.000000
  0.064234  0.086533 -0.017484      2.000000
  0.085645  0.074170 -0.026226      2.000000
  0.107056  0.061808 -0.034967      2.000000
  0.128468  0.049445 -0.043709      2.000000
 -0.128468  0.197794  0.061189      2.000000
 -0.107056  0.185432  0.052448      2.000000
 -0.085645  0.173069  0.043706      2.000000
 -0.064234  0.160707  0.034965      2.000000
 -0.042823  0.148344  0.026223      2.000000
 -0.021411  0.135982  0.017482      2.000000
  0.000000  0.148344 -0.000001      2.000000
  0.021411  0.135981 -0.008743      2.000000
  0.042823  0.123619 -0.017484      2.000000
  0.064234  0.111256 -0.026226      2.000000
  0.085645  0.098894 -0.034967      2.000000
  0.107056  0.086532 -0.043709      2.000000
[...]
     18      10.8232      0.00000
     19      11.8830      0.00000
     20      14.1782      0.00000


--------------------------------------------------------------------------------------------------------


 soft charge-density along one line, spin component           1
         0         1         2         3         4         5         6         7         8         9
 total charge-density along one line
 
 soft charge-density along one line, spin component           2
         0         1         2         3         4         5         6         7         8         9
 total charge-density along one line
 
 pseudopotential strength for first ion, spin component:           1
 -8.692  -4.014   0.000   0.000  -0.000   0.000   0.000  -0.000
 -4.014  -0.360  -0.000  -0.000   0.000   0.000   0.000  -0.000
  0.000  -0.000 -15.671  -0.000  -0.000   7.374   0.000   0.000
  0.000  -0.000  -0.000 -15.670   0.000   0.000   7.374  -0.000
 -0.000   0.000  -0.000   0.000 -15.670   0.000  -0.000   7.374
  0.000   0.000   7.374   0.000   0.000   4.941  -0.000  -0.000
  0.000   0.000   0.000   7.374  -0.000  -0.000   4.941   0.000
 -0.000  -0.000   0.000  -0.000   7.374  -0.000   0.000   4.941
 -0.000  -0.000  -0.000   0.000   0.000  -0.000  -0.000   0.000
 -0.000  -0.000   0.000   0.000   0.000   0.000   0.000  -0.000
  0.000   0.000   0.000   0.000  -0.000  -0.000   0.000   0.000
  0.000   0.000   0.000   0.000   0.000  -0.000  -0.000   0.000
  0.000   0.000  -0.000   0.000   0.000  -0.000  -0.000  -0.000
  0.000   0.000  -0.000  -0.000   0.000   0.000   0.000  -0.000
  0.000   0.000  -0.000   0.000  -0.000  -0.000  -0.000   0.000
 -0.000  -0.000  -0.000  -0.000   0.000   0.000  -0.000  -0.000
 -0.000  -0.000  -0.000  -0.000  -0.000   0.000   0.000  -0.000
 -0.000  -0.000  -0.000  -0.000  -0.000   0.000   0.000   0.000
  0.000  -0.000   0.000  -0.001  -0.000  -0.000  -0.004   0.000
  0.000  -0.000   0.000  -0.000  -0.001  -0.000   0.000  -0.005
 -0.000   0.000   0.001  -0.000   0.000   0.002   0.000  -0.000
  0.000  -0.000   0.000  -0.001  -0.000  -0.000  -0.004   0.000
 -0.000   0.000   0.000   0.000   0.001  -0.000  -0.000   0.002
  0.000   0.000  -0.001   0.000   0.000  -0.005  -0.000  -0.000
 -0.000  -0.000   0.000  -0.000   0.000  -0.000  -0.000  -0.000
  0.000  -0.000   0.000  -0.001  -0.000  -0.000  -0.004   0.000
  0.000  -0.000   0.000  -0.000  -0.001  -0.000   0.000  -0.005
 -0.000   0.000   0.001  -0.000   0.000   0.002   0.000  -0.000
  0.000  -0.000   0.000  -0.001  -0.000  -0.000  -0.004   0.000
 -0.000   0.000   0.000   0.000   0.001  -0.000  -0.000   0.002
  0.000   0.000  -0.001   0.000   0.000  -0.005  -0.000  -0.000
 -0.000  -0.000   0.000  -0.000   0.000  -0.000  -0.000  -0.000
 pseudopotential strength for first ion, spin component:           2
-15.750   0.743   0.000   0.000  -0.000   0.000   0.000  -0.000
  0.743  -3.417  -0.000  -0.000   0.000   0.000   0.000  -0.000
  0.000  -0.000 -17.551  -0.000  -0.000   7.751   0.000   0.000
  0.000  -0.000  -0.000 -17.550   0.000   0.000   7.751  -0.000
 -0.000   0.000  -0.000   0.000 -17.550   0.000  -0.000   7.751
  0.000   0.000   7.751   0.000   0.000   5.172  -0.000  -0.000
  0.000   0.000   0.000   7.751  -0.000  -0.000   5.172   0.000
 -0.000  -0.000   0.000  -0.000   7.751  -0.000   0.000   5.172
 -0.000  -0.000  -0.000  -0.000   0.000  -0.000  -0.000   0.000
 -0.000  -0.000   0.000  -0.000  -0.000   0.000   0.000  -0.000
  0.000   0.000  -0.000   0.000  -0.000  -0.000   0.000   0.000
  0.000   0.000  -0.000   0.000   0.000  -0.000  -0.000   0.000
  0.000   0.000  -0.000  -0.000   0.000  -0.000  -0.000  -0.000
  0.000   0.000  -0.000  -0.000   0.000   0.000   0.000  -0.000
  0.000   0.000  -0.000   0.000  -0.000  -0.000  -0.000   0.000
 -0.000  -0.000  -0.000  -0.000   0.000   0.000  -0.000  -0.000
 -0.000  -0.000  -0.000  -0.000  -0.000   0.000   0.000  -0.000
 -0.000  -0.000  -0.000   0.000  -0.000   0.000   0.000   0.000
 -0.000  -0.000   0.000  -0.020  -0.000  -0.000   0.013   0.000
  0.000  -0.000   0.000  -0.000  -0.025  -0.000   0.000   0.016
 -0.000   0.000   0.011  -0.000   0.000  -0.007   0.000  -0.000
  0.000  -0.000   0.000  -0.018  -0.000  -0.000   0.012   0.000
 -0.000  -0.000   0.000   0.000   0.011  -0.000  -0.000  -0.007
  0.000  -0.000  -0.025   0.000   0.000   0.016  -0.000  -0.000
 -0.000  -0.000   0.000  -0.000   0.000  -0.000   0.000  -0.000
 -0.000  -0.000   0.000  -0.019  -0.000  -0.000   0.013   0.000
  0.000  -0.000   0.000  -0.000  -0.024  -0.000   0.000   0.016
 -0.000   0.000   0.011  -0.000   0.000  -0.007   0.000  -0.000
  0.000  -0.000   0.000  -0.017  -0.000  -0.000   0.012   0.000
 -0.000  -0.000   0.000   0.000   0.011  -0.000  -0.000  -0.007
  0.000  -0.000  -0.024   0.000   0.000   0.016  -0.000  -0.000
 -0.000  -0.000   0.000  -0.000   0.000  -0.000   0.000  -0.000
 total augmentation occupancy for first ion, spin component:           1
  1.993  -0.037   0.000   0.000   0.000   0.000   0.000   0.000   0.000   0.000  -0.000  -0.000  -0.000  -0.000  -0.000  -0.000
 -0.037   0.611   0.000   0.000   0.000   0.000   0.000   0.000  -0.000  -0.000   0.000  -0.000   0.000  -0.000  -0.000   0.000
  0.000   0.000   2.013   0.000   0.000  -0.019  -0.000  -0.000   0.000   0.000   0.000   0.000   0.000   0.000   0.000   0.000
  0.000   0.000   0.000   2.013   0.000  -0.000  -0.019   0.000   0.000   0.000   0.000   0.000   0.000   0.000   0.000   0.000
  0.000   0.000   0.000   0.000   2.013  -0.000   0.000  -0.019   0.000   0.000   0.000   0.000   0.000   0.000   0.000   0.000
  0.000   0.000  -0.019  -0.000  -0.000   0.020  -0.000   0.000   0.000   0.000   0.000   0.000   0.000   0.000   0.000   0.000
  0.000   0.000  -0.000  -0.019   0.000  -0.000   0.020   0.000   0.000   0.000   0.000   0.000   0.000   0.000   0.000   0.000
  0.000   0.000  -0.000   0.000  -0.019   0.000   0.000   0.020   0.000   0.000   0.000   0.000   0.000   0.000   0.000   0.000
  0.000  -0.000   0.000   0.000   0.000   0.000   0.000   0.000   0.232   0.000   0.000  -0.080   0.000   0.063   0.000   0.000
  0.000  -0.000   0.000   0.000   0.000   0.000   0.000   0.000   0.000   0.289  -0.000   0.000  -0.080   0.000   0.085  -0.000
 -0.000   0.000   0.000   0.000   0.000   0.000   0.000   0.000   0.000  -0.000   0.175   0.000  -0.000   0.000  -0.000   0.042
 -0.000  -0.000   0.000   0.000   0.000   0.000   0.000   0.000  -0.080   0.000   0.000   0.289  -0.000  -0.030   0.000  -0.000
 -0.000   0.000   0.000   0.000   0.000   0.000   0.000   0.000   0.000  -0.080  -0.000  -0.000   0.232  -0.000  -0.030  -0.000
 -0.000  -0.000   0.000   0.000   0.000   0.000   0.000   0.000   0.063   0.000   0.000  -0.030  -0.000   0.018   0.000   0.000
 -0.000  -0.000   0.000   0.000   0.000   0.000   0.000   0.000   0.000   0.085  -0.000   0.000  -0.030   0.000   0.026  -0.000
 -0.000   0.000   0.000   0.000   0.000   0.000   0.000   0.000   0.000  -0.000   0.042  -0.000  -0.000   0.000  -0.000   0.011
  0.000   0.000   0.000   0.000   0.000   0.000   0.000   0.000  -0.030   0.000   0.000   0.085  -0.000  -0.011   0.000  -0.000
  0.000   0.000   0.000   0.000   0.000   0.000   0.000   0.000  -0.000  -0.030  -0.000  -0.000   0.063  -0.000  -0.011  -0.000
  0.000   0.000   0.000  -0.118  -0.000  -0.000   0.081   0.000   0.000   0.000   0.000   0.000   0.000   0.000   0.000   0.000
  0.000   0.000   0.000  -0.000  -0.144   0.000   0.000   0.099   0.000   0.000   0.000   0.000   0.000   0.000   0.000   0.000
  0.000   0.000   0.064  -0.000   0.000  -0.044   0.000  -0.000   0.000   0.000   0.000   0.000   0.000   0.000   0.000   0.000
  0.000   0.000   0.000  -0.105  -0.000  -0.000   0.072   0.000   0.000   0.000   0.000   0.000   0.000   0.000   0.000   0.000
  0.000   0.000   0.000   0.000   0.064  -0.000  -0.000  -0.044   0.000   0.000   0.000   0.000   0.000   0.000   0.000   0.000
  0.000   0.000  -0.144   0.000   0.000   0.099  -0.000   0.000   0.000   0.000   0.000   0.000   0.000   0.000   0.000   0.000
  0.000   0.000   0.000  -0.000   0.000  -0.000   0.000  -0.000   0.000   0.000   0.000   0.000   0.000   0.000   0.000   0.000
  0.000   0.000  -0.000   0.120   0.000   0.000  -0.075  -0.000   0.000   0.000   0.000   0.000   0.000   0.000   0.000   0.000
  0.000   0.000  -0.000   0.000   0.147   0.000  -0.000  -0.091   0.000   0.000   0.000   0.000   0.000   0.000   0.000   0.000
  0.000   0.000  -0.066   0.000  -0.000   0.041  -0.000   0.000   0.000   0.000   0.000   0.000   0.000   0.000   0.000   0.000
  0.000   0.000  -0.000   0.107   0.000   0.000  -0.067  -0.000   0.000   0.000   0.000   0.000   0.000   0.000   0.000   0.000
  0.000   0.000  -0.000  -0.000  -0.066   0.000   0.000   0.041   0.000   0.000   0.000   0.000   0.000   0.000   0.000   0.000
  0.000   0.000   0.147  -0.000  -0.000  -0.091   0.000  -0.000   0.000   0.000   0.000   0.000   0.000   0.000   0.000   0.000
  0.000   0.000  -0.000   0.000  -0.000   0.000  -0.000   0.000   0.000   0.000   0.000   0.000   0.000   0.000   0.000   0.000
 total augmentation occupancy for first ion, spin component:           2
 -0.042  -0.157   0.000   0.000   0.000   0.000   0.000   0.000  -0.000  -0.000   0.000  -0.000   0.000  -0.000   0.000   0.000
 -0.157   0.144   0.000   0.000   0.000   0.000   0.000   0.000  -0.000  -0.000   0.000  -0.000  -0.000   0.000   0.000  -0.000
  0.000   0.000  -0.007  -0.000  -0.000  -0.043   0.000   0.000   0.000   0.000   0.000   0.000   0.000   0.000   0.000   0.000
  0.000   0.000  -0.000  -0.007   0.000   0.000  -0.043  -0.000   0.000   0.000   0.000   0.000   0.000   0.000   0.000   0.000
  0.000   0.000  -0.000   0.000  -0.007   0.000  -0.000  -0.043   0.000   0.000   0.000   0.000   0.000   0.000   0.000   0.000
  0.000   0.000  -0.043   0.000   0.000   0.004  -0.000   0.000   0.000   0.000   0.000   0.000   0.000   0.000   0.000   0.000
  0.000   0.000   0.000  -0.043  -0.000  -0.000   0.004   0.000   0.000   0.000   0.000   0.000   0.000   0.000   0.000   0.000
  0.000   0.000   0.000  -0.000  -0.043   0.000   0.000   0.004   0.000   0.000   0.000   0.000   0.000   0.000   0.000   0.000
 -0.000  -0.000   0.000   0.000   0.000   0.000   0.000   0.000   0.078   0.000   0.000   0.022   0.000   0.017  -0.000   0.000
 -0.000  -0.000   0.000   0.000   0.000   0.000   0.000   0.000   0.000   0.063  -0.000   0.000   0.022   0.000   0.015  -0.000
  0.000   0.000   0.000   0.000   0.000   0.000   0.000   0.000   0.000  -0.000   0.094   0.000  -0.000   0.000  -0.000   0.019
 -0.000  -0.000   0.000   0.000   0.000   0.000   0.000   0.000   0.022   0.000   0.000   0.063   0.000   0.003   0.000   0.000
  0.000  -0.000   0.000   0.000   0.000   0.000   0.000   0.000   0.000   0.022  -0.000   0.000   0.078   0.000   0.003  -0.000
 -0.000   0.000   0.000   0.000   0.000   0.000   0.000   0.000   0.017   0.000   0.000   0.003   0.000   0.004  -0.000   0.000
  0.000   0.000   0.000   0.000   0.000   0.000   0.000   0.000  -0.000   0.015  -0.000   0.000   0.003  -0.000   0.004  -0.000
  0.000  -0.000   0.000   0.000   0.000   0.000   0.000   0.000   0.000  -0.000   0.019   0.000  -0.000   0.000  -0.000   0.004
 -0.000  -0.000   0.000   0.000   0.000   0.000   0.000   0.000   0.003   0.000   0.000   0.015   0.000   0.000   0.000   0.000
 -0.000  -0.000   0.000   0.000   0.000   0.000   0.000   0.000   0.000   0.003  -0.000   0.000   0.017   0.000   0.000  -0.000
  0.000   0.000   0.000  -0.014  -0.000  -0.000   0.019   0.000   0.000   0.000   0.000   0.000   0.000   0.000   0.000   0.000
  0.000   0.000  -0.000  -0.000  -0.018   0.000   0.000   0.023   0.000   0.000   0.000   0.000   0.000   0.000   0.000   0.000
  0.000   0.000   0.008  -0.000   0.000  -0.010   0.000  -0.000   0.000   0.000   0.000   0.000   0.000   0.000   0.000   0.000
  0.000   0.000   0.000  -0.013  -0.000  -0.000   0.017   0.000   0.000   0.000   0.000   0.000   0.000   0.000   0.000   0.000
  0.000   0.000   0.000   0.000   0.008  -0.000  -0.000  -0.010   0.000   0.000   0.000   0.000   0.000   0.000   0.000   0.000
  0.000   0.000  -0.017   0.000  -0.000   0.023  -0.000   0.000   0.000   0.000   0.000   0.000   0.000   0.000   0.000   0.000
  0.000   0.000   0.000  -0.000   0.000  -0.000   0.000  -0.000   0.000   0.000   0.000   0.000   0.000   0.000   0.000   0.000
  0.000   0.000   0.000   0.000   0.000   0.000  -0.005  -0.000   0.000   0.000   0.000   0.000   0.000   0.000   0.000   0.000
  0.000   0.000   0.000   0.000   0.000  -0.000  -0.000  -0.006   0.000   0.000   0.000   0.000   0.000   0.000   0.000   0.000
  0.000   0.000  -0.000   0.000  -0.000   0.003  -0.000   0.000   0.000   0.000   0.000   0.000   0.000   0.000   0.000   0.000
  0.000   0.000  -0.000   0.000   0.000   0.000  -0.005  -0.000   0.000   0.000   0.000   0.000   0.000   0.000   0.000   0.000
  0.000   0.000  -0.000  -0.000  -0.000   0.000   0.000   0.003   0.000   0.000   0.000   0.000   0.000   0.000   0.000   0.000
  0.000   0.000   0.000  -0.000   0.000  -0.006   0.000  -0.000   0.000   0.000   0.000   0.000   0.000   0.000   0.000   0.000
  0.000   0.000   0.000   0.000  -0.000   0.000  -0.000   0.000   0.000   0.000   0.000   0.000   0.000   0.000   0.000   0.000


------------------------ aborting loop because EDIFF is reached ----------------------------------------


 


 total charge     
 
# of ion       s       p       d       f       tot
--------------------------------------------------
    1        2.084   5.888   0.620   6.724  15.316
    2        1.556   3.408   0.000   0.000   4.963
--------------------------------------------------
tot          3.640   9.296   0.620   6.724  20.280

 


 magnetization (x)
 
# of ion       s       p       d       f       tot
--------------------------------------------------
    1       -0.004  -0.008   0.213   6.629   6.831
    2       -0.004  -0.093   0.000   0.000  -0.097
--------------------------------------------------
tot         -0.008  -0.100   0.213   6.629   6.734

 
    CHARGE:  cpu time    0.9695: real time    0.9718
    FORLOC:  cpu time    0.0008: real time    0.0008
    FORNL :  cpu time    7.5500: real time    7.5679
    STRESS:  cpu time   22.7771: real time   22.8308
    FORCOR:  cpu time    0.0234: real time    0.0234
    FORHAR:  cpu time    0.0027: real time    0.0027
    MIXING:  cpu time    0.0012: real time    0.0012
    OFIELD:  cpu time    0.0000: real time    0.0000

  FORCE on cell =-STRESS in cart. coord.  units (eV):
  Direction    XX          YY          ZZ          XY          YZ          ZX
  --------------------------------------------------------------------------------------
  Alpha Z   226.55281   226.55281   226.55281
  Ewald    -808.87541  -808.87475  -808.87562     0.00169     0.00125    -0.00113
  Hartree   229.77410   229.77230   229.77286     0.00018    -0.00036     0.00094
  E(xc)    -122.15958  -122.15960  -122.15960     0.00001    -0.00000     0.00001
  Local     211.34035   211.34404   211.34323    -0.00075     0.00065    -0.00185
  n-local  -113.34223  -113.34195  -113.34140    -0.00054    -0.00009    -0.00018
  augment    48.13884    48.13791    48.13873    -0.00084    -0.00081     0.00060
  Kinetic   328.50370   328.50123   328.50109     0.00006    -0.00112     0.00208
  Fock        0.00000     0.00000     0.00000     0.00000     0.00000     0.00000
  -------------------------------------------------------------------------------------
  Total      -0.06743    -0.06799    -0.06791    -0.00020    -0.00049     0.00046
  in kB      -3.29486    -3.32245    -3.31843    -0.00983    -0.02381     0.02266
  external pressure =       -3.31 kB  Pullay stress =        0.00 kB


 VOLUME and BASIS-vectors are now :
 -----------------------------------------------------------------------------
  energy-cutoff  :      520.00
  volume of cell :       32.79
      direct lattice vectors                 reciprocal lattice vectors
     3.592646000  0.000000000  0.000000000     0.278346378 -0.160711160 -0.113639704
     1.796385000  3.111279000  0.000000000     0.000000000  0.321411227 -0.113638968
     1.796393000  1.037117000  2.933334000     0.000000000  0.000000000  0.340909013

  length of vectors
     3.592646000  3.592639153  3.592643572     0.340908734  0.340909066  0.340909013


 FORCES acting on ions
    electron-ion (+dipol)            ewald-force                    non-local-force                 convergence-correction
 -----------------------------------------------------------------------------------------------
   -.113E-13 -.709E-14 -.794E-14   -.130E-13 -.809E-15 -.492E-14   0.331E-23 0.165E-23 0.000E+00   -.102E-13 -.177E-13 0.220E-13
   0.158E-11 0.316E-12 0.654E-12   0.108E-13 0.840E-16 0.438E-14   0.000E+00 0.000E+00 0.000E+00   -.168E-13 -.582E-14 -.153E-13
 -----------------------------------------------------------------------------------------------
   0.157E-11 0.309E-12 0.646E-12   -.213E-14 -.725E-15 -.535E-15   0.331E-23 0.165E-23 0.000E+00   -.270E-13 -.235E-13 0.667E-14
 
 
 POSITION                                       TOTAL-FORCE (eV/Angst)
 -----------------------------------------------------------------------------------
      0.00000      0.00000      0.00000         0.000000      0.000000      0.000000
      3.59271      2.07420      1.46667        -0.000000     -0.000000      0.000000
 -----------------------------------------------------------------------------------
    total drift:                                0.000000      0.000000      0.000000


--------------------------------------------------------------------------------------------------------



  FREE ENERGIE OF THE ION-ELECTRON SYSTEM (eV)
  ---------------------------------------------------
  free  energy   TOTEN  =       -20.85773162 eV

  energy  without entropy=      -20.85773162  energy(sigma->0) =      -20.85773162
 


--------------------------------------------------------------------------------------------------------


    POTLOK:  cpu time    1.1591: real time    1.1619


--------------------------------------------------------------------------------------------------------


     LOOP+:  cpu time  599.3937: real time  600.8895
    4ORBIT:  cpu time    0.0000: real time    0.0000
 


 total charge     
 
# of ion       s       p       d       f       tot
--------------------------------------------------
    1        2.084   5.888   0.620   6.724  15.316
    2        1.556   3.408   0.000   0.000   4.963
--------------------------------------------------
tot          3.640   9.296   0.620   6.724  20.280

 


 magnetization (x)
 
# of ion       s       p       d       f       tot
--------------------------------------------------
    1       -0.004  -0.008   0.213   6.629   6.831
    2       -0.004  -0.093   0.000   0.000  -0.097
--------------------------------------------------
tot         -0.008  -0.100   0.213   6.629   6.734

 
 BZINTS: Fermi energy:  4.971021; 23.000000 electrons
         Band energy:-146.007107;  BLOECHL correction: -0.000785

 total amount of memory used by VASP MPI-rank0   126113. kBytes
=======================================================================

   base      :      30000. kBytes
   nonlr-proj:       1402. kBytes
   fftplans  :        926. kBytes
   grid      :       2251. kBytes
   one-center:         98. kBytes
   wavefun   :      91436. kBytes
 
  
  
 General timing and accounting informations for this job:
 ========================================================
  
                  Total CPU time used (sec):      608.628
                            User time (sec):      606.529
                          System time (sec):        2.099
                         Elapsed time (sec):      610.639
  
                   Maximum memory used (kb):      186364.
                   Average memory used (kb):           0.
  
                          Minor page faults:        54928
                          Major page faults:            0
                 Voluntary context switches:          198
