 vasp.5.4.4.18Apr17-6-g9f103f2a35 (build Apr 28 2018 00:24:27) complex          
  
 executed on             LinuxIFC date 2021.03.28  02:17:03
 running on    8 total cores
 distrk:  each k-point on    8 cores,    1 groups
 distr:  one band on NCORES_PER_BAND=   1 cores,    8 groups


--------------------------------------------------------------------------------------------------------


 INCAR:
 POTCAR:    PAW_PBE Eu 23Dec2003                  
 POTCAR:    PAW_PBE O 08Apr2002                   

 ----------------------------------------------------------------------------- 
|                                                                             |
|           W    W    AA    RRRRR   N    N  II  N    N   GGGG   !!!           |
|           W    W   A  A   R    R  NN   N  II  NN   N  G    G  !!!           |
|           W    W  A    A  R    R  N N  N  II  N N  N  G       !!!           |
|           W WW W  AAAAAA  RRRRR   N  N N  II  N  N N  G  GGG   !            |
|           WW  WW  A    A  R   R   N   NN  II  N   NN  G    G                |
|           W    W  A    A  R    R  N    N  II  N    N   GGGG   !!!           |
|                                                                             |
|      For optimal performance we recommend to set                            |
|        NCORE= 4 - approx SQRT( number of cores)                             |
|      NCORE specifies how many cores store one orbital (NPAR=cpu/NCORE).     |
|      This setting can  greatly improve the performance of VASP for DFT.     |
|      The default,   NCORE=1            might be grossly inefficient         |
|      on modern multi-core architectures or massively parallel machines.     |
|      Do your own testing !!!!                                               |
|      Unfortunately you need to use the default for GW and RPA calculations. |
|      (for HF NCORE is supported but not extensively tested yet)             |
|                                                                             |
 ----------------------------------------------------------------------------- 

 POTCAR:    PAW_PBE Eu 23Dec2003                  
   VRHFIN =Eu : [core=Kr4d]                                                     
   LEXCH  = PE                                                                  
   EATOM  =  2619.8085 eV,  192.5505 Ry                                         
                                                                                
   TITEL  = PAW_PBE Eu 23Dec2003                                                
   LULTRA =        F    use ultrasoft PP ?                                      
   IUNSCR =        1    unscreen: 0-lin 1-nonlin 2-no                           
   RPACOR =    2.300    partial core radius                                     
   POMASS =  151.965; ZVAL   =   17.000    mass and valenz                      
   RCORE  =    2.800    outmost cutoff radius                                   
   RWIGS  =    2.800; RWIGS  =    1.482    wigner-seitz radius (au A)           
   ENMAX  =  249.668; ENMIN  =  187.251 eV                                      
   RCLOC  =    2.308    cutoff for local pot                                    
   LCOR   =        T    correct aug charges                                     
   LPAW   =        T    paw PP                                                  
   EAUG   =  549.628                                                            
   DEXC   =    0.000                                                            
   RMAX   =    2.870    core radius for proj-oper                               
   RAUG   =    1.300    factor for augmentation sphere                          
   RDEP   =    2.887    radius for radial grids                                 
   RDEPT  =    2.221    core radius for aug-charge                              
                                                                                
   Atomic configuration                                                         
   14 entries                                                                   
     n  l   j            E        occ.                                          
     1  0  0.50    -48354.7667   2.0000                                         
     2  0  0.50     -7939.6472   2.0000                                         
     2  1  1.50     -7072.6637   6.0000                                         
     3  0  0.50     -1747.1875   2.0000                                         
     3  1  1.50     -1477.5221   6.0000                                         
     3  2  2.50     -1117.4686  10.0000                                         
     4  0  0.50      -346.8682   2.0000                                         
     4  1  1.50      -258.1962   6.0000                                         
     4  2  2.50      -134.7724  10.0000                                         
     5  0  0.50       -44.6510   2.0000                                         
     6  0  0.50        -3.6227   2.0000                                         
     5  1  1.50       -23.7639   6.0000                                         
     5  2  2.50        -1.3130   0.0000                                         
     4  3  2.50        -2.7310   7.0000                                         
   Description                                                                  
     l       E           TYP  RCUT    TYP  RCUT                                 
     0    -44.6510453     23  2.400                                             
     0     -3.6226685     23  2.400                                             
     1    -23.7638687     23  2.400                                             
     1     27.2116520     23  2.400                                             
     2     -1.3129622     23  2.500                                             
     2     13.6058260     23  2.500                                             
     3     -2.7309948     23  2.800                                             
     3     -3.4014565     23  2.800                                             
  local pseudopotential read in
  partial core-charges read in
  partial kinetic energy density read in
  atomic valenz-charges read in
  non local Contribution for L=           0  read in
    real space projection operators read in
  non local Contribution for L=           0  read in
    real space projection operators read in
  non local Contribution for L=           1  read in
    real space projection operators read in
  non local Contribution for L=           1  read in
    real space projection operators read in
  non local Contribution for L=           2  read in
    real space projection operators read in
  non local Contribution for L=           2  read in
    real space projection operators read in
  non local Contribution for L=           3  read in
    real space projection operators read in
  non local Contribution for L=           3  read in
    real space projection operators read in
    PAW grid and wavefunctions read in
 
   number of l-projection  operators is LMAX  =           8
   number of lm-projection operators is LMMAX =          32
 
 POTCAR:    PAW_PBE O 08Apr2002                   
   VRHFIN =O: s2p4                                                              
   LEXCH  = PE                                                                  
   EATOM  =   432.3788 eV,   31.7789 Ry                                         
                                                                                
   TITEL  = PAW_PBE O 08Apr2002                                                 
   LULTRA =        F    use ultrasoft PP ?                                      
   IUNSCR =        1    unscreen: 0-lin 1-nonlin 2-no                           
   RPACOR =    1.200    partial core radius                                     
   POMASS =   16.000; ZVAL   =    6.000    mass and valenz                      
   RCORE  =    1.520    outmost cutoff radius                                   
   RWIGS  =    1.550; RWIGS  =    0.820    wigner-seitz radius (au A)           
   ENMAX  =  400.000; ENMIN  =  300.000 eV                                      
   ICORE  =        2    local potential                                         
   LCOR   =        T    correct aug charges                                     
   LPAW   =        T    paw PP                                                  
   EAUG   =  605.392                                                            
   DEXC   =    0.000                                                            
   RMAX   =    1.553    core radius for proj-oper                               
   RAUG   =    1.300    factor for augmentation sphere                          
   RDEP   =    1.550    radius for radial grids                                 
   RDEPT  =    1.329    core radius for aug-charge                              
                                                                                
   Atomic configuration                                                         
    4 entries                                                                   
     n  l   j            E        occ.                                          
     1  0  0.50      -514.6923   2.0000                                         
     2  0  0.50       -23.9615   2.0000                                         
     2  1  0.50        -9.0305   4.0000                                         
     3  2  1.50        -9.5241   0.0000                                         
   Description                                                                  
     l       E           TYP  RCUT    TYP  RCUT                                 
     0    -23.9615318     23  1.200                                             
     0     -9.5240782     23  1.200                                             
     1     -9.0304911     23  1.520                                             
     1      8.1634956     23  1.520                                             
     2     -9.5240782      7  1.500                                             
  local pseudopotential read in
  partial core-charges read in
  partial kinetic energy density read in
  kinetic energy density of atom read in
  atomic valenz-charges read in
  non local Contribution for L=           0  read in
    real space projection operators read in
  non local Contribution for L=           0  read in
    real space projection operators read in
  non local Contribution for L=           1  read in
    real space projection operators read in
  non local Contribution for L=           1  read in
    real space projection operators read in
    PAW grid and wavefunctions read in
 
   number of l-projection  operators is LMAX  =           4
   number of lm-projection operators is LMMAX =           8
 

 ----------------------------------------------------------------------------- 
|                                                                             |
|  ADVICE TO THIS USER RUNNING 'VASP/VAMP'   (HEAR YOUR MASTER'S VOICE ...):  |
|                                                                             |
|      You have a (more or less) 'small supercell' and for smaller cells      |
|      it is recommended  to use the reciprocal-space projection scheme!      |
|      The real space optimization is not  efficient for small cells and it   |
|      is also less accurate ...                                              |
|      Therefore set LREAL=.FALSE. in the  INCAR file                         |
|                                                                             |
 ----------------------------------------------------------------------------- 

 Optimization of the real space projectors (new method)

 maximal supplied QI-value         = 13.42
 optimisation between [QCUT,QGAM] = [ 11.67, 23.35] = [ 38.16,152.62] Ry 
 Optimized for a Real-space Cutoff    1.63 Angstroem

   l    n(q)    QCUT    max X(q) W(low)/X(q) W(high)/X(q)  e(spline) 
   0     11    11.673    10.400    0.14E-04    0.18E-05    0.24E-07
   0     11    11.673    10.768    0.21E-04    0.32E-05    0.49E-07
   1     11    11.673     4.094    0.40E-05    0.13E-04    0.93E-07
   1     11    11.673     4.009    0.11E-04    0.46E-04    0.33E-06
   2     10    11.673    29.030    0.79E-04    0.60E-04    0.70E-06
   2     10    11.673    19.941    0.80E-04    0.60E-04    0.71E-06
   3     10    11.673    88.889    0.23E-03    0.29E-03    0.30E-06
   3     10    11.673    76.102    0.23E-03    0.30E-03    0.30E-06
 Optimization of the real space projectors (new method)

 maximal supplied QI-value         = 24.76
 optimisation between [QCUT,QGAM] = [ 11.64, 23.27] = [ 37.91,151.63] Ry 
 Optimized for a Real-space Cutoff    1.14 Angstroem

   l    n(q)    QCUT    max X(q) W(low)/X(q) W(high)/X(q)  e(spline) 
   0      8    11.635    20.381    0.10E-03    0.33E-03    0.24E-06
   0      8    11.635    15.268    0.11E-03    0.35E-03    0.26E-06
   1      7    11.635     5.964    0.24E-03    0.31E-03    0.30E-06
   1      7    11.635     5.382    0.22E-03    0.25E-03    0.26E-06
  PAW_PBE Eu 23Dec2003                  :
 energy of atom  1       EATOM=-2619.8085
 kinetic energy error for atom=    0.0015 (will be added to EATOM!!)
  PAW_PBE O 08Apr2002                   :
 energy of atom  2       EATOM= -432.3788
 kinetic energy error for atom=    0.0208 (will be added to EATOM!!)
 
 
 POSCAR: Eu1 O1                                  
  positions in direct lattice
  No initial velocities read in
 exchange correlation table for  LEXCH =        8
   RHO(1)=    0.500       N(1)  =     2000
   RHO(2)=  100.500       N(2)  =     4000
 


--------------------------------------------------------------------------------------------------------


 ion  position               nearest neighbor table
   1  0.000  0.000  0.000-   2 2.54   2 2.54   2 2.54   2 2.54   2 2.54   2 2.54
   2  0.500  0.500  0.500-   1 2.54   1 2.54   1 2.54   1 2.54   1 2.54   1 2.54
 
  LATTYP: Found a trigonal (rhomboedric) cell.
 ALAT       =     3.5926435723
 COS(alpha) =     0.5000184241
  
  Lattice vectors:
  
 A1 = (   3.5926460000,   0.0000000000,   0.0000000000)
 A2 = (   1.7963850000,   3.1112790000,   0.0000000000)
 A3 = (   1.7963930000,   1.0371170000,   2.9333340000)


Analysis of symmetry for initial positions (statically):
=====================================================================
 Subroutine PRICEL returns:
 Original cell was already a primitive cell.
 

 Routine SETGRP: Setting up the symmetry group for a 
 trigonal (rhombohedral) supercell.


 Subroutine GETGRP returns: Found 12 space group operations
 (whereof 12 operations were pure point group operations)
 out of a pool of 12 trial point group operations.


The static configuration has the point symmetry D_3d.


Analysis of symmetry for dynamics (positions and initial velocities):
=====================================================================
 Subroutine PRICEL returns:
 Original cell was already a primitive cell.
 

 Routine SETGRP: Setting up the symmetry group for a 
 trigonal (rhombohedral) supercell.


 Subroutine GETGRP returns: Found 12 space group operations
 (whereof 12 operations were pure point group operations)
 out of a pool of 12 trial point group operations.


The dynamic configuration has the point symmetry D_3d.


Analysis of structural, dynamic, and magnetic symmetry:
=====================================================================
 Subroutine PRICEL returns:
 Original cell was already a primitive cell.
 

 Routine SETGRP: Setting up the symmetry group for a 
 trigonal (rhombohedral) supercell.


 Subroutine GETGRP returns: Found 12 space group operations
 (whereof 12 operations were pure point group operations)
 out of a pool of 12 trial point group operations.


The magnetic configuration has the point symmetry D_3d.


 Subroutine INISYM returns: Found 12 space group operations
 (whereof 12 operations are pure point group operations),
 and found     1 'primitive' translations

 
 
 KPOINTS: pymatgen v2019.10.16 with grid density =

Automatic generation of k-mesh.
Space group operators:
 irot       det(A)        alpha          n_x          n_y          n_z        tau_x        tau_y        tau_z
    1     1.000000     0.000001     1.000000     0.000000     0.000000     0.000000     0.000000     0.000000
    2    -1.000000     0.000001     1.000000     0.000000     0.000000     0.000000     0.000000     0.000000
    3     1.000000   180.000000     0.000000    -0.577347     0.816499     0.000000     0.000000     0.000000
    4    -1.000000   180.000000     0.000000    -0.577347     0.816499     0.000000     0.000000     0.000000
    5     1.000000   120.000000    -0.816505    -0.471398    -0.333322     0.000000     0.000000     0.000000
    6    -1.000000   120.000000    -0.816505    -0.471398    -0.333322     0.000000     0.000000     0.000000
    7     1.000000   180.000000    -0.499990     0.866031     0.000001     0.000000     0.000000     0.000000
    8    -1.000000   180.000000    -0.499990     0.866031     0.000001     0.000000     0.000000     0.000000
    9     1.000000   120.000000     0.816503     0.471398     0.333327     0.000000     0.000000     0.000000
   10    -1.000000   120.000000     0.816503     0.471398     0.333327     0.000000     0.000000     0.000000
   11     1.000000   180.000000    -0.499990     0.288683     0.816500     0.000000     0.000000     0.000000
   12    -1.000000   180.000000    -0.499990     0.288683     0.816500     0.000000     0.000000     0.000000
 
 Subroutine IBZKPT returns following result:
 ===========================================
 
 Found     85 irreducible k-points:
 
 Following reciprocal coordinates:
            Coordinates               Weight
  0.000000  0.000000  0.000000      1.000000
  0.111111 -0.000000  0.000000      6.000000
  0.222222  0.000000  0.000000      6.000000
  0.333333 -0.000000 -0.000000      6.000000
  0.444444  0.000000  0.000000      6.000000
  0.111111  0.111111  0.000000      6.000000
  0.222222  0.111111 -0.000000     12.000000
  0.333333  0.111111  0.000000     12.000000
  0.444444  0.111111  0.000000     12.000000
 -0.444444  0.111111  0.000000     12.000000
 -0.333333  0.111111  0.000000     12.000000
 -0.222222  0.111111  0.000000     12.000000
 -0.111111  0.111111  0.000000      6.000000
  0.222222  0.222222  0.000000      6.000000
  0.333333  0.222222  0.000000     12.000000
  0.444444  0.222222  0.000000     12.000000
 -0.444444  0.222222  0.000000     12.000000
 -0.333333  0.222222  0.000000     12.000000
 -0.222222  0.222222  0.000000      6.000000
  0.333333  0.333333  0.000000      6.000000
  0.444444  0.333333 -0.000000     12.000000
 -0.444444  0.333333  0.000000     12.000000
 -0.333333  0.333333  0.000000      6.000000
  0.444444  0.444444  0.000000      6.000000
 -0.444444  0.444444  0.000000      6.000000
  0.111111  0.111111  0.111111      2.000000
  0.222222  0.111111  0.111111      6.000000
  0.333333  0.111111  0.111111      6.000000
  0.444444  0.111111  0.111111      6.000000
 -0.444444  0.111111  0.111111      6.000000
 -0.333333  0.111111  0.111111      6.000000
 -0.222222  0.111111  0.111111      6.000000
 -0.111111  0.111111  0.111111      6.000000
  0.222222  0.222222  0.111111      6.000000
  0.333333  0.222222  0.111111     12.000000
  0.444444  0.222222  0.111111     12.000000
 -0.444444  0.222222  0.111111     12.000000
 -0.333333  0.222222  0.111111     12.000000
 -0.222222  0.222222  0.111111     12.000000
 -0.111111  0.222222  0.111111     12.000000
  0.333333  0.333333  0.111111      6.000000
  0.444444  0.333333  0.111111     12.000000
 -0.444444  0.333333  0.111111     12.000000
 -0.333333  0.333333  0.111111     12.000000
 -0.222222  0.333333  0.111111     12.000000
 -0.111111  0.333333  0.111111     12.000000
  0.444444  0.444444  0.111111      6.000000
 -0.444444  0.444444  0.111111     12.000000
 -0.333333  0.444444  0.111111     12.000000
 -0.222222  0.444444  0.111111     12.000000
 -0.111111  0.444444  0.111111     12.000000
 -0.444444 -0.444444  0.111111      6.000000
 -0.333333 -0.444444  0.111111     12.000000
 -0.222222 -0.444444  0.111111     12.000000
 -0.333333 -0.333333  0.111111      6.000000
 -0.222222 -0.333333  0.111111     12.000000
 -0.222222 -0.222222  0.111111      6.000000
  0.222222  0.222222  0.222222      2.000000
  0.333333  0.222222  0.222222      6.000000
  0.444444  0.222222  0.222222      6.000000
 -0.444444  0.222222  0.222222      6.000000
 -0.333333  0.222222  0.222222      6.000000
 -0.222222  0.222222  0.222222      6.000000
  0.333333  0.333333  0.222222      6.000000
  0.444444  0.333333  0.222222     12.000000
 -0.444444  0.333333  0.222222     12.000000
 -0.333333  0.333333  0.222222     12.000000
 -0.222222  0.333333  0.222222     12.000000
  0.444444  0.444444  0.222222      6.000000
 -0.444444  0.444444  0.222222     12.000000
 -0.333333  0.444444  0.222222     12.000000
 -0.222222  0.444444  0.222222     12.000000
 -0.444444 -0.444444  0.222222      6.000000
 -0.333333 -0.444444  0.222222     12.000000
 -0.333333 -0.333333  0.222222      6.000000
  0.333333  0.333333  0.333333      2.000000
  0.444444  0.333333  0.333333      6.000000
 -0.444444  0.333333  0.333333      6.000000
 -0.333333  0.333333  0.333333      6.000000
  0.444444  0.444444  0.333333      6.000000
 -0.444444  0.444444  0.333333     12.000000
 -0.333333  0.444444  0.333333     12.000000
 -0.444444 -0.444444  0.333333      6.000000
  0.444444  0.444444  0.444444      2.000000
 -0.444444  0.444444  0.444444      6.000000
 
 Following cartesian coordinates:
            Coordinates               Weight
  0.000000  0.000000  0.000000      1.000000
  0.030927 -0.017857 -0.012627      6.000000
  0.061855 -0.035714 -0.025253      6.000000
  0.092782 -0.053570 -0.037880      6.000000
  0.123710 -0.071427 -0.050507      6.000000
  0.030927  0.017856 -0.025253      6.000000
  0.061855 -0.000001 -0.037880     12.000000
  0.092782 -0.017858 -0.050506     12.000000
  0.123710 -0.035715 -0.063133     12.000000
 -0.123710  0.107140  0.037880     12.000000
 -0.092782  0.089283  0.025253     12.000000
 -0.061855  0.071426  0.012627     12.000000
 -0.030927  0.053569  0.000000      6.000000
  0.061855  0.035711 -0.050506      6.000000
  0.092782  0.017854 -0.063133     12.000000
  0.123710 -0.000002 -0.075760     12.000000
 -0.123710  0.142852  0.025253     12.000000
 -0.092782  0.124995  0.012627     12.000000
 -0.061855  0.107138  0.000000      6.000000
  0.092782  0.053567 -0.075760      6.000000
  0.123710  0.035710 -0.088386     12.000000
 -0.123710  0.178564  0.012627     12.000000
 -0.092782  0.160707  0.000000      6.000000
  0.123710  0.071422 -0.101013      6.000000
 -0.123710  0.214277  0.000000      6.000000
  0.030927  0.017856  0.012626      2.000000
  0.061855 -0.000001 -0.000001      6.000000
  0.092782 -0.017858 -0.012628      6.000000
  0.123710 -0.035715 -0.025254      6.000000
 -0.123710  0.107140  0.075759      6.000000
 -0.092782  0.089283  0.063132      6.000000
 -0.061855  0.071426  0.050505      6.000000
 -0.030927  0.053569  0.037879      6.000000
  0.061855  0.035711 -0.012628      6.000000
  0.092782  0.017854 -0.025254     12.000000
  0.123710 -0.000002 -0.037881     12.000000
 -0.123710  0.142852  0.063132     12.000000
 -0.092782  0.124995  0.050506     12.000000
 -0.061855  0.107138  0.037879     12.000000
 -0.030927  0.089282  0.025252     12.000000
  0.092782  0.053567 -0.037881      6.000000
  0.123710  0.035710 -0.050507     12.000000
 -0.123710  0.178564  0.050506     12.000000
 -0.092782  0.160707  0.037879     12.000000
 -0.061855  0.142851  0.025252     12.000000
 -0.030927  0.124994  0.012626     12.000000
  0.123710  0.071422 -0.063134      6.000000
 -0.123710  0.214277  0.037879     12.000000
 -0.092782  0.196420  0.025252     12.000000
 -0.061855  0.178563  0.012626     12.000000
 -0.030927  0.160706 -0.000001     12.000000
 -0.123710 -0.071422  0.138892      6.000000
 -0.092782 -0.089279  0.126265     12.000000
 -0.061855 -0.107136  0.113638     12.000000
 -0.092782 -0.053567  0.113638      6.000000
 -0.061855 -0.071423  0.101012     12.000000
 -0.061855 -0.035711  0.088385      6.000000
  0.061855  0.035711  0.025251      2.000000
  0.092782  0.017854  0.012625      6.000000
  0.123710 -0.000002 -0.000002      6.000000
 -0.123710  0.142852  0.101011      6.000000
 -0.092782  0.124995  0.088384      6.000000
 -0.061855  0.107138  0.075758      6.000000
  0.092782  0.053567 -0.000002      6.000000
  0.123710  0.035710 -0.012629     12.000000
 -0.123710  0.178564  0.088384     12.000000
 -0.092782  0.160707  0.075758     12.000000
 -0.061855  0.142851  0.063131     12.000000
  0.123710  0.071422 -0.025255      6.000000
 -0.123710  0.214277  0.075758     12.000000
 -0.092782  0.196420  0.063131     12.000000
 -0.061855  0.178563  0.050505     12.000000
 -0.123710 -0.071422  0.176770      6.000000
 -0.092782 -0.089279  0.164144     12.000000
 -0.092782 -0.053567  0.151517      6.000000
  0.092782  0.053567  0.037877      2.000000
  0.123710  0.035710  0.025250      6.000000
 -0.123710  0.178564  0.126263      6.000000
 -0.092782  0.160707  0.113637      6.000000
  0.123710  0.071422  0.012624      6.000000
 -0.123710  0.214277  0.113637     12.000000
 -0.092782  0.196420  0.101010     12.000000
 -0.123710 -0.071422  0.214649      6.000000
  0.123710  0.071422  0.050502      2.000000
 -0.123710  0.214277  0.151515      6.000000
 
 TETIRR: Found    369 inequivalent tetrahedra from     4374


--------------------------------------------------------------------------------------------------------




 Dimension of arrays:
   k-points           NKPTS =     85   k-points in BZ     NKDIM =     85   number of bands    NBANDS=     24
   number of dos      NEDOS =    301   number of ions     NIONS =      2
   non local maximal  LDIM  =      8   non local SUM 2l+1 LMDIM =     32
   total plane-waves  NPLWV =  21952
   max r-space proj   IRMAX =  12133   max aug-charges    IRDMAX=  38470
   dimension x,y,z NGX =    28 NGY =   28 NGZ =   28
   dimension x,y,z NGXF=    56 NGYF=   56 NGZF=   56
   support grid    NGXF=    56 NGYF=   56 NGZF=   56
   ions per type =               1   1
   NGX,Y,Z   is equivalent  to a cutoff of  12.96, 12.96, 12.96 a.u.
   NGXF,Y,Z  is equivalent  to a cutoff of  25.91, 25.91, 25.91 a.u.

 SYSTEM =  unknown system                          
 POSCAR =  Eu1 O1                                  

 Startparameter for this run:
   NWRITE =      2    write-flag & timer
   PREC   = accura    normal or accurate (medium, high low for compatibility)
   ISTART =      0    job   : 0-new  1-cont  2-samecut
   ICHARG =      0    charge: 1-file 2-atom 10-const
   ISPIN  =      2    spin polarized calculation?
   LNONCOLLINEAR =      F non collinear calculations
   LSORBIT =      F    spin-orbit coupling
   INIWAV =      1    electr: 0-lowe 1-rand  2-diag
   LASPH  =      F    aspherical Exc in radial PAW
   METAGGA=      F    non-selfconsistent MetaGGA calc.

 Electronic Relaxation 1
   ENCUT  =  520.0 eV  38.22 Ry    6.18 a.u.   6.68  6.68  6.68*2*pi/ulx,y,z
   ENINI  =  520.0     initial cutoff
   ENAUG  =  605.4 eV  augmentation charge cutoff
   NELM   =    100;   NELMIN=  2; NELMDL= -5     # of ELM steps 
   EDIFF  = 0.1E-03   stopping-criterion for ELM
   LREAL  =      T    real-space projection
   NLSPLINE    = F    spline interpolate recip. space projectors
   LCOMPAT=      F    compatible to vasp.4.4
   GGA_COMPAT  = T    GGA compatible to vasp.4.4-vasp.4.6
   LMAXPAW     = -100 max onsite density
   LMAXMIX     =    2 max onsite mixed and CHGCAR
   VOSKOWN=      0    Vosko Wilk Nusair interpolation
   ROPT   =   -0.00025  -0.00025
 Ionic relaxation
   EDIFFG = 0.1E-02   stopping-criterion for IOM
   NSW    =      0    number of steps for IOM
   NBLOCK =      1;   KBLOCK =      1    inner block; outer block 
   IBRION =     -1    ionic relax: 0-MD 1-quasi-New 2-CG
   NFREE  =      0    steps in history (QN), initial steepest desc. (CG)
   ISIF   =      3    stress and relaxation
   IWAVPR =     10    prediction:  0-non 1-charg 2-wave 3-comb
   ISYM   =      2    0-nonsym 1-usesym 2-fastsym
   LCORR  =      T    Harris-Foulkes like correction to forces

   POTIM  = 0.5000    time-step for ionic-motion
   TEIN   =    0.0    initial temperature
   TEBEG  =    0.0;   TEEND  =   0.0 temperature during run
   SMASS  =  -3.00    Nose mass-parameter (am)
   estimated Nose-frequenzy (Omega)   =  0.10E-29 period in steps =****** mass=  -0.295E-27a.u.
   SCALEE = 1.0000    scale energy and forces
   NPACO  =    256;   APACO  = 16.0  distance and # of slots for P.C.
   PSTRESS=    0.0 pullay stress

  Mass of Ions in am
   POMASS = 151.97 16.00
  Ionic Valenz
   ZVAL   =  17.00  6.00
  Atomic Wigner-Seitz radii
   RWIGS  =  -1.00 -1.00
  virtual crystal weights 
   VCA    =   1.00  1.00
   NELECT =      23.0000    total number of electrons
   NUPDOWN=      -1.0000    fix difference up-down

 DOS related values:
   EMIN   =  10.00;   EMAX   =-10.00  energy-range for DOS
   EFERMI =   0.00
   ISMEAR =    -5;   SIGMA  =   0.05  broadening in eV -4-tet -1-fermi 0-gaus

 Electronic relaxation 2 (details)
   IALGO  =     38    algorithm
   LDIAG  =      T    sub-space diagonalisation (order eigenvalues)
   LSUBROT=      F    optimize rotation matrix (better conditioning)
   TURBO    =      0    0=normal 1=particle mesh
   IRESTART =      0    0=no restart 2=restart with 2 vectors
   NREBOOT  =      0    no. of reboots
   NMIN     =      0    reboot dimension
   EREF     =   0.00    reference energy to select bands
   IMIX   =      4    mixing-type and parameters
     AMIX     =   0.40;   BMIX     =  1.00
     AMIX_MAG =   1.60;   BMIX_MAG =  1.00
     AMIN     =   0.10
     WC   =   100.;   INIMIX=   1;  MIXPRE=   1;  MAXMIX= -45

 Intra band minimization:
   WEIMIN = 0.0000     energy-eigenvalue tresh-hold
   EBREAK =  0.10E-05  absolut break condition
   DEPER  =   0.30     relativ break condition  

   TIME   =   0.40     timestep for ELM

  volume/ion in A,a.u.               =      16.39       110.63
  Fermi-wavevector in a.u.,A,eV,Ry     =   1.454607  2.748810 28.788334  2.115883
  Thomas-Fermi vector in A             =   2.571738
 
 Write flags
   LWAVE        =      F    write WAVECAR
   LDOWNSAMPLE  =      F    k-point downsampling of WAVECAR
   LCHARG       =      T    write CHGCAR
   LVTOT        =      F    write LOCPOT, total local potential
   LVHAR        =      T    write LOCPOT, Hartree potential only
   LELF         =      F    write electronic localiz. function (ELF)
   LORBIT       =     11    0 simple, 1 ext, 2 COOP (PROOUT), +10 PAW based schemes


 Dipole corrections
   LMONO  =      F    monopole corrections only (constant potential shift)
   LDIPOL =      F    correct potential (dipole corrections)
   IDIPOL =      0    1-x, 2-y, 3-z, 4-all directions 
   EPSILON=  1.0000000 bulk dielectric constant

 Exchange correlation treatment:
   GGA     =    --    GGA type
   LEXCH   =     8    internal setting for exchange type
   VOSKOWN=      0    Vosko Wilk Nusair interpolation
   LHFCALC =     F    Hartree Fock is set to
   LHFONE  =     F    Hartree Fock one center treatment
   AEXX    =    0.0000 exact exchange contribution

 Linear response parameters
   LEPSILON=     F    determine dielectric tensor
   LRPA    =     F    only Hartree local field effects (RPA)
   LNABLA  =     F    use nabla operator in PAW spheres
   LVEL    =     F    velocity operator in full k-point grid
   LINTERFAST=   F  fast interpolation
   KINTER  =     0    interpolate to denser k-point grid
   CSHIFT  =0.1000    complex shift for real part using Kramers Kronig
   OMEGAMAX=  -1.0    maximum frequency
   DEG_THRESHOLD= 0.2000000E-02 threshold for treating states as degnerate
   RTIME   =   -0.100 relaxation time in fs
  (WPLASMAI=    0.000 imaginary part of plasma frequency in eV, 0.658/RTIME)
   DFIELD  = 0.0000000 0.0000000 0.0000000 field for delta impulse in time
 
 Orbital magnetization related:
   ORBITALMAG=     F  switch on orbital magnetization
   LCHIMAG   =     F  perturbation theory with respect to B field
   DQ        =  0.001000  dq finite difference perturbation B field
   LLRAUG    =     F  two centre corrections for induced B field



--------------------------------------------------------------------------------------------------------


 Static calculation
 charge density and potential will be updated during run
 spin polarized calculation
 Variant of blocked Davidson
 Davidson routine will perform the subspace rotation
 perform sub-space diagonalisation
    after iterative eigenvector-optimisation
 modified Broyden-mixing scheme, WC =      100.0
 initial mixing is a Kerker type mixing with AMIX =  0.4000 and BMIX =      1.0000
 Hartree-type preconditioning will be used
 using additional bands           12
 real space projection scheme for non local part
 use partial core corrections
 calculate Harris-corrections to forces 
   (improved forces if not selfconsistent)
 use gradient corrections 
 use of overlap-Matrix (Vanderbilt PP)
 Fermi weights with tetrahedron method with Bloechl corrections


--------------------------------------------------------------------------------------------------------


  energy-cutoff  :      520.00
  volume of cell :       32.79
      direct lattice vectors                 reciprocal lattice vectors
     3.592646000  0.000000000  0.000000000     0.278346378 -0.160711160 -0.113639704
     1.796385000  3.111279000  0.000000000     0.000000000  0.321411227 -0.113638968
     1.796393000  1.037117000  2.933334000     0.000000000  0.000000000  0.340909013

  length of vectors
     3.592646000  3.592639153  3.592643572     0.340908734  0.340909066  0.340909013


 
 k-points in units of 2pi/SCALE and weight: pymatgen v2019.10.16 with grid density =
   0.00000000  0.00000000  0.00000000       0.001
   0.03092738 -0.01785680 -0.01262663       0.008
   0.06185475 -0.03571359 -0.02525327       0.008
   0.09278213 -0.05357039 -0.03787990       0.008
   0.12370950 -0.07142718 -0.05050654       0.008
   0.03092738  0.01785556 -0.02525319       0.008
   0.06185475 -0.00000123 -0.03787982       0.016
   0.09278213 -0.01785803 -0.05050645       0.016
   0.12370950 -0.03571482 -0.06313309       0.016
  -0.12370950  0.10713954  0.03787998       0.016
  -0.09278213  0.08928275  0.02525335       0.016
  -0.06185475  0.07142595  0.01262672       0.016
  -0.03092738  0.05356915  0.00000008       0.008
   0.06185475  0.03571113 -0.05050637       0.008
   0.09278213  0.01785433 -0.06313301       0.016
   0.12370950 -0.00000247 -0.07575964       0.016
  -0.12370950  0.14285190  0.02525343       0.016
  -0.09278213  0.12499510  0.01262680       0.016
  -0.06185475  0.10713831  0.00000016       0.008
   0.09278213  0.05356669 -0.07575956       0.008
   0.12370950  0.03570989 -0.08838619       0.016
  -0.12370950  0.17856426  0.01262688       0.016
  -0.09278213  0.16070746  0.00000025       0.008
   0.12370950  0.07142225 -0.10101274       0.008
  -0.12370950  0.21427662  0.00000033       0.008
   0.03092738  0.01785556  0.01262559       0.003
   0.06185475 -0.00000123 -0.00000104       0.008
   0.09278213 -0.01785803 -0.01262767       0.008
   0.12370950 -0.03571482 -0.02525431       0.008
  -0.12370950  0.10713954  0.07575876       0.008
  -0.09278213  0.08928275  0.06313213       0.008
  -0.06185475  0.07142595  0.05050549       0.008
  -0.03092738  0.05356915  0.03787886       0.008
   0.06185475  0.03571113 -0.01262759       0.008
   0.09278213  0.01785433 -0.02525423       0.016
   0.12370950 -0.00000247 -0.03788086       0.016
  -0.12370950  0.14285190  0.06313221       0.016
  -0.09278213  0.12499510  0.05050558       0.016
  -0.06185475  0.10713831  0.03787894       0.016
  -0.03092738  0.08928151  0.02525231       0.016
   0.09278213  0.05356669 -0.03788078       0.008
   0.12370950  0.03570989 -0.05050741       0.016
  -0.12370950  0.17856426  0.05050566       0.016
  -0.09278213  0.16070746  0.03787902       0.016
  -0.06185475  0.14285067  0.02525239       0.016
  -0.03092738  0.12499387  0.01262576       0.016
   0.12370950  0.07142225 -0.06313396       0.008
  -0.12370950  0.21427662  0.03787911       0.016
  -0.09278213  0.19641982  0.02525247       0.016
  -0.06185475  0.17856303  0.01262584       0.016
  -0.03092738  0.16070623 -0.00000079       0.016
  -0.12370950 -0.07142225  0.13889152       0.008
  -0.09278213 -0.08927905  0.12626489       0.016
  -0.06185475 -0.10713584  0.11363825       0.016
  -0.09278213 -0.05356669  0.11363834       0.008
  -0.06185475 -0.07142348  0.10101170       0.016
  -0.06185475 -0.03571113  0.08838515       0.008
   0.06185475  0.03571113  0.02525119       0.003
   0.09278213  0.01785433  0.01262455       0.008
   0.12370950 -0.00000247 -0.00000208       0.008
  -0.12370950  0.14285190  0.10101099       0.008
  -0.09278213  0.12499510  0.08838436       0.008
  -0.06185475  0.10713831  0.07575772       0.008
   0.09278213  0.05356669 -0.00000200       0.008
   0.12370950  0.03570989 -0.01262863       0.016
  -0.12370950  0.17856426  0.08838444       0.016
  -0.09278213  0.16070746  0.07575780       0.016
  -0.06185475  0.14285067  0.06313117       0.016
   0.12370950  0.07142225 -0.02525518       0.008
  -0.12370950  0.21427662  0.07575789       0.016
  -0.09278213  0.19641982  0.06313125       0.016
  -0.06185475  0.17856303  0.05050462       0.016
  -0.12370950 -0.07142225  0.17677030       0.008
  -0.09278213 -0.08927905  0.16414367       0.016
  -0.09278213 -0.05356669  0.15151712       0.008
   0.09278213  0.05356669  0.03787678       0.003
   0.12370950  0.03570989  0.02525015       0.008
  -0.12370950  0.17856426  0.12626322       0.008
  -0.09278213  0.16070746  0.11363658       0.008
   0.12370950  0.07142225  0.01262359       0.008
  -0.12370950  0.21427662  0.11363667       0.016
  -0.09278213  0.19641982  0.10101003       0.016
  -0.12370950 -0.07142225  0.21464908       0.008
   0.12370950  0.07142225  0.05050237       0.003
  -0.12370950  0.21427662  0.15151544       0.008
 
 k-points in reciprocal lattice and weights: pymatgen v2019.10.16 with grid density =
   0.00000000  0.00000000  0.00000000       0.001
   0.11111111 -0.00000000  0.00000000       0.008
   0.22222222  0.00000000  0.00000000       0.008
   0.33333333 -0.00000000 -0.00000000       0.008
   0.44444444  0.00000000  0.00000000       0.008
   0.11111111  0.11111111  0.00000000       0.008
   0.22222222  0.11111111 -0.00000000       0.016
   0.33333333  0.11111111  0.00000000       0.016
   0.44444444  0.11111111  0.00000000       0.016
  -0.44444444  0.11111111  0.00000000       0.016
  -0.33333333  0.11111111  0.00000000       0.016
  -0.22222222  0.11111111  0.00000000       0.016
  -0.11111111  0.11111111  0.00000000       0.008
   0.22222222  0.22222222  0.00000000       0.008
   0.33333333  0.22222222  0.00000000       0.016
   0.44444444  0.22222222  0.00000000       0.016
  -0.44444444  0.22222222  0.00000000       0.016
  -0.33333333  0.22222222  0.00000000       0.016
  -0.22222222  0.22222222  0.00000000       0.008
   0.33333333  0.33333333  0.00000000       0.008
   0.44444444  0.33333333 -0.00000000       0.016
  -0.44444444  0.33333333  0.00000000       0.016
  -0.33333333  0.33333333  0.00000000       0.008
   0.44444444  0.44444444  0.00000000       0.008
  -0.44444444  0.44444444  0.00000000       0.008
   0.11111111  0.11111111  0.11111111       0.003
   0.22222222  0.11111111  0.11111111       0.008
   0.33333333  0.11111111  0.11111111       0.008
   0.44444444  0.11111111  0.11111111       0.008
  -0.44444444  0.11111111  0.11111111       0.008
  -0.33333333  0.11111111  0.11111111       0.008
  -0.22222222  0.11111111  0.11111111       0.008
  -0.11111111  0.11111111  0.11111111       0.008
   0.22222222  0.22222222  0.11111111       0.008
   0.33333333  0.22222222  0.11111111       0.016
   0.44444444  0.22222222  0.11111111       0.016
  -0.44444444  0.22222222  0.11111111       0.016
  -0.33333333  0.22222222  0.11111111       0.016
  -0.22222222  0.22222222  0.11111111       0.016
  -0.11111111  0.22222222  0.11111111       0.016
   0.33333333  0.33333333  0.11111111       0.008
   0.44444444  0.33333333  0.11111111       0.016
  -0.44444444  0.33333333  0.11111111       0.016
  -0.33333333  0.33333333  0.11111111       0.016
  -0.22222222  0.33333333  0.11111111       0.016
  -0.11111111  0.33333333  0.11111111       0.016
   0.44444444  0.44444444  0.11111111       0.008
  -0.44444444  0.44444444  0.11111111       0.016
  -0.33333333  0.44444444  0.11111111       0.016
  -0.22222222  0.44444444  0.11111111       0.016
  -0.11111111  0.44444444  0.11111111       0.016
  -0.44444444 -0.44444444  0.11111111       0.008
  -0.33333333 -0.44444444  0.11111111       0.016
  -0.22222222 -0.44444444  0.11111111       0.016
  -0.33333333 -0.33333333  0.11111111       0.008
  -0.22222222 -0.33333333  0.11111111       0.016
  -0.22222222 -0.22222222  0.11111111       0.008
   0.22222222  0.22222222  0.22222222       0.003
   0.33333333  0.22222222  0.22222222       0.008
   0.44444444  0.22222222  0.22222222       0.008
  -0.44444444  0.22222222  0.22222222       0.008
  -0.33333333  0.22222222  0.22222222       0.008
  -0.22222222  0.22222222  0.22222222       0.008
   0.33333333  0.33333333  0.22222222       0.008
   0.44444444  0.33333333  0.22222222       0.016
  -0.44444444  0.33333333  0.22222222       0.016
  -0.33333333  0.33333333  0.22222222       0.016
  -0.22222222  0.33333333  0.22222222       0.016
   0.44444444  0.44444444  0.22222222       0.008
  -0.44444444  0.44444444  0.22222222       0.016
  -0.33333333  0.44444444  0.22222222       0.016
  -0.22222222  0.44444444  0.22222222       0.016
  -0.44444444 -0.44444444  0.22222222       0.008
  -0.33333333 -0.44444444  0.22222222       0.016
  -0.33333333 -0.33333333  0.22222222       0.008
   0.33333333  0.33333333  0.33333333       0.003
   0.44444444  0.33333333  0.33333333       0.008
  -0.44444444  0.33333333  0.33333333       0.008
  -0.33333333  0.33333333  0.33333333       0.008
   0.44444444  0.44444444  0.33333333       0.008
  -0.44444444  0.44444444  0.33333333       0.016
  -0.33333333  0.44444444  0.33333333       0.016
  -0.44444444 -0.44444444  0.33333333       0.008
   0.44444444  0.44444444  0.44444444       0.003
  -0.44444444  0.44444444  0.44444444       0.008
 
 position of ions in fractional coordinates (direct lattice) 
   0.00000000  0.00000000  0.00000000
   0.50000000  0.50000000  0.50000000
 
 position of ions in cartesian coordinates  (Angst):
   0.00000000  0.00000000  0.00000000
   3.59271200  2.07419800  1.46666700
 


--------------------------------------------------------------------------------------------------------


 k-point  1 :   0.0000 0.0000 0.0000  plane waves:     893
 k-point  2 :   0.1111-0.0000 0.0000  plane waves:     899
 k-point  3 :   0.2222 0.0000 0.0000  plane waves:     896
 k-point  4 :   0.3333-0.0000-0.0000  plane waves:     878
 k-point  5 :   0.4444 0.0000 0.0000  plane waves:     878
 k-point  6 :   0.1111 0.1111 0.0000  plane waves:     889
 k-point  7 :   0.2222 0.1111-0.0000  plane waves:     894
 k-point  8 :   0.3333 0.1111 0.0000  plane waves:     882
 k-point  9 :   0.4444 0.1111 0.0000  plane waves:     883
 k-point 10 :  -0.4444 0.1111 0.0000  plane waves:     877
 k-point 11 :  -0.3333 0.1111 0.0000  plane waves:     883
 k-point 12 :  -0.2222 0.1111 0.0000  plane waves:     888
 k-point 13 :  -0.1111 0.1111 0.0000  plane waves:     899
 k-point 14 :   0.2222 0.2222 0.0000  plane waves:     881
 k-point 15 :   0.3333 0.2222 0.0000  plane waves:     873
 k-point 16 :   0.4444 0.2222 0.0000  plane waves:     880
 k-point 17 :  -0.4444 0.2222 0.0000  plane waves:     877
 k-point 18 :  -0.3333 0.2222 0.0000  plane waves:     881
 k-point 19 :  -0.2222 0.2222 0.0000  plane waves:     881
 k-point 20 :   0.3333 0.3333 0.0000  plane waves:     866
 k-point 21 :   0.4444 0.3333-0.0000  plane waves:     885
 k-point 22 :  -0.4444 0.3333 0.0000  plane waves:     881
 k-point 23 :  -0.3333 0.3333 0.0000  plane waves:     893
 k-point 24 :   0.4444 0.4444 0.0000  plane waves:     886
 k-point 25 :  -0.4444 0.4444 0.0000  plane waves:     888
 k-point 26 :   0.1111 0.1111 0.1111  plane waves:     899
 k-point 27 :   0.2222 0.1111 0.1111  plane waves:     899
 k-point 28 :   0.3333 0.1111 0.1111  plane waves:     888
 k-point 29 :   0.4444 0.1111 0.1111  plane waves:     883
 k-point 30 :  -0.4444 0.1111 0.1111  plane waves:     877
 k-point 31 :  -0.3333 0.1111 0.1111  plane waves:     883
 k-point 32 :  -0.2222 0.1111 0.1111  plane waves:     882
 k-point 33 :  -0.1111 0.1111 0.1111  plane waves:     894
 k-point 34 :   0.2222 0.2222 0.1111  plane waves:     894
 k-point 35 :   0.3333 0.2222 0.1111  plane waves:     885
 k-point 36 :   0.4444 0.2222 0.1111  plane waves:     879
 k-point 37 :  -0.4444 0.2222 0.1111  plane waves:     884
 k-point 38 :  -0.3333 0.2222 0.1111  plane waves:     884
 k-point 39 :  -0.2222 0.2222 0.1111  plane waves:     879
 k-point 40 :  -0.1111 0.2222 0.1111  plane waves:     885
 k-point 41 :   0.3333 0.3333 0.1111  plane waves:     873
 k-point 42 :   0.4444 0.3333 0.1111  plane waves:     879
 k-point 43 :  -0.4444 0.3333 0.1111  plane waves:     880
 k-point 44 :  -0.3333 0.3333 0.1111  plane waves:     884
 k-point 45 :  -0.2222 0.3333 0.1111  plane waves:     882
 k-point 46 :  -0.1111 0.3333 0.1111  plane waves:     879
 k-point 47 :   0.4444 0.4444 0.1111  plane waves:     885
 k-point 48 :  -0.4444 0.4444 0.1111  plane waves:     881
 k-point 49 :  -0.3333 0.4444 0.1111  plane waves:     889
 k-point 50 :  -0.2222 0.4444 0.1111  plane waves:     884
 k-point 51 :  -0.1111 0.4444 0.1111  plane waves:     884
 k-point 52 :  -0.4444-0.4444 0.1111  plane waves:     888
 k-point 53 :  -0.3333-0.4444 0.1111  plane waves:     881
 k-point 54 :  -0.2222-0.4444 0.1111  plane waves:     880
 k-point 55 :  -0.3333-0.3333 0.1111  plane waves:     885
 k-point 56 :  -0.2222-0.3333 0.1111  plane waves:     879
 k-point 57 :  -0.2222-0.2222 0.1111  plane waves:     873
 k-point 58 :   0.2222 0.2222 0.2222  plane waves:     896
 k-point 59 :   0.3333 0.2222 0.2222  plane waves:     888
 k-point 60 :   0.4444 0.2222 0.2222  plane waves:     881
 k-point 61 :  -0.4444 0.2222 0.2222  plane waves:     881
 k-point 62 :  -0.3333 0.2222 0.2222  plane waves:     877
 k-point 63 :  -0.2222 0.2222 0.2222  plane waves:     880
 k-point 64 :   0.3333 0.3333 0.2222  plane waves:     882
 k-point 65 :   0.4444 0.3333 0.2222  plane waves:     879
 k-point 66 :  -0.4444 0.3333 0.2222  plane waves:     882
 k-point 67 :  -0.3333 0.3333 0.2222  plane waves:     884
 k-point 68 :  -0.2222 0.3333 0.2222  plane waves:     880
 k-point 69 :   0.4444 0.4444 0.2222  plane waves:     880
 k-point 70 :  -0.4444 0.4444 0.2222  plane waves:     880
 k-point 71 :  -0.3333 0.4444 0.2222  plane waves:     883
 k-point 72 :  -0.2222 0.4444 0.2222  plane waves:     883
 k-point 73 :  -0.4444-0.4444 0.2222  plane waves:     881
 k-point 74 :  -0.3333-0.4444 0.2222  plane waves:     889
 k-point 75 :  -0.3333-0.3333 0.2222  plane waves:     881
 k-point 76 :   0.3333 0.3333 0.3333  plane waves:     878
 k-point 77 :   0.4444 0.3333 0.3333  plane waves:     883
 k-point 78 :  -0.4444 0.3333 0.3333  plane waves:     881
 k-point 79 :  -0.3333 0.3333 0.3333  plane waves:     893
 k-point 80 :   0.4444 0.4444 0.3333  plane waves:     883
 k-point 81 :  -0.4444 0.4444 0.3333  plane waves:     884
 k-point 82 :  -0.3333 0.4444 0.3333  plane waves:     884
 k-point 83 :  -0.4444-0.4444 0.3333  plane waves:     877
 k-point 84 :   0.4444 0.4444 0.4444  plane waves:     878
 k-point 85 :  -0.4444 0.4444 0.4444  plane waves:     877

 maximum and minimum number of plane-waves per node :       899      866

 maximum number of plane-waves:       899
 maximum index in each direction: 
   IXMAX=    7   IYMAX=    7   IZMAX=    6
   IXMIN=   -7   IYMIN=   -7   IZMIN=   -7


 serial   3D FFT for wavefunctions
 parallel 3D FFT for charge:
    minimum data exchange during FFTs selected (reduces bandwidth)


 total amount of memory used by VASP MPI-rank0    46385. kBytes
=======================================================================

   base      :      30000. kBytes
   nonlr-proj:       4041. kBytes
   fftplans  :        858. kBytes
   grid      :       3587. kBytes
   one-center:        196. kBytes
   wavefun   :       7703. kBytes
 
     INWAV:  cpu time    0.0000: real time    0.0001
 Broyden mixing: mesh for mixing (old mesh)
   NGX = 13   NGY = 13   NGZ = 13
  (NGX  = 56   NGY  = 56   NGZ  = 56)
  gives a total of   2197 points

 charge density for first step will be calculated from the start-wavefunctions


--------------------------------------------------------------------------------------------------------


 Maximum index for non-local projection operator        11849
 Maximum index for augmentation-charges         4627 (set IRDMAX)


--------------------------------------------------------------------------------------------------------


 initial charge from wavefunction
 First call to EWALD:  gamma=   0.554
 Maximum number of real-space cells 3x 3x 3
 Maximum number of reciprocal cells 3x 3x 3

    FEWALD:  cpu time    0.0013: real time    0.0013


--------------------------------------- Iteration      1(   1)  ---------------------------------------


    POTLOK:  cpu time    0.0284: real time    0.0285
    SETDIJ:  cpu time    0.0105: real time    0.0105
     EDDAV:  cpu time    5.4249: real time    5.4462
 BZINTS: Fermi energy:-20.541305; 23.000000 electrons
         Band energy:-722.574834;  BLOECHL correction: -1.035531
       DOS:  cpu time    0.0298: real time    0.0324
    --------------------------------------------
      LOOP:  cpu time    5.4936: real time    5.5176

 eigenvalue-minimisations  : 11416
 total energy-change (2. order) :-0.1768935E+03  (-0.1275896E+04)
 number of electron      22.4999997 magnetization      -0.0000005
 augmentation part        2.2732285 magnetization      -0.0394037

 Free energy of the ion-electron system (eV)
  ---------------------------------------------------
  alpha Z        PSCENC =       226.55280983
  Ewald energy   TEWEN  =     -2426.62520427
  -Hartree energ DENC   =      -324.14036933
  -exchange      EXHF   =         0.00000000
  -V(xc)+E(xc)   XCENC  =        91.40076886
  PAW double counting   =      4258.48437087    -4332.15597622
  entropy T*S    EENTRO =         0.00000000
  eigenvalues    EBANDS =      -722.57483410
  atomic energy  EATOM  =      3052.16497173
  Solvation  Ediel_sol  =         0.00000000
  ---------------------------------------------------
  free energy    TOTEN  =      -176.89346264 eV

  energy without entropy =     -176.89346264  energy(sigma->0) =     -176.89346264


--------------------------------------------------------------------------------------------------------




--------------------------------------- Iteration      1(   2)  ---------------------------------------


     EDDAV:  cpu time    4.2243: real time    4.2673
 BZINTS: Fermi energy:-33.648228; 23.000000 electrons
         Band energy:-886.782946;  BLOECHL correction: -0.072102
       DOS:  cpu time    0.0324: real time    0.0352
    --------------------------------------------
      LOOP:  cpu time    4.2567: real time    4.3024

 eigenvalue-minimisations  :  9400
 total energy-change (2. order) :-0.1642081E+03  (-0.1540127E+03)
 number of electron      22.4999997 magnetization      -0.0000005
 augmentation part        2.2732285 magnetization      -0.0394037

 Free energy of the ion-electron system (eV)
  ---------------------------------------------------
  alpha Z        PSCENC =       226.55280983
  Ewald energy   TEWEN  =     -2426.62520427
  -Hartree energ DENC   =      -324.14036933
  -exchange      EXHF   =         0.00000000
  -V(xc)+E(xc)   XCENC  =        91.40076886
  PAW double counting   =      4258.48437087    -4332.15597622
  entropy T*S    EENTRO =         0.00000000
  eigenvalues    EBANDS =      -886.78294584
  atomic energy  EATOM  =      3052.16497173
  Solvation  Ediel_sol  =         0.00000000
  ---------------------------------------------------
  free energy    TOTEN  =      -341.10157438 eV

  energy without entropy =     -341.10157438  energy(sigma->0) =     -341.10157438


--------------------------------------------------------------------------------------------------------




--------------------------------------- Iteration      1(   3)  ---------------------------------------


     EDDAV:  cpu time    4.4854: real time    4.5099
 BZINTS: Fermi energy:-34.047275; 23.000000 electrons
         Band energy:-906.396047;  BLOECHL correction: -0.000007
       DOS:  cpu time    0.0273: real time    0.0313
    --------------------------------------------
      LOOP:  cpu time    4.5127: real time    4.5412

 eigenvalue-minimisations  :  8936
 total energy-change (2. order) :-0.1961310E+02  (-0.1934609E+02)
 number of electron      22.4999997 magnetization      -0.0000005
 augmentation part        2.2732285 magnetization      -0.0394037

 Free energy of the ion-electron system (eV)
  ---------------------------------------------------
  alpha Z        PSCENC =       226.55280983
  Ewald energy   TEWEN  =     -2426.62520427
  -Hartree energ DENC   =      -324.14036933
  -exchange      EXHF   =         0.00000000
  -V(xc)+E(xc)   XCENC  =        91.40076886
  PAW double counting   =      4258.48437087    -4332.15597622
  entropy T*S    EENTRO =         0.00000000
  eigenvalues    EBANDS =      -906.39604681
  atomic energy  EATOM  =      3052.16497173
  Solvation  Ediel_sol  =         0.00000000
  ---------------------------------------------------
  free energy    TOTEN  =      -360.71467535 eV

  energy without entropy =     -360.71467535  energy(sigma->0) =     -360.71467535


--------------------------------------------------------------------------------------------------------




--------------------------------------- Iteration      1(   4)  ---------------------------------------


     EDDAV:  cpu time    5.2116: real time    5.2627
 BZINTS: Fermi energy:-34.056399; 23.000000 electrons
         Band energy:-907.049742;  BLOECHL correction:  0.000000
       DOS:  cpu time    0.0068: real time    0.0115
    --------------------------------------------
      LOOP:  cpu time    5.2184: real time    5.2742

 eigenvalue-minimisations  : 11064
 total energy-change (2. order) :-0.6536947E+00  (-0.6532600E+00)
 number of electron      22.4999997 magnetization      -0.0000005
 augmentation part        2.2732285 magnetization      -0.0394037

 Free energy of the ion-electron system (eV)
  ---------------------------------------------------
  alpha Z        PSCENC =       226.55280983
  Ewald energy   TEWEN  =     -2426.62520427
  -Hartree energ DENC   =      -324.14036933
  -exchange      EXHF   =         0.00000000
  -V(xc)+E(xc)   XCENC  =        91.40076886
  PAW double counting   =      4258.48437087    -4332.15597622
  entropy T*S    EENTRO =         0.00000000
  eigenvalues    EBANDS =      -907.04974150
  atomic energy  EATOM  =      3052.16497173
  Solvation  Ediel_sol  =         0.00000000
  ---------------------------------------------------
  free energy    TOTEN  =      -361.36837004 eV

  energy without entropy =     -361.36837004  energy(sigma->0) =     -361.36837004


--------------------------------------------------------------------------------------------------------




--------------------------------------- Iteration      1(   5)  ---------------------------------------


     EDDAV:  cpu time    4.5985: real time    4.6276
 BZINTS: Fermi energy:-34.060688; 23.000000 electrons
         Band energy:-907.055075;  BLOECHL correction:  0.000000
       DOS:  cpu time    0.0080: real time    0.0108
    CHARGE:  cpu time    0.1051: real time    0.1053
    MIXING:  cpu time    0.0007: real time    0.0009
    --------------------------------------------
      LOOP:  cpu time    4.7124: real time    4.7447

 eigenvalue-minimisations  : 10128
 total energy-change (2. order) :-0.5333612E-02  (-0.5333558E-02)
 number of electron      22.9999990 magnetization      -1.3136672
 augmentation part        8.5387141 magnetization      -1.3006802

 Broyden mixing:
  rms(total) = 0.11694E+02    rms(broyden)= 0.11660E+02
  rms(prec ) = 0.26823E+02
  weight for this iteration     100.00

 Free energy of the ion-electron system (eV)
  ---------------------------------------------------
  alpha Z        PSCENC =       226.55280983
  Ewald energy   TEWEN  =     -2426.62520427
  -Hartree energ DENC   =      -324.14036933
  -exchange      EXHF   =         0.00000000
  -V(xc)+E(xc)   XCENC  =        91.40076886
  PAW double counting   =      4258.48437087    -4332.15597622
  entropy T*S    EENTRO =         0.00000000
  eigenvalues    EBANDS =      -907.05507511
  atomic energy  EATOM  =      3052.16497173
  Solvation  Ediel_sol  =         0.00000000
  ---------------------------------------------------
  free energy    TOTEN  =      -361.37370366 eV

  energy without entropy =     -361.37370366  energy(sigma->0) =     -361.37370366


--------------------------------------------------------------------------------------------------------




--------------------------------------- Iteration      1(   6)  ---------------------------------------


    POTLOK:  cpu time    0.0317: real time    0.0452
    SETDIJ:  cpu time    0.0103: real time    0.0104
     EDDAV:  cpu time    4.5378: real time    4.5500
 BZINTS: Fermi energy: -9.686075; 23.000000 electrons
         Band energy:-438.761144;  BLOECHL correction: -0.009119
       DOS:  cpu time    0.0332: real time    0.0354
    CHARGE:  cpu time    0.1046: real time    0.1049
    MIXING:  cpu time    0.0008: real time    0.0008
    --------------------------------------------
      LOOP:  cpu time    4.7185: real time    4.7466

 eigenvalue-minimisations  :  9520
 total energy-change (2. order) : 0.2711236E+03  (-0.2528660E+02)
 number of electron      23.0000001 magnetization      -1.5411989
 augmentation part       11.4296975 magnetization      -1.5279261

 Broyden mixing:
  rms(total) = 0.78641E+01    rms(broyden)= 0.78596E+01
  rms(prec ) = 0.21875E+02
  weight for this iteration     100.00

 eigenvalues of (default mixing * dielectric matrix)
  average eigenvalue GAMMA=   0.8201
  0.8201

 Free energy of the ion-electron system (eV)
  ---------------------------------------------------
  alpha Z        PSCENC =       226.55280983
  Ewald energy   TEWEN  =     -2426.62520427
  -Hartree energ DENC   =      -470.30603764
  -exchange      EXHF   =         0.00000000
  -V(xc)+E(xc)   XCENC  =       101.20794812
  PAW double counting   =      3547.62657046    -3682.11005744
  entropy T*S    EENTRO =         0.00000000
  eigenvalues    EBANDS =      -438.76114396
  atomic energy  EATOM  =      3052.16497173
  Solvation  Ediel_sol  =         0.00000000
  ---------------------------------------------------
  free energy    TOTEN  =       -90.25014317 eV

  energy without entropy =      -90.25014317  energy(sigma->0) =      -90.25014317


--------------------------------------------------------------------------------------------------------




--------------------------------------- Iteration      1(   7)  ---------------------------------------


    POTLOK:  cpu time    0.0319: real time    0.0465
    SETDIJ:  cpu time    0.0106: real time    0.0106
     EDDAV:  cpu time    5.0620: real time    5.0747
 BZINTS: Fermi energy:  9.892533; 23.000000 electrons
         Band energy:-235.426515;  BLOECHL correction: -0.103353
       DOS:  cpu time    0.0305: real time    0.0328
    CHARGE:  cpu time    0.1042: real time    0.1044
    MIXING:  cpu time    0.0008: real time    0.0008
    --------------------------------------------
      LOOP:  cpu time    5.2399: real time    5.2698

 eigenvalue-minimisations  : 10720
 total energy-change (2. order) :-0.5499380E+02  (-0.2131189E+03)
 number of electron      22.9999991 magnetization      -0.5626039
 augmentation part        0.6495433 magnetization      -0.4389583

 Broyden mixing:
  rms(total) = 0.10582E+02    rms(broyden)= 0.10581E+02
  rms(prec ) = 0.22768E+02
  weight for this iteration     100.00

 eigenvalues of (default mixing * dielectric matrix)
  average eigenvalue GAMMA=   0.5951
  0.9906  0.1996

 Free energy of the ion-electron system (eV)
  ---------------------------------------------------
  alpha Z        PSCENC =       226.55280983
  Ewald energy   TEWEN  =     -2426.62520427
  -Hartree energ DENC   =      -649.25761828
  -exchange      EXHF   =         0.00000000
  -V(xc)+E(xc)   XCENC  =       107.36988217
  PAW double counting   =      3669.49503942    -3889.51731122
  entropy T*S    EENTRO =         0.00000000
  eigenvalues    EBANDS =      -235.42651521
  atomic energy  EATOM  =      3052.16497173
  Solvation  Ediel_sol  =         0.00000000
  ---------------------------------------------------
  free energy    TOTEN  =      -145.24394584 eV

  energy without entropy =     -145.24394584  energy(sigma->0) =     -145.24394584


--------------------------------------------------------------------------------------------------------




--------------------------------------- Iteration      1(   8)  ---------------------------------------


    POTLOK:  cpu time    0.0437: real time    0.0974
    SETDIJ:  cpu time    0.0101: real time    0.0102
     EDDAV:  cpu time    4.5281: real time    4.5387
 BZINTS: Fermi energy:  9.478464; 23.000000 electrons
         Band energy:-191.962585;  BLOECHL correction: -0.035191
       DOS:  cpu time    0.0286: real time    0.0309
    CHARGE:  cpu time    0.1051: real time    0.1053
    MIXING:  cpu time    0.0007: real time    0.0007
    --------------------------------------------
      LOOP:  cpu time    4.7163: real time    4.7833

 eigenvalue-minimisations  : 10560
 total energy-change (2. order) : 0.9504298E+02  (-0.2343525E+01)
 number of electron      22.9999994 magnetization      -1.6040655
 augmentation part        0.8689274 magnetization      -1.3591166

 Broyden mixing:
  rms(total) = 0.74511E+01    rms(broyden)= 0.74511E+01
  rms(prec ) = 0.17614E+02
  weight for this iteration     100.00

 eigenvalues of (default mixing * dielectric matrix)
  average eigenvalue GAMMA=   1.0109
  1.9287  0.4664  0.6374

 Free energy of the ion-electron system (eV)
  ---------------------------------------------------
  alpha Z        PSCENC =       226.55280983
  Ewald energy   TEWEN  =     -2426.62520427
  -Hartree energ DENC   =      -628.83664832
  -exchange      EXHF   =         0.00000000
  -V(xc)+E(xc)   XCENC  =       107.16825588
  PAW double counting   =      3169.54574863    -3358.20831872
  entropy T*S    EENTRO =         0.00000000
  eigenvalues    EBANDS =      -191.96258518
  atomic energy  EATOM  =      3052.16497173
  Solvation  Ediel_sol  =         0.00000000
  ---------------------------------------------------
  free energy    TOTEN  =       -50.20097042 eV

  energy without entropy =      -50.20097042  energy(sigma->0) =      -50.20097042


--------------------------------------------------------------------------------------------------------




--------------------------------------- Iteration      1(   9)  ---------------------------------------


    POTLOK:  cpu time    0.0445: real time    0.1324
    SETDIJ:  cpu time    0.0109: real time    0.0110
     EDDAV:  cpu time    5.4710: real time    5.4839
 BZINTS: Fermi energy: -9.468255; 23.000000 electrons
         Band energy:-367.689341;  BLOECHL correction: -0.001424
       DOS:  cpu time    0.0273: real time    0.0299
    CHARGE:  cpu time    0.1022: real time    0.1025
    MIXING:  cpu time    0.0007: real time    0.0007
    --------------------------------------------
      LOOP:  cpu time    5.6567: real time    5.7604

 eigenvalue-minimisations  : 11088
 total energy-change (2. order) :-0.4169137E+02  (-0.9875215E+02)
 number of electron      22.9999996 magnetization      -0.3069917
 augmentation part       11.1947766 magnetization      -0.2817772

 Broyden mixing:
  rms(total) = 0.74525E+01    rms(broyden)= 0.74516E+01
  rms(prec ) = 0.23643E+02
  weight for this iteration     100.00

 eigenvalues of (default mixing * dielectric matrix)
  average eigenvalue GAMMA=   1.0351
  2.1804  1.0103  0.4749  0.4749

 Free energy of the ion-electron system (eV)
  ---------------------------------------------------
  alpha Z        PSCENC =       226.55280983
  Ewald energy   TEWEN  =     -2426.62520427
  -Hartree energ DENC   =      -564.81828465
  -exchange      EXHF   =         0.00000000
  -V(xc)+E(xc)   XCENC  =       106.19238158
  PAW double counting   =      2630.06494925    -2747.73462323
  entropy T*S    EENTRO =         0.00000000
  eigenvalues    EBANDS =      -367.68934100
  atomic energy  EATOM  =      3052.16497173
  Solvation  Ediel_sol  =         0.00000000
  ---------------------------------------------------
  free energy    TOTEN  =       -91.89234077 eV

  energy without entropy =      -91.89234077  energy(sigma->0) =      -91.89234077


--------------------------------------------------------------------------------------------------------




--------------------------------------- Iteration      1(  10)  ---------------------------------------


    POTLOK:  cpu time    0.0299: real time    0.0439
    SETDIJ:  cpu time    0.0086: real time    0.0086
     EDDAV:  cpu time    4.6137: real time    4.6246
 BZINTS: Fermi energy:  1.950883; 23.000000 electrons
         Band energy:-205.082937;  BLOECHL correction: -0.001252
       DOS:  cpu time    0.0314: real time    0.0340
