       N       E                     dE             d eps       ncg     rms          rms(c)
DAV:   1     0.905472382230E+03    0.90547E+03   -0.44159E+04 48184   0.250E+03
DAV:   2     0.514024661325E+02   -0.85407E+03   -0.82376E+03 43504   0.713E+02
DAV:   3    -0.240861713447E+01   -0.53811E+02   -0.50257E+02 47072   0.213E+02
DAV:   4    -0.343854834742E+01   -0.10299E+01   -0.10250E+01 47816   0.306E+01
DAV:   5    -0.346537890917E+01   -0.26831E-01   -0.26836E-01 54408   0.486E+00    0.860E+01
DAV:   6    -0.100039487802E+02   -0.65386E+01   -0.85526E+01 44472   0.110E+02    0.432E+01
DAV:   7    -0.111610053795E+02   -0.11571E+01   -0.28569E+01 49128   0.723E+01    0.439E+00
DAV:   8    -0.113774181155E+02   -0.21641E+00   -0.14196E+00 46704   0.110E+01    0.230E+00
DAV:   9    -0.113946111126E+02   -0.17193E-01   -0.38902E-02 47704   0.177E+00    0.149E+00
DAV:  10    -0.114178348899E+02   -0.23224E-01   -0.25481E-02 53040   0.172E+00    0.701E-01
DAV:  11    -0.114363400127E+02   -0.18505E-01   -0.41550E-02 65936   0.213E+00    0.472E-01
DAV:  12    -0.114441716856E+02   -0.78317E-02   -0.13358E-02 61888   0.103E+00    0.544E-01
DAV:  13    -0.114371668321E+02    0.70049E-02   -0.44791E-02 59528   0.205E+00    0.360E-01
DAV:  14    -0.114460329366E+02   -0.88661E-02   -0.13067E-02 66272   0.151E+00    0.293E-01
DAV:  15    -0.114515464224E+02   -0.55135E-02   -0.14922E-02 65128   0.150E+00    0.266E-01
DAV:  16    -0.114521428416E+02   -0.59642E-03   -0.21503E-03 43776   0.479E-01    0.231E-01
DAV:  17    -0.114519186940E+02    0.22415E-03   -0.54948E-02 68616   0.302E+00    0.389E-01
DAV:  18    -0.114575633558E+02   -0.56447E-02   -0.94995E-03 59840   0.142E+00    0.161E-01
DAV:  19    -0.114586320776E+02   -0.10687E-02   -0.22369E-03 55928   0.400E-01    0.153E-01
DAV:  20    -0.114593566214E+02   -0.72454E-03   -0.31156E-03 67896   0.456E-01    0.139E-01
DAV:  21    -0.114607863849E+02   -0.14298E-02   -0.49768E-02 72920   0.196E+00    0.172E-01
DAV:  22    -0.114619093645E+02   -0.11230E-02   -0.43748E-03 51904   0.722E-01    0.981E-02
DAV:  23    -0.114628755094E+02   -0.96614E-03   -0.31108E-03 63656   0.654E-01    0.103E-01
DAV:  24    -0.114631888539E+02   -0.31334E-03   -0.45766E-04 47008   0.165E-01    0.101E-01
DAV:  25    -0.114624329240E+02    0.75593E-03   -0.66516E-04 59048   0.376E-01    0.134E-01
DAV:  26    -0.114584261095E+02    0.40068E-02   -0.27657E-02 71048   0.160E+00    0.188E-01
DAV:  27    -0.114498648555E+02    0.85613E-02   -0.84965E-02 71968   0.253E+00    0.399E-01
DAV:  28    -0.114586443914E+02   -0.87795E-02   -0.13736E-01 69080   0.357E+00    0.214E-01
DAV:  29    -0.114622977126E+02   -0.36533E-02   -0.18365E-02 65760   0.123E+00    0.216E-01
DAV:  30    -0.114664811899E+02   -0.41835E-02   -0.98486E-03 69184   0.101E+00    0.277E-01
DAV:  31    -0.114676604111E+02   -0.11792E-02   -0.12353E-03 44680   0.284E-01    0.284E-01
DAV:  32    -0.114687516106E+02   -0.10912E-02   -0.64751E-04 72520   0.205E-01    0.288E-01
DAV:  33    -0.114686253713E+02    0.12624E-03   -0.64451E-05 43536   0.788E-02    0.287E-01
DAV:  34    -0.114664724604E+02    0.21529E-02   -0.15674E-03 69568   0.415E-01    0.261E-01
DAV:  35    -0.114615037498E+02    0.49687E-02   -0.13018E-02 71416   0.120E+00    0.171E-01
DAV:  36    -0.114590583350E+02    0.24454E-02   -0.23261E-02 72120   0.134E+00    0.149E-01
DAV:  37    -0.114562435248E+02    0.28148E-02   -0.27789E-02 71976   0.149E+00    0.220E-01
DAV:  38    -0.114539634456E+02    0.22801E-02   -0.13053E-02 63320   0.933E-01    0.285E-01
DAV:  39    -0.114563655664E+02   -0.24021E-02   -0.21182E-03 49568   0.555E-01    0.228E-01
DAV:  40    -0.114592526998E+02   -0.28871E-02   -0.22635E-02 70672   0.140E+00    0.132E-01
DAV:  41    -0.114605782963E+02   -0.13256E-02   -0.13310E-02 66592   0.106E+00    0.101E-01
DAV:  42    -0.114679326439E+02   -0.73543E-02   -0.11520E-01 72768   0.371E+00    0.396E-01
DAV:  43    -0.114767884218E+02   -0.88558E-02   -0.14607E-02 49208   0.893E-01    0.314E-01
DAV:  44    -0.114770655579E+02   -0.27714E-03   -0.53510E-04 45848   0.244E-01    0.300E-01
DAV:  45    -0.114791362944E+02   -0.20707E-02   -0.13069E-03 71776   0.459E-01    0.310E-01
DAV:  46    -0.114845920654E+02   -0.54558E-02   -0.14808E-02 69912   0.160E+00    0.362E-01
DAV:  47    -0.114837562843E+02    0.83578E-03   -0.21829E-03 55296   0.587E-01    0.333E-01
DAV:  48    -0.114830912798E+02    0.66500E-03   -0.23945E-04 60400   0.178E-01    0.325E-01
DAV:  49    -0.114842402794E+02   -0.11490E-02   -0.34673E-04 62176   0.279E-01    0.325E-01
DAV:  50    -0.114845028857E+02   -0.26261E-03   -0.78930E-05 65024   0.841E-02    0.325E-01
DAV:  51    -0.114843412172E+02    0.16167E-03   -0.17525E-05 52360   0.589E-02    0.330E-01
DAV:  52    -0.114824148529E+02    0.19264E-02   -0.10323E-03 70576   0.449E-01    0.322E-01
DAV:  53    -0.114822787491E+02    0.13610E-03   -0.20815E-04 63712   0.126E-01    0.312E-01
DAV:  54    -0.114814996305E+02    0.77912E-03   -0.27048E-04 71720   0.223E-01    0.304E-01
DAV:  55    -0.114809501338E+02    0.54950E-03   -0.17268E-04 65632   0.140E-01    0.301E-01
DAV:  56    -0.114788631843E+02    0.20869E-02   -0.11301E-03 72024   0.420E-01    0.295E-01
DAV:  57    -0.114793377859E+02   -0.47460E-03   -0.14295E-04 43680   0.119E-01    0.294E-01
DAV:  58    -0.114790368827E+02    0.30090E-03   -0.30334E-05 54584   0.796E-02    0.293E-01
DAV:  59    -0.114784311721E+02    0.60571E-03   -0.12575E-04 70024   0.135E-01    0.288E-01
DAV:  60    -0.114786046413E+02   -0.17347E-03   -0.20253E-05 54208   0.595E-02    0.291E-01
DAV:  61    -0.114768142469E+02    0.17904E-02   -0.70357E-04 70704   0.342E-01    0.290E-01
DAV:  62    -0.114772440264E+02   -0.42978E-03   -0.77080E-05 51120   0.104E-01    0.294E-01
DAV:  63    -0.114750916773E+02    0.21523E-02   -0.89985E-04 69632   0.381E-01    0.301E-01
DAV:  64    -0.114727100883E+02    0.23816E-02   -0.16869E-03 67528   0.431E-01    0.298E-01
DAV:  65    -0.114724922689E+02    0.21782E-03   -0.26452E-04 54728   0.130E-01    0.296E-01
DAV:  66    -0.114700128291E+02    0.24794E-02   -0.14551E-03 71328   0.408E-01    0.314E-01
DAV:  67    -0.114698347636E+02    0.17807E-03   -0.22506E-04 56696   0.122E-01    0.312E-01
DAV:  68    -0.114699571168E+02   -0.12235E-03   -0.16460E-05 43792   0.428E-02    0.312E-01
DAV:  69    -0.114692793471E+02    0.67777E-03   -0.11033E-04 71840   0.125E-01    0.307E-01
DAV:  70    -0.114681086735E+02    0.11707E-02   -0.51932E-04 70248   0.226E-01    0.307E-01
DAV:  71    -0.114718626897E+02   -0.37540E-02   -0.44399E-03 70752   0.726E-01    0.328E-01
DAV:  72    -0.114718051945E+02    0.57495E-04   -0.20229E-04 43688   0.107E-01    0.327E-01
DAV:  73    -0.114717820802E+02    0.23114E-04   -0.27372E-06 47848   0.175E-02    0.327E-01
DAV:  74    -0.114717527814E+02    0.29299E-04   -0.26386E-07 37432   0.687E-03    0.327E-01
DAV:  75    -0.114722665004E+02   -0.51372E-03   -0.57427E-05 71144   0.902E-02    0.328E-01
DAV:  76    -0.114770764888E+02   -0.48100E-02   -0.63893E-03 70968   0.936E-01    0.329E-01
DAV:  77    -0.114768242983E+02    0.25219E-03   -0.56179E-04 43520   0.212E-01    0.322E-01
DAV:  78    -0.114763306386E+02    0.49366E-03   -0.48724E-05 63096   0.770E-02    0.323E-01
DAV:  79    -0.114763928547E+02   -0.62216E-04   -0.11175E-05 49064   0.431E-02    0.322E-01
DAV:  80    -0.114762349894E+02    0.15787E-03   -0.64235E-06 60232   0.308E-02    0.322E-01
DAV:  81    -0.114566214022E+02    0.19614E-01   -0.82616E-02 71544   0.309E+00    0.277E-01
DAV:  82    -0.114621214487E+02   -0.55000E-02   -0.66552E-03 46024   0.676E-01    0.108E-01
DAV:  83    -0.114620632937E+02    0.58155E-04   -0.45642E-04 56144   0.202E-01    0.847E-02
DAV:  84    -0.114618739834E+02    0.18931E-03   -0.18360E-04 52928   0.118E-01    0.856E-02
DAV:  85    -0.114611629754E+02    0.71101E-03   -0.96829E-04 72240   0.318E-01    0.823E-02
DAV:  86    -0.114584876154E+02    0.26754E-02   -0.18748E-02 70776   0.130E+00    0.141E-01
DAV:  87    -0.114579980773E+02    0.48954E-03   -0.50100E-03 63000   0.574E-01    0.146E-01
DAV:  88    -0.114585084290E+02   -0.51035E-03   -0.30073E-04 43512   0.184E-01    0.135E-01
DAV:  89    -0.114585411519E+02   -0.32723E-04   -0.53050E-06 48416   0.253E-02    0.134E-01
DAV:  90    -0.114586651017E+02   -0.12395E-03   -0.22950E-05 69480   0.481E-02    0.132E-01
DAV:  91    -0.114584889605E+02    0.17614E-03   -0.55789E-05 69136   0.895E-02    0.143E-01
DAV:  92    -0.114587507302E+02   -0.26177E-03   -0.11208E-04 68664   0.103E-01    0.142E-01
DAV:  93    -0.114592630605E+02   -0.51233E-03   -0.66381E-04 69720   0.254E-01    0.124E-01
DAV:  94    -0.114595822287E+02   -0.31917E-03   -0.47920E-04 65808   0.194E-01    0.115E-01
DAV:  95    -0.114595491890E+02    0.33040E-04   -0.28253E-05 43472   0.523E-02    0.114E-01
DAV:  96    -0.114602345896E+02   -0.68540E-03   -0.20580E-03 71832   0.479E-01    0.976E-02
DAV:  97    -0.114612396112E+02   -0.10050E-02   -0.10727E-02 70336   0.103E+00    0.114E-01
DAV:  98    -0.114618347848E+02   -0.59517E-03   -0.11194E-03 48296   0.251E-01    0.980E-02
DAV:  99    -0.114625683599E+02   -0.73358E-03   -0.86157E-04 71264   0.287E-01    0.107E-01
DAV: 100    -0.114635281904E+02   -0.95983E-03   -0.12733E-03 68312   0.354E-01    0.124E-01
DAV: 101    -0.114643336087E+02   -0.80542E-03   -0.68658E-04 66784   0.244E-01    0.137E-01
DAV: 102    -0.114628909760E+02    0.14426E-02   -0.14843E-03 63120   0.463E-01    0.110E-01
DAV: 103    -0.114617098399E+02    0.11811E-02   -0.23696E-03 68080   0.488E-01    0.887E-02
DAV: 104    -0.114613335126E+02    0.37633E-03   -0.88668E-04 65384   0.259E-01    0.769E-02
DAV: 105    -0.114604269868E+02    0.90653E-03   -0.32656E-03 72704   0.538E-01    0.778E-02
DAV: 106    -0.114595418354E+02    0.88515E-03   -0.48702E-03 67648   0.620E-01    0.110E-01
DAV: 107    -0.114598668898E+02   -0.32505E-03   -0.39701E-04 43472   0.173E-01    0.975E-02
DAV: 108    -0.114602942618E+02   -0.42737E-03   -0.64757E-04 69560   0.283E-01    0.865E-02
DAV: 109    -0.114603054324E+02   -0.11171E-04   -0.43919E-05 47968   0.627E-02    0.877E-02
DAV: 110    -0.114592323331E+02    0.10731E-02   -0.35176E-03 70912   0.597E-01    0.129E-01
DAV: 111    -0.114601995395E+02   -0.96721E-03   -0.21675E-03 68400   0.520E-01    0.918E-02
DAV: 112    -0.114605311113E+02   -0.33157E-03   -0.75636E-04 70680   0.275E-01    0.824E-02
DAV: 113    -0.114606006214E+02   -0.69510E-04   -0.97543E-05 57928   0.759E-02    0.790E-02
DAV: 114    -0.114603957639E+02    0.20486E-03   -0.20434E-04 66000   0.159E-01    0.832E-02
DAV: 115    -0.114604054241E+02   -0.96602E-05   -0.12839E-05 44520   0.252E-02    0.827E-02
DAV: 116    -0.114585660504E+02    0.18394E-02   -0.75701E-03 71832   0.881E-01    0.156E-01
DAV: 117    -0.114585685733E+02   -0.25229E-05   -0.86740E-04 58272   0.217E-01    0.156E-01
DAV: 118    -0.114586624812E+02   -0.93908E-04   -0.36209E-05 43536   0.587E-02    0.154E-01
DAV: 119    -0.114585924462E+02    0.70035E-04   -0.89349E-06 58856   0.326E-02    0.158E-01
DAV: 120    -0.114586110601E+02   -0.18614E-04   -0.89659E-07 39752   0.999E-03
   1 F= -.11458611E+02 E0= -.11458611E+02  d E =0.000000E+00  mag=     0.0000
