=========================================
SLURM_JOB_ID = 33321961
SLURM_JOB_NODELIST = lnode56
SLURM_GPUS = 
SLURM_CPUS_ON_NODE = 8
SLURM_JOB_PARTITION = lenovo
SLURM_TASK_PID = 2949435
CUDA_VISIBLE_DEVICES = 
==========================================
 running on    8 total cores
 distrk:  each k-point on    8 cores,    1 groups
 distr:  one band on    4 cores,    2 groups
 using from now: INCAR     
 vasp.5.4.4.18Apr17-6-g9f103f2a35 (build Apr 28 2018 00:24:27) complex          
  
 POSCAR found type information on POSCAR  Eu O 
 POSCAR found :  2 types and       4 ions
 scaLAPACK will be used

 ----------------------------------------------------------------------------- 
|                                                                             |
|  ADVICE TO THIS USER RUNNING 'VASP/VAMP'   (HEAR YOUR MASTER'S VOICE ...):  |
|                                                                             |
|      You have a (more or less) 'small supercell' and for smaller cells      |
|      it is recommended  to use the reciprocal-space projection scheme!      |
|      The real space optimization is not  efficient for small cells and it   |
|      is also less accurate ...                                              |
|      Therefore set LREAL=.FALSE. in the  INCAR file                         |
|                                                                             |
 ----------------------------------------------------------------------------- 

 LDA part: xc-table for Pade appr. of Perdew
 POSCAR, INCAR and KPOINTS ok, starting setup
 FFT: planning ...
 WAVECAR not read
 WARNING: random wavefunctions but no delay for mixing, default for NELMDL
 entering main loop
       N       E                     dE             d eps       ncg     rms          rms(c)
DAV:   1     0.442189274165E+03    0.44219E+03   -0.18723E+04 67268   0.362E+03
DAV:   2     0.550246056930E+02   -0.38716E+03   -0.36213E+03 76564   0.421E+02
DAV:   3    -0.367092477489E+02   -0.91734E+02   -0.89832E+02 96236   0.267E+02
DAV:   4    -0.442905165078E+02   -0.75813E+01   -0.72098E+01 98656   0.680E+01
DAV:   5    -0.451696327753E+02   -0.87912E+00   -0.81314E+00104136   0.192E+01    0.275E+01
DAV:   6    -0.934499226652E+02   -0.48280E+02   -0.74489E+02 93352   0.240E+02    0.111E+02
DAV:   7    -0.280058562772E+02    0.65444E+02   -0.47425E+02 89384   0.121E+02    0.274E+01
DAV:   8    -0.408114147563E+02   -0.12806E+02   -0.11238E+02 90376   0.624E+01    0.209E+01
DAV:   9    -0.415357147517E+02   -0.72430E+00   -0.10648E+01 90148   0.232E+01    0.135E+01
DAV:  10    -0.428628712716E+02   -0.13272E+01   -0.68931E+00 95600   0.234E+01    0.198E+01
DAV:  11    -0.413297999848E+02    0.15331E+01   -0.64439E+00 98648   0.228E+01    0.840E+00
DAV:  12    -0.415486063065E+02   -0.21881E+00   -0.40904E-01108196   0.679E+00    0.620E+00
DAV:  13    -0.416490528926E+02   -0.10045E+00   -0.15619E-01110012   0.344E+00    0.276E+00
DAV:  14    -0.416237016537E+02    0.25351E-01   -0.14181E-01 96724   0.350E+00    0.286E+00
DAV:  15    -0.416165183342E+02    0.71833E-02   -0.39055E-02103404   0.205E+00    0.239E+00
DAV:  16    -0.416147210130E+02    0.17973E-02   -0.35529E-02 93140   0.147E+00    0.194E+00
DAV:  17    -0.416193424494E+02   -0.46214E-02   -0.17451E-02 93632   0.114E+00    0.771E-01
DAV:  18    -0.416204945206E+02   -0.11521E-02   -0.86314E-03109004   0.802E-01    0.328E-01
DAV:  19    -0.416206461892E+02   -0.15167E-03   -0.13270E-03102568   0.394E-01    0.999E-02
DAV:  20    -0.416205681463E+02    0.78043E-04   -0.41571E-04 98136   0.199E-01    0.702E-02
DAV:  21    -0.416205695586E+02   -0.14123E-05   -0.19300E-04104280   0.121E-01    0.403E-02
DAV:  22    -0.416205767227E+02   -0.71641E-05   -0.27726E-05 87920   0.635E-02    0.307E-02
DAV:  23    -0.416205765559E+02    0.16679E-06   -0.81729E-06 44440   0.395E-02
   1 F= -.41620577E+02 E0= -.41620577E+02  d E =0.000000E+00  mag=    -0.0003
