 vasp.5.4.4.18Apr17-6-g9f103f2a35 (build Apr 28 2018 00:24:27) complex          
  
 executed on             LinuxIFC date 2021.03.31  13:46:06
 running on    8 total cores
 distrk:  each k-point on    8 cores,    1 groups
 distr:  one band on NCORES_PER_BAND=   4 cores,    2 groups


--------------------------------------------------------------------------------------------------------


 INCAR:
 POTCAR:    PAW_PBE Eu 23Dec2003                  
 POTCAR:    PAW_PBE O 08Apr2002                   
 POTCAR:    PAW_PBE Eu 23Dec2003                  
   VRHFIN =Eu : [core=Kr4d]                                                     
   LEXCH  = PE                                                                  
   EATOM  =  2619.8085 eV,  192.5505 Ry                                         
                                                                                
   TITEL  = PAW_PBE Eu 23Dec2003                                                
   LULTRA =        F    use ultrasoft PP ?                                      
   IUNSCR =        1    unscreen: 0-lin 1-nonlin 2-no                           
   RPACOR =    2.300    partial core radius                                     
   POMASS =  151.965; ZVAL   =   17.000    mass and valenz                      
   RCORE  =    2.800    outmost cutoff radius                                   
   RWIGS  =    2.800; RWIGS  =    1.482    wigner-seitz radius (au A)           
   ENMAX  =  249.668; ENMIN  =  187.251 eV                                      
   RCLOC  =    2.308    cutoff for local pot                                    
   LCOR   =        T    correct aug charges                                     
   LPAW   =        T    paw PP                                                  
   EAUG   =  549.628                                                            
   DEXC   =    0.000                                                            
   RMAX   =    2.870    core radius for proj-oper                               
   RAUG   =    1.300    factor for augmentation sphere                          
   RDEP   =    2.887    radius for radial grids                                 
   RDEPT  =    2.221    core radius for aug-charge                              
                                                                                
   Atomic configuration                                                         
   14 entries                                                                   
     n  l   j            E        occ.                                          
     1  0  0.50    -48354.7667   2.0000                                         
     2  0  0.50     -7939.6472   2.0000                                         
     2  1  1.50     -7072.6637   6.0000                                         
     3  0  0.50     -1747.1875   2.0000                                         
     3  1  1.50     -1477.5221   6.0000                                         
     3  2  2.50     -1117.4686  10.0000                                         
     4  0  0.50      -346.8682   2.0000                                         
     4  1  1.50      -258.1962   6.0000                                         
     4  2  2.50      -134.7724  10.0000                                         
     5  0  0.50       -44.6510   2.0000                                         
     6  0  0.50        -3.6227   2.0000                                         
     5  1  1.50       -23.7639   6.0000                                         
     5  2  2.50        -1.3130   0.0000                                         
     4  3  2.50        -2.7310   7.0000                                         
   Description                                                                  
     l       E           TYP  RCUT    TYP  RCUT                                 
     0    -44.6510453     23  2.400                                             
     0     -3.6226685     23  2.400                                             
     1    -23.7638687     23  2.400                                             
     1     27.2116520     23  2.400                                             
     2     -1.3129622     23  2.500                                             
     2     13.6058260     23  2.500                                             
     3     -2.7309948     23  2.800                                             
     3     -3.4014565     23  2.800                                             
  local pseudopotential read in
  partial core-charges read in
  partial kinetic energy density read in
  atomic valenz-charges read in
  non local Contribution for L=           0  read in
    real space projection operators read in
  non local Contribution for L=           0  read in
    real space projection operators read in
  non local Contribution for L=           1  read in
    real space projection operators read in
  non local Contribution for L=           1  read in
    real space projection operators read in
  non local Contribution for L=           2  read in
    real space projection operators read in
  non local Contribution for L=           2  read in
    real space projection operators read in
  non local Contribution for L=           3  read in
    real space projection operators read in
  non local Contribution for L=           3  read in
    real space projection operators read in
    PAW grid and wavefunctions read in
 
   number of l-projection  operators is LMAX  =           8
   number of lm-projection operators is LMMAX =          32
 
 POTCAR:    PAW_PBE O 08Apr2002                   
   VRHFIN =O: s2p4                                                              
   LEXCH  = PE                                                                  
   EATOM  =   432.3788 eV,   31.7789 Ry                                         
                                                                                
   TITEL  = PAW_PBE O 08Apr2002                                                 
   LULTRA =        F    use ultrasoft PP ?                                      
   IUNSCR =        1    unscreen: 0-lin 1-nonlin 2-no                           
   RPACOR =    1.200    partial core radius                                     
   POMASS =   16.000; ZVAL   =    6.000    mass and valenz                      
   RCORE  =    1.520    outmost cutoff radius                                   
   RWIGS  =    1.550; RWIGS  =    0.820    wigner-seitz radius (au A)           
   ENMAX  =  400.000; ENMIN  =  300.000 eV                                      
   ICORE  =        2    local potential                                         
   LCOR   =        T    correct aug charges                                     
   LPAW   =        T    paw PP                                                  
   EAUG   =  605.392                                                            
   DEXC   =    0.000                                                            
   RMAX   =    1.553    core radius for proj-oper                               
   RAUG   =    1.300    factor for augmentation sphere                          
   RDEP   =    1.550    radius for radial grids                                 
   RDEPT  =    1.329    core radius for aug-charge                              
                                                                                
   Atomic configuration                                                         
    4 entries                                                                   
     n  l   j            E        occ.                                          
     1  0  0.50      -514.6923   2.0000                                         
     2  0  0.50       -23.9615   2.0000                                         
     2  1  0.50        -9.0305   4.0000                                         
     3  2  1.50        -9.5241   0.0000                                         
   Description                                                                  
     l       E           TYP  RCUT    TYP  RCUT                                 
     0    -23.9615318     23  1.200                                             
     0     -9.5240782     23  1.200                                             
     1     -9.0304911     23  1.520                                             
     1      8.1634956     23  1.520                                             
     2     -9.5240782      7  1.500                                             
  local pseudopotential read in
  partial core-charges read in
  partial kinetic energy density read in
  kinetic energy density of atom read in
  atomic valenz-charges read in
  non local Contribution for L=           0  read in
    real space projection operators read in
  non local Contribution for L=           0  read in
    real space projection operators read in
  non local Contribution for L=           1  read in
    real space projection operators read in
  non local Contribution for L=           1  read in
    real space projection operators read in
    PAW grid and wavefunctions read in
 
   number of l-projection  operators is LMAX  =           4
   number of lm-projection operators is LMMAX =           8
 

 ----------------------------------------------------------------------------- 
|                                                                             |
|  ADVICE TO THIS USER RUNNING 'VASP/VAMP'   (HEAR YOUR MASTER'S VOICE ...):  |
|                                                                             |
|      You have a (more or less) 'small supercell' and for smaller cells      |
|      it is recommended  to use the reciprocal-space projection scheme!      |
|      The real space optimization is not  efficient for small cells and it   |
|      is also less accurate ...                                              |
|      Therefore set LREAL=.FALSE. in the  INCAR file                         |
|                                                                             |
 ----------------------------------------------------------------------------- 

 Optimization of the real space projectors (new method)

 maximal supplied QI-value         = 13.42
 optimisation between [QCUT,QGAM] = [ 11.67, 23.35] = [ 38.16,152.62] Ry 
 Optimized for a Real-space Cutoff    1.63 Angstroem

   l    n(q)    QCUT    max X(q) W(low)/X(q) W(high)/X(q)  e(spline) 
   0     11    11.673    10.400    0.14E-04    0.18E-05    0.24E-07
   0     11    11.673    10.768    0.21E-04    0.32E-05    0.49E-07
   1     11    11.673     4.094    0.40E-05    0.13E-04    0.93E-07
   1     11    11.673     4.009    0.11E-04    0.46E-04    0.33E-06
   2     10    11.673    29.030    0.79E-04    0.60E-04    0.70E-06
   2     10    11.673    19.941    0.80E-04    0.60E-04    0.71E-06
   3     10    11.673    88.889    0.23E-03    0.29E-03    0.30E-06
   3     10    11.673    76.102    0.23E-03    0.30E-03    0.30E-06
 Optimization of the real space projectors (new method)

 maximal supplied QI-value         = 24.76
 optimisation between [QCUT,QGAM] = [ 11.64, 23.27] = [ 37.91,151.63] Ry 
 Optimized for a Real-space Cutoff    1.14 Angstroem

   l    n(q)    QCUT    max X(q) W(low)/X(q) W(high)/X(q)  e(spline) 
   0      8    11.635    20.381    0.10E-03    0.33E-03    0.24E-06
   0      8    11.635    15.268    0.11E-03    0.35E-03    0.26E-06
   1      7    11.635     5.964    0.24E-03    0.31E-03    0.30E-06
   1      7    11.635     5.382    0.22E-03    0.25E-03    0.26E-06
  PAW_PBE Eu 23Dec2003                  :
 energy of atom  1       EATOM=-2619.8085
 kinetic energy error for atom=    0.0015 (will be added to EATOM!!)
  PAW_PBE O 08Apr2002                   :
 energy of atom  2       EATOM= -432.3788
 kinetic energy error for atom=    0.0208 (will be added to EATOM!!)
 
 
 POSCAR: Eu2 O2                                  
  positions in direct lattice
  velocities in cartesian coordinates
 exchange correlation table for  LEXCH =        8
   RHO(1)=    0.500       N(1)  =     2000
   RHO(2)=  100.500       N(2)  =     4000
 


--------------------------------------------------------------------------------------------------------


 ion  position               nearest neighbor table
   1  0.500  0.500  0.000-   3 2.54   4 2.54   4 2.54   3 2.54   3 2.54   4 2.54
   2  0.000  0.000  0.000-   3 2.54   4 2.54   3 2.54   4 2.54   4 2.54   3 2.54
   3  0.750  0.750  0.500-   2 2.54   2 2.54   1 2.54   1 2.54   2 2.54   1 2.54
   4  0.250  0.250  0.500-   2 2.54   2 2.54   1 2.54   1 2.54   2 2.54   1 2.54
 
  LATTYP: Found a triclinic cell.
 ALAT       =     3.5844271944
 B/A-ratio  =     0.9999943041
 C/A-ratio  =     1.7426932975
 COS(alpha) =     0.0000054479
 COS(beta)  =     0.2870328320
 COS(gamma) =     0.4999861886
  
  Lattice vectors:
  
 A1 = (  -1.7922743750,  -3.1041699073,   0.0002513898)
 A2 = (   1.7921921090,  -3.1041938397,   0.0000155992)
 A3 = (  -1.7925325511,  -1.0349201445,   5.8936614077)


Analysis of symmetry for initial positions (statically):
=====================================================================
 Subroutine PRICEL returns:
 Original cell was already a primitive cell.
 

 Routine SETGRP: Setting up the symmetry group for a 
 triclinic supercell.


 Subroutine GETGRP returns: Found  2 space group operations
 (whereof  2 operations were pure point group operations)
 out of a pool of  2 trial point group operations.


The static configuration has the point symmetry S_2 .


Analysis of symmetry for dynamics (positions and initial velocities):
=====================================================================
 Subroutine PRICEL returns:
 Original cell was already a primitive cell.
 

 Routine SETGRP: Setting up the symmetry group for a 
 triclinic supercell.


 Subroutine GETGRP returns: Found  2 space group operations
 (whereof  2 operations were pure point group operations)
 out of a pool of  2 trial point group operations.


The dynamic configuration has the point symmetry S_2 .


Analysis of structural, dynamic, and magnetic symmetry:
=====================================================================
 Subroutine PRICEL returns:
 Original cell was already a primitive cell.
 

 Routine SETGRP: Setting up the symmetry group for a 
 triclinic supercell.


 Subroutine GETGRP returns: Found  2 space group operations
 (whereof  2 operations were pure point group operations)
 out of a pool of  2 trial point group operations.


The magnetic configuration has the point symmetry S_2 .


 Subroutine INISYM returns: Found  2 space group operations
 (whereof  2 operations are pure point group operations),
 and found     1 'primitive' translations

 
 
 KPOINTS: pymatgen v2019.10.16 with grid density =

Automatic generation of k-mesh.
Space group operators:
 irot       det(A)        alpha          n_x          n_y          n_z        tau_x        tau_y        tau_z
    1     1.000000     0.000000     1.000000     0.000000     0.000000     0.000000     0.000000     0.000000
    2    -1.000000     0.000000     1.000000     0.000000     0.000000     0.000000     0.000000     0.000000
 
 Subroutine IBZKPT returns following result:
 ===========================================
 
 Found    506 irreducible k-points:
 
 Following reciprocal coordinates:
            Coordinates               Weight
  0.000000  0.000000  0.000000      1.000000
  0.083333 -0.000000  0.000000      2.000000
  0.166667  0.000000  0.000000      2.000000
  0.250000 -0.000000  0.000000      2.000000
  0.333333 -0.000000  0.000000      2.000000
  0.416667  0.000000  0.000000      2.000000
  0.500000 -0.000000  0.000000      1.000000
  0.000000  0.142857 -0.000000      2.000000
  0.083333  0.142857  0.000000      2.000000
  0.166667  0.142857 -0.000000      2.000000
  0.250000  0.142857 -0.000000      2.000000
  0.333333  0.142857 -0.000000      2.000000
  0.416667  0.142857 -0.000000      2.000000
  0.500000  0.142857  0.000000      2.000000
 -0.416667  0.142857 -0.000000      2.000000
 -0.333333  0.142857 -0.000000      2.000000
 -0.250000  0.142857 -0.000000      2.000000
 -0.166667  0.142857  0.000000      2.000000
 -0.083333  0.142857  0.000000      2.000000
 -0.000000  0.285714 -0.000000      2.000000
  0.083333  0.285714 -0.000000      2.000000
  0.166667  0.285714 -0.000000      2.000000
  0.250000  0.285714  0.000000      2.000000
  0.333333  0.285714 -0.000000      2.000000
  0.416667  0.285714  0.000000      2.000000
  0.500000  0.285714 -0.000000      2.000000
 -0.416667  0.285714 -0.000000      2.000000
 -0.333333  0.285714 -0.000000      2.000000
 -0.250000  0.285714  0.000000      2.000000
 -0.166667  0.285714  0.000000      2.000000
 -0.083333  0.285714 -0.000000      2.000000
  0.000000  0.428571  0.000000      2.000000
  0.083333  0.428571  0.000000      2.000000
  0.166667  0.428571  0.000000      2.000000
  0.250000  0.428571  0.000000      2.000000
  0.333333  0.428571 -0.000000      2.000000
  0.416667  0.428571 -0.000000      2.000000
  0.500000  0.428571 -0.000000      2.000000
 -0.416667  0.428571 -0.000000      2.000000
 -0.333333  0.428571 -0.000000      2.000000
 -0.250000  0.428571  0.000000      2.000000
 -0.166667  0.428571  0.000000      2.000000
 -0.083333  0.428571 -0.000000      2.000000
 -0.000000 -0.000000  0.083333      2.000000
  0.083333 -0.000000  0.083333      2.000000
  0.166667 -0.000000  0.083333      2.000000
  0.250000 -0.000000  0.083333      2.000000
  0.333333 -0.000000  0.083333      2.000000
  0.416667 -0.000000  0.083333      2.000000
  0.500000 -0.000000  0.083333      2.000000
 -0.416667 -0.000000  0.083333      2.000000
 -0.333333 -0.000000  0.083333      2.000000
 -0.250000 -0.000000  0.083333      2.000000
 -0.166667 -0.000000  0.083333      2.000000
 -0.083333  0.000000  0.083333      2.000000
 -0.000000  0.142857  0.083333      2.000000
  0.083333  0.142857  0.083333      2.000000
  0.166667  0.142857  0.083333      2.000000
  0.250000  0.142857  0.083333      2.000000
  0.333333  0.142857  0.083333      2.000000
  0.416667  0.142857  0.083333      2.000000
  0.500000  0.142857  0.083333      2.000000
 -0.416667  0.142857  0.083333      2.000000
 -0.333333  0.142857  0.083333      2.000000
 -0.250000  0.142857  0.083333      2.000000
 -0.166667  0.142857  0.083333      2.000000
 -0.083333  0.142857  0.083333      2.000000
 -0.000000  0.285714  0.083333      2.000000
  0.083333  0.285714  0.083333      2.000000
  0.166667  0.285714  0.083333      2.000000
  0.250000  0.285714  0.083333      2.000000
  0.333333  0.285714  0.083333      2.000000
  0.416667  0.285714  0.083333      2.000000
  0.500000  0.285714  0.083333      2.000000
 -0.416667  0.285714  0.083333      2.000000
 -0.333333  0.285714  0.083333      2.000000
 -0.250000  0.285714  0.083333      2.000000
 -0.166667  0.285714  0.083333      2.000000
 -0.083333  0.285714  0.083333      2.000000
 -0.000000  0.428571  0.083333      2.000000
  0.083333  0.428571  0.083333      2.000000
  0.166667  0.428571  0.083333      2.000000
  0.250000  0.428571  0.083333      2.000000
  0.333333  0.428571  0.083333      2.000000
  0.416667  0.428571  0.083333      2.000000
  0.500000  0.428571  0.083333      2.000000
 -0.416667  0.428571  0.083333      2.000000
 -0.333333  0.428571  0.083333      2.000000
 -0.250000  0.428571  0.083333      2.000000
 -0.166667  0.428571  0.083333      2.000000
 -0.083333  0.428571  0.083333      2.000000
  0.000000 -0.428571  0.083333      2.000000
  0.083333 -0.428571  0.083333      2.000000
  0.166667 -0.428571  0.083333      2.000000
  0.250000 -0.428571  0.083333      2.000000
  0.333333 -0.428571  0.083333      2.000000
  0.416667 -0.428571  0.083333      2.000000
  0.500000 -0.428571  0.083333      2.000000
 -0.416667 -0.428571  0.083333      2.000000
 -0.333333 -0.428571  0.083333      2.000000
 -0.250000 -0.428571  0.083333      2.000000
 -0.166667 -0.428571  0.083333      2.000000
 -0.083333 -0.428571  0.083333      2.000000
 -0.000000 -0.285714  0.083333      2.000000
  0.083333 -0.285714  0.083333      2.000000
  0.166667 -0.285714  0.083333      2.000000
  0.250000 -0.285714  0.083333      2.000000
  0.333333 -0.285714  0.083333      2.000000
  0.416667 -0.285714  0.083333      2.000000
  0.500000 -0.285714  0.083333      2.000000
 -0.416667 -0.285714  0.083333      2.000000
 -0.333333 -0.285714  0.083333      2.000000
 -0.250000 -0.285714  0.083333      2.000000
 -0.166667 -0.285714  0.083333      2.000000
 -0.083333 -0.285714  0.083333      2.000000
  0.000000 -0.142857  0.083333      2.000000
  0.083333 -0.142857  0.083333      2.000000
  0.166667 -0.142857  0.083333      2.000000
  0.250000 -0.142857  0.083333      2.000000
  0.333333 -0.142857  0.083333      2.000000
  0.416667 -0.142857  0.083333      2.000000
  0.500000 -0.142857  0.083333      2.000000
 -0.416667 -0.142857  0.083333      2.000000
 -0.333333 -0.142857  0.083333      2.000000
 -0.250000 -0.142857  0.083333      2.000000
 -0.166667 -0.142857  0.083333      2.000000
 -0.083333 -0.142857  0.083333      2.000000
  0.000000  0.000000  0.166667      2.000000
  0.083333 -0.000000  0.166667      2.000000
  0.166667 -0.000000  0.166667      2.000000
  0.250000 -0.000000  0.166667      2.000000
  0.333333 -0.000000  0.166667      2.000000
  0.416667  0.000000  0.166667      2.000000
  0.500000 -0.000000  0.166667      2.000000
 -0.416667  0.000000  0.166667      2.000000
 -0.333333 -0.000000  0.166667      2.000000
 -0.250000 -0.000000  0.166667      2.000000
 -0.166667  0.000000  0.166667      2.000000
 -0.083333  0.000000  0.166667      2.000000
  0.000000  0.142857  0.166667      2.000000
  0.083333  0.142857  0.166667      2.000000
  0.166667  0.142857  0.166667      2.000000
  0.250000  0.142857  0.166667      2.000000
  0.333333  0.142857  0.166667      2.000000
  0.416667  0.142857  0.166667      2.000000
  0.500000  0.142857  0.166667      2.000000
 -0.416667  0.142857  0.166667      2.000000
 -0.333333  0.142857  0.166667      2.000000
 -0.250000  0.142857  0.166667      2.000000
 -0.166667  0.142857  0.166667      2.000000
 -0.083333  0.142857  0.166667      2.000000
  0.000000  0.285714  0.166667      2.000000
  0.083333  0.285714  0.166667      2.000000
  0.166667  0.285714  0.166667      2.000000
  0.250000  0.285714  0.166667      2.000000
  0.333333  0.285714  0.166667      2.000000
  0.416667  0.285714  0.166667      2.000000
  0.500000  0.285714  0.166667      2.000000
 -0.416667  0.285714  0.166667      2.000000
 -0.333333  0.285714  0.166667      2.000000
 -0.250000  0.285714  0.166667      2.000000
 -0.166667  0.285714  0.166667      2.000000
 -0.083333  0.285714  0.166667      2.000000
 -0.000000  0.428571  0.166667      2.000000
  0.083333  0.428571  0.166667      2.000000
  0.166667  0.428571  0.166667      2.000000
  0.250000  0.428571  0.166667      2.000000
  0.333333  0.428571  0.166667      2.000000
  0.416667  0.428571  0.166667      2.000000
  0.500000  0.428571  0.166667      2.000000
 -0.416667  0.428571  0.166667      2.000000
 -0.333333  0.428571  0.166667      2.000000
 -0.250000  0.428571  0.166667      2.000000
 -0.166667  0.428571  0.166667      2.000000
 -0.083333  0.428571  0.166667      2.000000
  0.000000 -0.428571  0.166667      2.000000
  0.083333 -0.428571  0.166667      2.000000
  0.166667 -0.428571  0.166667      2.000000
  0.250000 -0.428571  0.166667      2.000000
  0.333333 -0.428571  0.166667      2.000000
  0.416667 -0.428571  0.166667      2.000000
  0.500000 -0.428571  0.166667      2.000000
 -0.416667 -0.428571  0.166667      2.000000
 -0.333333 -0.428571  0.166667      2.000000
 -0.250000 -0.428571  0.166667      2.000000
 -0.166667 -0.428571  0.166667      2.000000
 -0.083333 -0.428571  0.166667      2.000000
  0.000000 -0.285714  0.166667      2.000000
  0.083333 -0.285714  0.166667      2.000000
  0.166667 -0.285714  0.166667      2.000000
  0.250000 -0.285714  0.166667      2.000000
  0.333333 -0.285714  0.166667      2.000000
  0.416667 -0.285714  0.166667      2.000000
  0.500000 -0.285714  0.166667      2.000000
 -0.416667 -0.285714  0.166667      2.000000
 -0.333333 -0.285714  0.166667      2.000000
 -0.250000 -0.285714  0.166667      2.000000
 -0.166667 -0.285714  0.166667      2.000000
 -0.083333 -0.285714  0.166667      2.000000
  0.000000 -0.142857  0.166667      2.000000
  0.083333 -0.142857  0.166667      2.000000
  0.166667 -0.142857  0.166667      2.000000
  0.250000 -0.142857  0.166667      2.000000
  0.333333 -0.142857  0.166667      2.000000
  0.416667 -0.142857  0.166667      2.000000
  0.500000 -0.142857  0.166667      2.000000
 -0.416667 -0.142857  0.166667      2.000000
 -0.333333 -0.142857  0.166667      2.000000
 -0.250000 -0.142857  0.166667      2.000000
 -0.166667 -0.142857  0.166667      2.000000
 -0.083333 -0.142857  0.166667      2.000000
  0.000000 -0.000000  0.250000      2.000000
  0.083333 -0.000000  0.250000      2.000000
  0.166667 -0.000000  0.250000      2.000000
  0.250000 -0.000000  0.250000      2.000000
  0.333333  0.000000  0.250000      2.000000
  0.416667  0.000000  0.250000      2.000000
  0.500000 -0.000000  0.250000      2.000000
 -0.416667  0.000000  0.250000      2.000000
 -0.333333 -0.000000  0.250000      2.000000
 -0.250000  0.000000  0.250000      2.000000
 -0.166667  0.000000  0.250000      2.000000
 -0.083333  0.000000  0.250000      2.000000
  0.000000  0.142857  0.250000      2.000000
  0.083333  0.142857  0.250000      2.000000
  0.166667  0.142857  0.250000      2.000000
  0.250000  0.142857  0.250000      2.000000
  0.333333  0.142857  0.250000      2.000000
  0.416667  0.142857  0.250000      2.000000
  0.500000  0.142857  0.250000      2.000000
 -0.416667  0.142857  0.250000      2.000000
 -0.333333  0.142857  0.250000      2.000000
 -0.250000  0.142857  0.250000      2.000000
 -0.166667  0.142857  0.250000      2.000000
 -0.083333  0.142857  0.250000      2.000000
 -0.000000  0.285714  0.250000      2.000000
  0.083333  0.285714  0.250000      2.000000
  0.166667  0.285714  0.250000      2.000000
  0.250000  0.285714  0.250000      2.000000
  0.333333  0.285714  0.250000      2.000000
  0.416667  0.285714  0.250000      2.000000
  0.500000  0.285714  0.250000      2.000000
 -0.416667  0.285714  0.250000      2.000000
 -0.333333  0.285714  0.250000      2.000000
 -0.250000  0.285714  0.250000      2.000000
 -0.166667  0.285714  0.250000      2.000000
 -0.083333  0.285714  0.250000      2.000000
  0.000000  0.428571  0.250000      2.000000
  0.083333  0.428571  0.250000      2.000000
  0.166667  0.428571  0.250000      2.000000
  0.250000  0.428571  0.250000      2.000000
  0.333333  0.428571  0.250000      2.000000
  0.416667  0.428571  0.250000      2.000000
  0.500000  0.428571  0.250000      2.000000
 -0.416667  0.428571  0.250000      2.000000
 -0.333333  0.428571  0.250000      2.000000
 -0.250000  0.428571  0.250000      2.000000
 -0.166667  0.428571  0.250000      2.000000
 -0.083333  0.428571  0.250000      2.000000
 -0.000000 -0.428571  0.250000      2.000000
  0.083333 -0.428571  0.250000      2.000000
  0.166667 -0.428571  0.250000      2.000000
  0.250000 -0.428571  0.250000      2.000000
  0.333333 -0.428571  0.250000      2.000000
  0.416667 -0.428571  0.250000      2.000000
  0.500000 -0.428571  0.250000      2.000000
 -0.416667 -0.428571  0.250000      2.000000
 -0.333333 -0.428571  0.250000      2.000000
 -0.250000 -0.428571  0.250000      2.000000
 -0.166667 -0.428571  0.250000      2.000000
 -0.083333 -0.428571  0.250000      2.000000
  0.000000 -0.285714  0.250000      2.000000
  0.083333 -0.285714  0.250000      2.000000
  0.166667 -0.285714  0.250000      2.000000
  0.250000 -0.285714  0.250000      2.000000
  0.333333 -0.285714  0.250000      2.000000
  0.416667 -0.285714  0.250000      2.000000
  0.500000 -0.285714  0.250000      2.000000
 -0.416667 -0.285714  0.250000      2.000000
 -0.333333 -0.285714  0.250000      2.000000
 -0.250000 -0.285714  0.250000      2.000000
 -0.166667 -0.285714  0.250000      2.000000
 -0.083333 -0.285714  0.250000      2.000000
 -0.000000 -0.142857  0.250000      2.000000
  0.083333 -0.142857  0.250000      2.000000
  0.166667 -0.142857  0.250000      2.000000
  0.250000 -0.142857  0.250000      2.000000
  0.333333 -0.142857  0.250000      2.000000
  0.416667 -0.142857  0.250000      2.000000
  0.500000 -0.142857  0.250000      2.000000
 -0.416667 -0.142857  0.250000      2.000000
 -0.333333 -0.142857  0.250000      2.000000
 -0.250000 -0.142857  0.250000      2.000000
 -0.166667 -0.142857  0.250000      2.000000
 -0.083333 -0.142857  0.250000      2.000000
 -0.000000  0.000000  0.333333      2.000000
  0.083333  0.000000  0.333333      2.000000
  0.166667 -0.000000  0.333333      2.000000
  0.250000 -0.000000  0.333333      2.000000
  0.333333  0.000000  0.333333      2.000000
  0.416667 -0.000000  0.333333      2.000000
  0.500000 -0.000000  0.333333      2.000000
 -0.416667  0.000000  0.333333      2.000000
 -0.333333  0.000000  0.333333      2.000000
 -0.250000  0.000000  0.333333      2.000000
 -0.166667 -0.000000  0.333333      2.000000
 -0.083333  0.000000  0.333333      2.000000
  0.000000  0.142857  0.333333      2.000000
  0.083333  0.142857  0.333333      2.000000
  0.166667  0.142857  0.333333      2.000000
  0.250000  0.142857  0.333333      2.000000
  0.333333  0.142857  0.333333      2.000000
  0.416667  0.142857  0.333333      2.000000
  0.500000  0.142857  0.333333      2.000000
 -0.416667  0.142857  0.333333      2.000000
 -0.333333  0.142857  0.333333      2.000000
 -0.250000  0.142857  0.333333      2.000000
 -0.166667  0.142857  0.333333      2.000000
 -0.083333  0.142857  0.333333      2.000000
 -0.000000  0.285714  0.333333      2.000000
  0.083333  0.285714  0.333333      2.000000
  0.166667  0.285714  0.333333      2.000000
  0.250000  0.285714  0.333333      2.000000
  0.333333  0.285714  0.333333      2.000000
  0.416667  0.285714  0.333333      2.000000
  0.500000  0.285714  0.333333      2.000000
 -0.416667  0.285714  0.333333      2.000000
 -0.333333  0.285714  0.333333      2.000000
 -0.250000  0.285714  0.333333      2.000000
 -0.166667  0.285714  0.333333      2.000000
 -0.083333  0.285714  0.333333      2.000000
  0.000000  0.428571  0.333333      2.000000
  0.083333  0.428571  0.333333      2.000000
  0.166667  0.428571  0.333333      2.000000
  0.250000  0.428571  0.333333      2.000000
  0.333333  0.428571  0.333333      2.000000
  0.416667  0.428571  0.333333      2.000000
  0.500000  0.428571  0.333333      2.000000
 -0.416667  0.428571  0.333333      2.000000
 -0.333333  0.428571  0.333333      2.000000
 -0.250000  0.428571  0.333333      2.000000
 -0.166667  0.428571  0.333333      2.000000
 -0.083333  0.428571  0.333333      2.000000
 -0.000000 -0.428571  0.333333      2.000000
  0.083333 -0.428571  0.333333      2.000000
  0.166667 -0.428571  0.333333      2.000000
  0.250000 -0.428571  0.333333      2.000000
  0.333333 -0.428571  0.333333      2.000000
  0.416667 -0.428571  0.333333      2.000000
  0.500000 -0.428571  0.333333      2.000000
 -0.416667 -0.428571  0.333333      2.000000
 -0.333333 -0.428571  0.333333      2.000000
 -0.250000 -0.428571  0.333333      2.000000
 -0.166667 -0.428571  0.333333      2.000000
 -0.083333 -0.428571  0.333333      2.000000
  0.000000 -0.285714  0.333333      2.000000
  0.083333 -0.285714  0.333333      2.000000
  0.166667 -0.285714  0.333333      2.000000
  0.250000 -0.285714  0.333333      2.000000
  0.333333 -0.285714  0.333333      2.000000
  0.416667 -0.285714  0.333333      2.000000
  0.500000 -0.285714  0.333333      2.000000
 -0.416667 -0.285714  0.333333      2.000000
 -0.333333 -0.285714  0.333333      2.000000
 -0.250000 -0.285714  0.333333      2.000000
 -0.166667 -0.285714  0.333333      2.000000
 -0.083333 -0.285714  0.333333      2.000000
  0.000000 -0.142857  0.333333      2.000000
  0.083333 -0.142857  0.333333      2.000000
  0.166667 -0.142857  0.333333      2.000000
  0.250000 -0.142857  0.333333      2.000000
  0.333333 -0.142857  0.333333      2.000000
  0.416667 -0.142857  0.333333      2.000000
  0.500000 -0.142857  0.333333      2.000000
 -0.416667 -0.142857  0.333333      2.000000
 -0.333333 -0.142857  0.333333      2.000000
 -0.250000 -0.142857  0.333333      2.000000
 -0.166667 -0.142857  0.333333      2.000000
 -0.083333 -0.142857  0.333333      2.000000
 -0.000000  0.000000  0.416667      2.000000
  0.083333  0.000000  0.416667      2.000000
  0.166667 -0.000000  0.416667      2.000000
  0.250000  0.000000  0.416667      2.000000
  0.333333 -0.000000  0.416667      2.000000
  0.416667 -0.000000  0.416667      2.000000
  0.500000 -0.000000  0.416667      2.000000
 -0.416667 -0.000000  0.416667      2.000000
 -0.333333 -0.000000  0.416667      2.000000
 -0.250000  0.000000  0.416667      2.000000
 -0.166667  0.000000  0.416667      2.000000
 -0.083333  0.000000  0.416667      2.000000
  0.000000  0.142857  0.416667      2.000000
  0.083333  0.142857  0.416667      2.000000
  0.166667  0.142857  0.416667      2.000000
  0.250000  0.142857  0.416667      2.000000
  0.333333  0.142857  0.416667      2.000000
  0.416667  0.142857  0.416667      2.000000
  0.500000  0.142857  0.416667      2.000000
 -0.416667  0.142857  0.416667      2.000000
 -0.333333  0.142857  0.416667      2.000000
 -0.250000  0.142857  0.416667      2.000000
 -0.166667  0.142857  0.416667      2.000000
 -0.083333  0.142857  0.416667      2.000000
 -0.000000  0.285714  0.416667      2.000000
  0.083333  0.285714  0.416667      2.000000
  0.166667  0.285714  0.416667      2.000000
  0.250000  0.285714  0.416667      2.000000
  0.333333  0.285714  0.416667      2.000000
  0.416667  0.285714  0.416667      2.000000
  0.500000  0.285714  0.416667      2.000000
 -0.416667  0.285714  0.416667      2.000000
 -0.333333  0.285714  0.416667      2.000000
 -0.250000  0.285714  0.416667      2.000000
 -0.166667  0.285714  0.416667      2.000000
 -0.083333  0.285714  0.416667      2.000000
  0.000000  0.428571  0.416667      2.000000
  0.083333  0.428571  0.416667      2.000000
  0.166667  0.428571  0.416667      2.000000
  0.250000  0.428571  0.416667      2.000000
  0.333333  0.428571  0.416667      2.000000
  0.416667  0.428571  0.416667      2.000000
  0.500000  0.428571  0.416667      2.000000
 -0.416667  0.428571  0.416667      2.000000
 -0.333333  0.428571  0.416667      2.000000
 -0.250000  0.428571  0.416667      2.000000
 -0.166667  0.428571  0.416667      2.000000
 -0.083333  0.428571  0.416667      2.000000
  0.000000 -0.428571  0.416667      2.000000
  0.083333 -0.428571  0.416667      2.000000
  0.166667 -0.428571  0.416667      2.000000
  0.250000 -0.428571  0.416667      2.000000
  0.333333 -0.428571  0.416667      2.000000
  0.416667 -0.428571  0.416667      2.000000
  0.500000 -0.428571  0.416667      2.000000
 -0.416667 -0.428571  0.416667      2.000000
 -0.333333 -0.428571  0.416667      2.000000
 -0.250000 -0.428571  0.416667      2.000000
 -0.166667 -0.428571  0.416667      2.000000
 -0.083333 -0.428571  0.416667      2.000000
  0.000000 -0.285714  0.416667      2.000000
  0.083333 -0.285714  0.416667      2.000000
  0.166667 -0.285714  0.416667      2.000000
  0.250000 -0.285714  0.416667      2.000000
  0.333333 -0.285714  0.416667      2.000000
  0.416667 -0.285714  0.416667      2.000000
  0.500000 -0.285714  0.416667      2.000000
 -0.416667 -0.285714  0.416667      2.000000
 -0.333333 -0.285714  0.416667      2.000000
 -0.250000 -0.285714  0.416667      2.000000
 -0.166667 -0.285714  0.416667      2.000000
 -0.083333 -0.285714  0.416667      2.000000
  0.000000 -0.142857  0.416667      2.000000
  0.083333 -0.142857  0.416667      2.000000
  0.166667 -0.142857  0.416667      2.000000
  0.250000 -0.142857  0.416667      2.000000
  0.333333 -0.142857  0.416667      2.000000
  0.416667 -0.142857  0.416667      2.000000
  0.500000 -0.142857  0.416667      2.000000
 -0.416667 -0.142857  0.416667      2.000000
 -0.333333 -0.142857  0.416667      2.000000
 -0.250000 -0.142857  0.416667      2.000000
 -0.166667 -0.142857  0.416667      2.000000
 -0.083333 -0.142857  0.416667      2.000000
  0.000000 -0.000000  0.500000      1.000000
  0.083333  0.000000  0.500000      2.000000
  0.166667 -0.000000  0.500000      2.000000
  0.250000  0.000000  0.500000      2.000000
  0.333333  0.000000  0.500000      2.000000
  0.416667 -0.000000  0.500000      2.000000
  0.500000 -0.000000  0.500000      1.000000
 -0.000000  0.142857  0.500000      2.000000
  0.083333  0.142857  0.500000      2.000000
  0.166667  0.142857  0.500000      2.000000
  0.250000  0.142857  0.500000      2.000000
  0.333333  0.142857  0.500000      2.000000
  0.416667  0.142857  0.500000      2.000000
  0.500000  0.142857  0.500000      2.000000
 -0.416667  0.142857  0.500000      2.000000
 -0.333333  0.142857  0.500000      2.000000
 -0.250000  0.142857  0.500000      2.000000
 -0.166667  0.142857  0.500000      2.000000
 -0.083333  0.142857  0.500000      2.000000
  0.000000  0.285714  0.500000      2.000000
  0.083333  0.285714  0.500000      2.000000
  0.166667  0.285714  0.500000      2.000000
  0.250000  0.285714  0.500000      2.000000
  0.333333  0.285714  0.500000      2.000000
  0.416667  0.285714  0.500000      2.000000
  0.500000  0.285714  0.500000      2.000000
 -0.416667  0.285714  0.500000      2.000000
 -0.333333  0.285714  0.500000      2.000000
 -0.250000  0.285714  0.500000      2.000000
 -0.166667  0.285714  0.500000      2.000000
 -0.083333  0.285714  0.500000      2.000000
 -0.000000  0.428571  0.500000      2.000000
  0.083333  0.428571  0.500000      2.000000
  0.166667  0.428571  0.500000      2.000000
  0.250000  0.428571  0.500000      2.000000
  0.333333  0.428571  0.500000      2.000000
  0.416667  0.428571  0.500000      2.000000
  0.500000  0.428571  0.500000      2.000000
 -0.416667  0.428571  0.500000      2.000000
 -0.333333  0.428571  0.500000      2.000000
 -0.250000  0.428571  0.500000      2.000000
 -0.166667  0.428571  0.500000      2.000000
 -0.083333  0.428571  0.500000      2.000000
 
 Following cartesian coordinates:
            Coordinates               Weight
  0.000000  0.000000  0.000000      1.000000
 -0.023249  0.013423 -0.004714      2.000000
 -0.046497  0.026846 -0.009428      2.000000
 -0.069746  0.040269 -0.014142      2.000000
 -0.092995  0.053691 -0.018856      2.000000
 -0.116243  0.067114 -0.023570      2.000000
 -0.139492  0.080537 -0.028284      1.000000
  0.000002  0.000001  0.024240      2.000000
 -0.023247  0.013424  0.019526      2.000000
 -0.046496  0.026847  0.014812      2.000000
 -0.069744  0.040270  0.010098      2.000000
 -0.092993  0.053692  0.005384      2.000000
 -0.116242  0.067115  0.000670      2.000000
 -0.139491  0.080538 -0.004044      2.000000
  0.116245 -0.067113  0.047810      2.000000
  0.092996 -0.053690  0.043096      2.000000
  0.069748 -0.040268  0.038382      2.000000
  0.046499 -0.026845  0.033668      2.000000
  0.023250 -0.013422  0.028954      2.000000
  0.000003  0.000002  0.048480      2.000000
 -0.023245  0.013425  0.043766      2.000000
 -0.046494  0.026848  0.039052      2.000000
 -0.069743  0.040271  0.034338      2.000000
 -0.092992  0.053694  0.029624      2.000000
 -0.116240  0.067116  0.024910      2.000000
 -0.139489  0.080539  0.020196      2.000000
  0.116247 -0.067112  0.072049      2.000000
  0.092998 -0.053689  0.067335      2.000000
  0.069749 -0.040266  0.062621      2.000000
  0.046501 -0.026844  0.057907      2.000000
  0.023252 -0.013421  0.053194      2.000000
  0.000005  0.000003  0.072719      2.000000
 -0.023244  0.013426  0.068005      2.000000
 -0.046493  0.026849  0.063291      2.000000
 -0.069741  0.040272  0.058577      2.000000
 -0.092990  0.053695  0.053864      2.000000
 -0.116239  0.067117  0.049150      2.000000
 -0.139487  0.080540  0.044436      2.000000
  0.116248 -0.067111  0.096289      2.000000
  0.093000 -0.053688  0.091575      2.000000
  0.069751 -0.040265  0.086861      2.000000
  0.046502 -0.026843  0.082147      2.000000
  0.023253 -0.013420  0.077433      2.000000
  0.023249  0.013423  0.009428      2.000000
  0.000000  0.026846  0.004714      2.000000
 -0.023248  0.040269  0.000000      2.000000
 -0.046497  0.053691 -0.004714      2.000000
 -0.069746  0.067114 -0.009428      2.000000
 -0.092994  0.080537 -0.014142      2.000000
 -0.116243  0.093960 -0.018856      2.000000
  0.139493 -0.053691  0.032998      2.000000
  0.116244 -0.040269  0.028284      2.000000
  0.092995 -0.026846  0.023570      2.000000
  0.069747 -0.013423  0.018856      2.000000
  0.046498 -0.000000  0.014142      2.000000
  0.023251  0.013424  0.033668      2.000000
  0.000002  0.026847  0.028954      2.000000
 -0.023247  0.040270  0.024240      2.000000
 -0.046495  0.053692  0.019526      2.000000
 -0.069744  0.067115  0.014812      2.000000
 -0.092993  0.080538  0.010098      2.000000
 -0.116241  0.093961  0.005384      2.000000
  0.139494 -0.053690  0.057238      2.000000
  0.116245 -0.040268  0.052524      2.000000
  0.092997 -0.026845  0.047810      2.000000
  0.069748 -0.013422  0.043096      2.000000
  0.046499  0.000001  0.038382      2.000000
  0.023252  0.013425  0.057908      2.000000
  0.000004  0.026848  0.053194      2.000000
 -0.023245  0.040271  0.048480      2.000000
 -0.046494  0.053694  0.043766      2.000000
 -0.069742  0.067116  0.039052      2.000000
 -0.092991  0.080539  0.034338      2.000000
 -0.116240  0.093962  0.029624      2.000000
  0.139496 -0.053689  0.081478      2.000000
  0.116247 -0.040266  0.076764      2.000000
  0.092998 -0.026844  0.072050      2.000000
  0.069750 -0.013421  0.067336      2.000000
  0.046501  0.000002  0.062622      2.000000
  0.023254  0.013426  0.082148      2.000000
  0.000005  0.026849  0.077434      2.000000
 -0.023243  0.040272  0.072720      2.000000
 -0.046492  0.053695  0.068006      2.000000
 -0.069741  0.067117  0.063292      2.000000
 -0.092989  0.080540  0.058578      2.000000
 -0.116238  0.093963  0.053864      2.000000
  0.139497 -0.053688  0.105717      2.000000
  0.116249 -0.040265  0.101003      2.000000
  0.093000 -0.026843  0.096289      2.000000
  0.069751 -0.013420  0.091575      2.000000
  0.046503  0.000003  0.086861      2.000000
  0.023244  0.013420 -0.063291      2.000000
 -0.000004  0.026843 -0.068005      2.000000
 -0.023253  0.040265 -0.072719      2.000000
 -0.046502  0.053688 -0.077433      2.000000
 -0.069750  0.067111 -0.082147      2.000000
 -0.092999  0.080534 -0.086861      2.000000
 -0.116248  0.093957 -0.091575      2.000000
  0.139488 -0.053695 -0.039721      2.000000
  0.116239 -0.040272 -0.044435      2.000000
  0.092990 -0.026849 -0.049149      2.000000
  0.069742 -0.013426 -0.053863      2.000000
  0.046493 -0.000003 -0.058577      2.000000
  0.023246  0.013421 -0.039051      2.000000
 -0.000003  0.026844 -0.043765      2.000000
 -0.023251  0.040266 -0.048479      2.000000
 -0.046500  0.053689 -0.053193      2.000000
 -0.069749  0.067112 -0.057907      2.000000
 -0.092997  0.080535 -0.062621      2.000000
 -0.116246  0.093958 -0.067335      2.000000
  0.139489 -0.053694 -0.015482      2.000000
  0.116241 -0.040271 -0.020196      2.000000
  0.092992 -0.026848 -0.024910      2.000000
  0.069743 -0.013425 -0.029623      2.000000
  0.046495 -0.000002 -0.034337      2.000000
  0.023248  0.013422 -0.014812      2.000000
 -0.000001  0.026845 -0.019526      2.000000
 -0.023250  0.040268 -0.024240      2.000000
 -0.046498  0.053690 -0.028953      2.000000
 -0.069747  0.067113 -0.033667      2.000000
 -0.092996  0.080536 -0.038381      2.000000
 -0.116245  0.093959 -0.043095      2.000000
  0.139491 -0.053692  0.008758      2.000000
  0.116242 -0.040270  0.004044      2.000000
  0.092994 -0.026847 -0.000670      2.000000
  0.069745 -0.013424 -0.005384      2.000000
  0.046496 -0.000001 -0.010098      2.000000
  0.046498  0.026846  0.018856      2.000000
  0.023250  0.040269  0.014142      2.000000
  0.000001  0.053691  0.009428      2.000000
 -0.023248  0.067114  0.004714      2.000000
 -0.046496  0.080537  0.000001      2.000000
 -0.069745  0.093960 -0.004713      2.000000
 -0.092994  0.107383 -0.009427      2.000000
  0.162742 -0.040269  0.042426      2.000000
  0.139493 -0.026846  0.037712      2.000000
  0.116244 -0.013423  0.032998      2.000000
  0.092996 -0.000000  0.028284      2.000000
  0.069747  0.013423  0.023570      2.000000
  0.046500  0.026847  0.043096      2.000000
  0.023251  0.040270  0.038382      2.000000
  0.000003  0.053692  0.033668      2.000000
 -0.023246  0.067115  0.028954      2.000000
 -0.046495  0.080538  0.024240      2.000000
 -0.069743  0.093961  0.019526      2.000000
 -0.092992  0.107384  0.014812      2.000000
  0.162743 -0.040268  0.066666      2.000000
  0.139495 -0.026845  0.061952      2.000000
  0.116246 -0.013422  0.057238      2.000000
  0.092997  0.000001  0.052524      2.000000
  0.069749  0.013424  0.047810      2.000000
  0.046502  0.026848  0.067336      2.000000
  0.023253  0.040271  0.062622      2.000000
  0.000004  0.053694  0.057908      2.000000
 -0.023245  0.067116  0.053194      2.000000
 -0.046493  0.080539  0.048480      2.000000
 -0.069742  0.093962  0.043766      2.000000
 -0.092991  0.107385  0.039052      2.000000
  0.162745 -0.040267  0.090906      2.000000
  0.139496 -0.026844  0.086192      2.000000
  0.116248 -0.013421  0.081478      2.000000
  0.092999  0.000002  0.076764      2.000000
  0.069750  0.013425  0.072050      2.000000
  0.046503  0.026849  0.091576      2.000000
  0.023254  0.040272  0.086862      2.000000
  0.000006  0.053695  0.082148      2.000000
 -0.023243  0.067117  0.077434      2.000000
 -0.046492  0.080540  0.072720      2.000000
 -0.069740  0.093963  0.068006      2.000000
 -0.092989  0.107386  0.063292      2.000000
  0.162747 -0.040265  0.115145      2.000000
  0.139498 -0.026843  0.110432      2.000000
  0.116249 -0.013420  0.105718      2.000000
  0.093000  0.000003  0.101004      2.000000
  0.069752  0.013426  0.096290      2.000000
  0.046494  0.026843 -0.053863      2.000000
  0.023245  0.040265 -0.058577      2.000000
 -0.000004  0.053688 -0.063291      2.000000
 -0.023252  0.067111 -0.068005      2.000000
 -0.046501  0.080534 -0.072719      2.000000
 -0.069750  0.093957 -0.077433      2.000000
 -0.092999  0.107380 -0.082147      2.000000
  0.162737 -0.040272 -0.030293      2.000000
  0.139488 -0.026849 -0.035007      2.000000
  0.116240 -0.013426 -0.039721      2.000000
  0.092991 -0.000003 -0.044435      2.000000
  0.069742  0.013420 -0.049149      2.000000
  0.046495  0.026844 -0.029623      2.000000
  0.023246  0.040266 -0.034337      2.000000
 -0.000002  0.053689 -0.039051      2.000000
 -0.023251  0.067112 -0.043765      2.000000
 -0.046500  0.080535 -0.048479      2.000000
 -0.069748  0.093958 -0.053193      2.000000
 -0.092997  0.107381 -0.057907      2.000000
  0.162739 -0.040271 -0.006053      2.000000
  0.139490 -0.026848 -0.010767      2.000000
  0.116241 -0.013425 -0.015481      2.000000
  0.092993 -0.000002 -0.020195      2.000000
  0.069744  0.013421 -0.024909      2.000000
  0.046497  0.026845 -0.005383      2.000000
  0.023248  0.040268 -0.010097      2.000000
 -0.000001  0.053690 -0.014811      2.000000
 -0.023249  0.067113 -0.019525      2.000000
 -0.046498  0.080536 -0.024239      2.000000
 -0.069747  0.093959 -0.028953      2.000000
 -0.092995  0.107382 -0.033667      2.000000
  0.162740 -0.040270  0.018186      2.000000
  0.139491 -0.026847  0.013472      2.000000
  0.116243 -0.013424  0.008758      2.000000
  0.092994 -0.000001  0.004044      2.000000
  0.069745  0.013422 -0.000669      2.000000
  0.069748  0.040269  0.028285      2.000000
  0.046499  0.053691  0.023571      2.000000
  0.023250  0.067114  0.018857      2.000000
  0.000001  0.080537  0.014143      2.000000
 -0.023247  0.093960  0.009429      2.000000
 -0.046496  0.107383  0.004715      2.000000
 -0.069745  0.120806  0.000001      2.000000
  0.185991 -0.026846  0.051854      2.000000
  0.162742 -0.013423  0.047140      2.000000
  0.139494 -0.000000  0.042426      2.000000
  0.116245  0.013423  0.037712      2.000000
  0.092996  0.026846  0.032998      2.000000
  0.069749  0.040270  0.052524      2.000000
  0.046500  0.053692  0.047810      2.000000
  0.023252  0.067115  0.043096      2.000000
  0.000003  0.080538  0.038382      2.000000
 -0.023246  0.093961  0.033669      2.000000
 -0.046494  0.107384  0.028955      2.000000
 -0.069743  0.120807  0.024241      2.000000
  0.185993 -0.026845  0.076094      2.000000
  0.162744 -0.013422  0.071380      2.000000
  0.139495  0.000001  0.066666      2.000000
  0.116246  0.013424  0.061952      2.000000
  0.092998  0.026847  0.057238      2.000000
  0.069751  0.040271  0.076764      2.000000
  0.046502  0.053693  0.072050      2.000000
  0.023253  0.067116  0.067336      2.000000
  0.000005  0.080539  0.062622      2.000000
 -0.023244  0.093962  0.057908      2.000000
 -0.046493  0.107385  0.053194      2.000000
 -0.069741  0.120808  0.048480      2.000000
  0.185994 -0.026844  0.100334      2.000000
  0.162745 -0.013421  0.095620      2.000000
  0.139497  0.000002  0.090906      2.000000
  0.116248  0.013425  0.086192      2.000000
  0.092999  0.026848  0.081478      2.000000
  0.069752  0.040272  0.101004      2.000000
  0.046504  0.053695  0.096290      2.000000
  0.023255  0.067117  0.091576      2.000000
  0.000006  0.080540  0.086862      2.000000
 -0.023242  0.093963  0.082148      2.000000
 -0.046491  0.107386  0.077434      2.000000
 -0.069740  0.120809  0.072720      2.000000
  0.185996 -0.026843  0.124574      2.000000
  0.162747 -0.013420  0.119860      2.000000
  0.139498  0.000003  0.115146      2.000000
  0.116250  0.013426  0.110432      2.000000
  0.093001  0.026849  0.105718      2.000000
  0.069743  0.040265 -0.044435      2.000000
  0.046494  0.053688 -0.049149      2.000000
  0.023245  0.067111 -0.053863      2.000000
 -0.000003  0.080534 -0.058577      2.000000
 -0.023252  0.093957 -0.063291      2.000000
 -0.046501  0.107380 -0.068005      2.000000
 -0.069749  0.120803 -0.072719      2.000000
  0.185986 -0.026849 -0.020865      2.000000
  0.162737 -0.013426 -0.025579      2.000000
  0.139489 -0.000003 -0.030293      2.000000
  0.116240  0.013420 -0.035007      2.000000
  0.092991  0.026843 -0.039721      2.000000
  0.069744  0.040266 -0.020195      2.000000
  0.046496  0.053689 -0.024909      2.000000
  0.023247  0.067112 -0.029623      2.000000
 -0.000002  0.080535 -0.034337      2.000000
 -0.023250  0.093958 -0.039051      2.000000
 -0.046499  0.107381 -0.043765      2.000000
 -0.069748  0.120804 -0.048479      2.000000
  0.185988 -0.026848  0.003375      2.000000
  0.162739 -0.013425 -0.001339      2.000000
  0.139490 -0.000002 -0.006053      2.000000
  0.116242  0.013421 -0.010767      2.000000
  0.092993  0.026844 -0.015481      2.000000
  0.069746  0.040268  0.004045      2.000000
  0.046497  0.053690 -0.000669      2.000000
  0.023249  0.067113 -0.005383      2.000000
 -0.000000  0.080536 -0.010097      2.000000
 -0.023249  0.093959 -0.014811      2.000000
 -0.046497  0.107382 -0.019525      2.000000
 -0.069746  0.120805 -0.024239      2.000000
  0.185989 -0.026847  0.027615      2.000000
  0.162741 -0.013424  0.022901      2.000000
  0.139492 -0.000001  0.018187      2.000000
  0.116243  0.013422  0.013473      2.000000
  0.092995  0.026845  0.008759      2.000000
  0.092997  0.053691  0.037713      2.000000
  0.069748  0.067114  0.032999      2.000000
  0.046499  0.080537  0.028285      2.000000
  0.023251  0.093960  0.023571      2.000000
  0.000002  0.107383  0.018857      2.000000
 -0.023247  0.120806  0.014143      2.000000
 -0.046495  0.134229  0.009429      2.000000
  0.209240 -0.013423  0.061282      2.000000
  0.185991 -0.000000  0.056569      2.000000
  0.162743  0.013423  0.051855      2.000000
  0.139494  0.026846  0.047141      2.000000
  0.116245  0.040269  0.042427      2.000000
  0.092998  0.053692  0.061952      2.000000
  0.069750  0.067115  0.057239      2.000000
  0.046501  0.080538  0.052525      2.000000
  0.023252  0.093961  0.047811      2.000000
  0.000004  0.107384  0.043097      2.000000
 -0.023245  0.120807  0.038383      2.000000
 -0.046494  0.134230  0.033669      2.000000
  0.209242 -0.013422  0.085522      2.000000
  0.185993  0.000001  0.080808      2.000000
  0.162744  0.013424  0.076094      2.000000
  0.139496  0.026847  0.071380      2.000000
  0.116247  0.040270  0.066666      2.000000
  0.093000  0.053693  0.086192      2.000000
  0.069751  0.067116  0.081478      2.000000
  0.046503  0.080539  0.076764      2.000000
  0.023254  0.093962  0.072050      2.000000
  0.000005  0.107385  0.067336      2.000000
 -0.023244  0.120808  0.062623      2.000000
 -0.046492  0.134231  0.057909      2.000000
  0.209243 -0.013421  0.109762      2.000000
  0.185995  0.000002  0.105048      2.000000
  0.162746  0.013425  0.100334      2.000000
  0.139497  0.026848  0.095620      2.000000
  0.116249  0.040271  0.090906      2.000000
  0.093001  0.053695  0.110432      2.000000
  0.069753  0.067117  0.105718      2.000000
  0.046504  0.080540  0.101004      2.000000
  0.023255  0.093963  0.096290      2.000000
  0.000007  0.107386  0.091576      2.000000
 -0.023242  0.120809  0.086862      2.000000
 -0.046491  0.134232  0.082148      2.000000
  0.209245 -0.013420  0.134002      2.000000
  0.185996  0.000003  0.129288      2.000000
  0.162748  0.013426  0.124574      2.000000
  0.139499  0.026849  0.119860      2.000000
  0.116250  0.040272  0.115146      2.000000
  0.092992  0.053688 -0.035007      2.000000
  0.069743  0.067111 -0.039721      2.000000
  0.046495  0.080534 -0.044435      2.000000
  0.023246  0.093957 -0.049149      2.000000
 -0.000003  0.107380 -0.053862      2.000000
 -0.023252  0.120803 -0.058576      2.000000
 -0.046500  0.134225 -0.063290      2.000000
  0.209235 -0.013426 -0.011437      2.000000
  0.185987 -0.000003 -0.016151      2.000000
  0.162738  0.013420 -0.020865      2.000000
  0.139489  0.026843 -0.025579      2.000000
  0.116241  0.040265 -0.030293      2.000000
  0.092993  0.053689 -0.010767      2.000000
  0.069745  0.067112 -0.015481      2.000000
  0.046496  0.080535 -0.020195      2.000000
  0.023247  0.093958 -0.024909      2.000000
 -0.000001  0.107381 -0.029623      2.000000
 -0.023250  0.120804 -0.034337      2.000000
 -0.046499  0.134226 -0.039051      2.000000
  0.209237 -0.013425  0.012803      2.000000
  0.185988 -0.000002  0.008089      2.000000
  0.162740  0.013421  0.003375      2.000000
  0.139491  0.026844 -0.001339      2.000000
  0.116242  0.040266 -0.006053      2.000000
  0.092995  0.053690  0.013473      2.000000
  0.069746  0.067113  0.008759      2.000000
  0.046498  0.080536  0.004045      2.000000
  0.023249  0.093959 -0.000669      2.000000
  0.000000  0.107382 -0.005383      2.000000
 -0.023248  0.120805 -0.010097      2.000000
 -0.046497  0.134228 -0.014811      2.000000
  0.209239 -0.013424  0.037043      2.000000
  0.185990 -0.000001  0.032329      2.000000
  0.162741  0.013422  0.027615      2.000000
  0.139492  0.026845  0.022901      2.000000
  0.116244  0.040268  0.018187      2.000000
  0.116246  0.067114  0.047141      2.000000
  0.092997  0.080537  0.042427      2.000000
  0.069748  0.093960  0.037713      2.000000
  0.046500  0.107383  0.032999      2.000000
  0.023251  0.120806  0.028285      2.000000
  0.000002  0.134229  0.023571      2.000000
 -0.023246  0.147651  0.018857      2.000000
  0.232489 -0.000000  0.070711      2.000000
  0.209241  0.013423  0.065997      2.000000
  0.185992  0.026846  0.061283      2.000000
  0.162743  0.040269  0.056569      2.000000
  0.139495  0.053691  0.051855      2.000000
  0.116247  0.067115  0.071381      2.000000
  0.092999  0.080538  0.066667      2.000000
  0.069750  0.093961  0.061953      2.000000
  0.046501  0.107384  0.057239      2.000000
  0.023253  0.120807  0.052525      2.000000
  0.000004  0.134230  0.047811      2.000000
 -0.023245  0.147652  0.043097      2.000000
  0.232491  0.000001  0.094950      2.000000
  0.209242  0.013424  0.090236      2.000000
  0.185994  0.026847  0.085523      2.000000
  0.162745  0.040270  0.080809      2.000000
  0.139496  0.053692  0.076095      2.000000
  0.116249  0.067116  0.095620      2.000000
  0.093000  0.080539  0.090906      2.000000
  0.069752  0.093962  0.086193      2.000000
  0.046503  0.107385  0.081479      2.000000
  0.023254  0.120808  0.076765      2.000000
  0.000006  0.134231  0.072051      2.000000
 -0.023243  0.147653  0.067337      2.000000
  0.232492  0.000002  0.119190      2.000000
  0.209244  0.013425  0.114476      2.000000
  0.185995  0.026848  0.109762      2.000000
  0.162746  0.040271  0.105048      2.000000
  0.139498  0.053693  0.100334      2.000000
  0.116251  0.067117  0.119860      2.000000
  0.093002  0.080540  0.115146      2.000000
  0.069753  0.093963  0.110432      2.000000
  0.046505  0.107386  0.105718      2.000000
  0.023256  0.120809  0.101004      2.000000
  0.000007  0.134232  0.096290      2.000000
 -0.023241  0.147655  0.091577      2.000000
  0.232494  0.000003  0.143430      2.000000
  0.209245  0.013426  0.138716      2.000000
  0.185997  0.026849  0.134002      2.000000
  0.162748  0.040272  0.129288      2.000000
  0.139499  0.053695  0.124574      2.000000
  0.116241  0.067111 -0.025578      2.000000
  0.092992  0.080534 -0.030292      2.000000
  0.069744  0.093957 -0.035006      2.000000
  0.046495  0.107380 -0.039720      2.000000
  0.023246  0.120803 -0.044434      2.000000
 -0.000002  0.134225 -0.049148      2.000000
 -0.023251  0.147648 -0.053862      2.000000
  0.232484 -0.000003 -0.002009      2.000000
  0.209236  0.013420 -0.006723      2.000000
  0.185987  0.026843 -0.011437      2.000000
  0.162738  0.040265 -0.016151      2.000000
  0.139490  0.053688 -0.020865      2.000000
  0.116243  0.067112 -0.001339      2.000000
  0.092994  0.080535 -0.006053      2.000000
  0.069745  0.093958 -0.010767      2.000000
  0.046497  0.107381 -0.015481      2.000000
  0.023248  0.120804 -0.020194      2.000000
 -0.000001  0.134226 -0.024908      2.000000
 -0.023249  0.147649 -0.029622      2.000000
  0.232486 -0.000002  0.022231      2.000000
  0.209237  0.013421  0.017517      2.000000
  0.185989  0.026844  0.012803      2.000000
  0.162740  0.040266  0.008089      2.000000
  0.139491  0.053689  0.003375      2.000000
  0.116244  0.067113  0.022901      2.000000
  0.092996  0.080536  0.018187      2.000000
  0.069747  0.093959  0.013473      2.000000
  0.046498  0.107382  0.008759      2.000000
  0.023250  0.120805  0.004045      2.000000
  0.000001  0.134228 -0.000669      2.000000
 -0.023248  0.147650 -0.005383      2.000000
  0.232488 -0.000001  0.046471      2.000000
  0.209239  0.013422  0.041757      2.000000
  0.185990  0.026845  0.037043      2.000000
  0.162742  0.040267  0.032329      2.000000
  0.139493  0.053690  0.027615      2.000000
  0.139495  0.080537  0.056569      1.000000
  0.116246  0.093960  0.051855      2.000000
  0.092998  0.107383  0.047141      2.000000
  0.069749  0.120806  0.042427      2.000000
  0.046500  0.134229  0.037713      2.000000
  0.023252  0.147651  0.032999      2.000000
  0.000003  0.161074  0.028285      1.000000
  0.139497  0.080538  0.080809      2.000000
  0.116248  0.093961  0.076095      2.000000
  0.092999  0.107384  0.071381      2.000000
  0.069751  0.120807  0.066667      2.000000
  0.046502  0.134230  0.061953      2.000000
  0.023253  0.147652  0.057239      2.000000
  0.000005  0.161075  0.052525      2.000000
  0.255740  0.013424  0.104379      2.000000
  0.232491  0.026847  0.099665      2.000000
  0.209243  0.040270  0.094951      2.000000
  0.185994  0.053692  0.090237      2.000000
  0.162745  0.067115  0.085523      2.000000
  0.139498  0.080539  0.105049      2.000000
  0.116250  0.093962  0.100335      2.000000
  0.093001  0.107385  0.095621      2.000000
  0.069752  0.120808  0.090907      2.000000
  0.046503  0.134231  0.086193      2.000000
  0.023255  0.147653  0.081479      2.000000
  0.000006  0.161076  0.076765      2.000000
  0.255742  0.013425  0.128618      2.000000
  0.232493  0.026848  0.123904      2.000000
  0.209244  0.040271  0.119190      2.000000
  0.185996  0.053693  0.114477      2.000000
  0.162747  0.067116  0.109763      2.000000
  0.139500  0.080540  0.129288      2.000000
  0.116251  0.093963  0.124574      2.000000
  0.093002  0.107386  0.119861      2.000000
  0.069754  0.120809  0.115147      2.000000
  0.046505  0.134232  0.110433      2.000000
  0.023256  0.147655  0.105719      2.000000
  0.000008  0.161077  0.101005      2.000000
  0.255743  0.013426  0.152858      2.000000
  0.232495  0.026849  0.148144      2.000000
  0.209246  0.040272  0.143430      2.000000
  0.185997  0.053695  0.138716      2.000000
  0.162748  0.067117  0.134002      2.000000
 
 TETIRR: Found   3024 inequivalent tetrahedra from     6048


--------------------------------------------------------------------------------------------------------




 Dimension of arrays:
   k-points           NKPTS =    506   k-points in BZ     NKDIM =    506   number of bands    NBANDS=     28
   number of dos      NEDOS =    301   number of ions     NIONS =      4
   non local maximal  LDIM  =      8   non local SUM 2l+1 LMDIM =     32
   total plane-waves  NPLWV =  37632
   max r-space proj   IRMAX =  10407   max aug-charges    IRDMAX=  33003
   dimension x,y,z NGX =    28 NGY =   48 NGZ =   28
   dimension x,y,z NGXF=    56 NGYF=   96 NGZF=   56
   support grid    NGXF=    56 NGYF=   96 NGZF=   56
   ions per type =               2   2
   NGX,Y,Z   is equivalent  to a cutoff of  12.99, 12.77, 12.99 a.u.
   NGXF,Y,Z  is equivalent  to a cutoff of  25.97, 25.55, 25.97 a.u.

 SYSTEM =  unknown system                          
 POSCAR =  Eu2 O2                                  

 Startparameter for this run:
   NWRITE =      2    write-flag & timer
   PREC   = accura    normal or accurate (medium, high low for compatibility)
   ISTART =      0    job   : 0-new  1-cont  2-samecut
   ICHARG =      2    charge: 1-file 2-atom 10-const
   ISPIN  =      2    spin polarized calculation?
   LNONCOLLINEAR =      F non collinear calculations
   LSORBIT =      F    spin-orbit coupling
   INIWAV =      1    electr: 0-lowe 1-rand  2-diag
   LASPH  =      T    aspherical Exc in radial PAW
   METAGGA=      F    non-selfconsistent MetaGGA calc.

 Electronic Relaxation 1
   ENCUT  =  520.0 eV  38.22 Ry    6.18 a.u.   6.66 11.61  6.66*2*pi/ulx,y,z
   ENINI  =  520.0     initial cutoff
   ENAUG  =  605.4 eV  augmentation charge cutoff
   NELM   =    120;   NELMIN=  2; NELMDL=  0     # of ELM steps 
   EDIFF  = 0.1E-05   stopping-criterion for ELM
   LREAL  =      T    real-space projection
   NLSPLINE    = F    spline interpolate recip. space projectors
   LCOMPAT=      F    compatible to vasp.4.4
   GGA_COMPAT  = T    GGA compatible to vasp.4.4-vasp.4.6
   LMAXPAW     = -100 max onsite density
   LMAXMIX     =    4 max onsite mixed and CHGCAR
   VOSKOWN=      0    Vosko Wilk Nusair interpolation
   ROPT   =   -0.00025  -0.00025
 Ionic relaxation
   EDIFFG = 0.1E-04   stopping-criterion for IOM
   NSW    =      0    number of steps for IOM
   NBLOCK =      1;   KBLOCK =      1    inner block; outer block 
   IBRION =     -1    ionic relax: 0-MD 1-quasi-New 2-CG
   NFREE  =      0    steps in history (QN), initial steepest desc. (CG)
   ISIF   =      3    stress and relaxation
   IWAVPR =     10    prediction:  0-non 1-charg 2-wave 3-comb
   ISYM   =      2    0-nonsym 1-usesym 2-fastsym
   LCORR  =      T    Harris-Foulkes like correction to forces

   POTIM  = 0.5000    time-step for ionic-motion
   TEIN   =    0.0    initial temperature
   TEBEG  =    0.0;   TEEND  =   0.0 temperature during run
   SMASS  =  -3.00    Nose mass-parameter (am)
   estimated Nose-frequenzy (Omega)   =  0.10E-29 period in steps =****** mass=  -0.294E-27a.u.
   SCALEE = 1.0000    scale energy and forces
   NPACO  =    256;   APACO  = 16.0  distance and # of slots for P.C.
   PSTRESS=    0.0 pullay stress

  Mass of Ions in am
   POMASS = 151.97 16.00
  Ionic Valenz
   ZVAL   =  17.00  6.00
  Atomic Wigner-Seitz radii
   RWIGS  =  -1.00 -1.00
  virtual crystal weights 
   VCA    =   1.00  1.00
   NELECT =      46.0000    total number of electrons
   NUPDOWN=      -1.0000    fix difference up-down

 DOS related values:
   EMIN   =  10.00;   EMAX   =-10.00  energy-range for DOS
   EFERMI =   0.00
   ISMEAR =    -5;   SIGMA  =   0.05  broadening in eV -4-tet -1-fermi 0-gaus

 Electronic relaxation 2 (details)
   IALGO  =     38    algorithm
   LDIAG  =      T    sub-space diagonalisation (order eigenvalues)
   LSUBROT=      F    optimize rotation matrix (better conditioning)
   TURBO    =      0    0=normal 1=particle mesh
   IRESTART =      0    0=no restart 2=restart with 2 vectors
   NREBOOT  =      0    no. of reboots
   NMIN     =      0    reboot dimension
   EREF     =   0.00    reference energy to select bands
   IMIX   =      4    mixing-type and parameters
     AMIX     =   0.40;   BMIX     =  1.00
     AMIX_MAG =   1.60;   BMIX_MAG =  1.00
     AMIN     =   0.10
     WC   =   100.;   INIMIX=   1;  MIXPRE=   1;  MAXMIX= -45

 Intra band minimization:
   WEIMIN = 0.0000     energy-eigenvalue tresh-hold
   EBREAK =  0.89E-08  absolut break condition
   DEPER  =   0.30     relativ break condition  

   TIME   =   0.40     timestep for ELM

  volume/ion in A,a.u.               =      16.39       110.63
  Fermi-wavevector in a.u.,A,eV,Ry     =   1.454607  2.748810 28.788334  2.115883
  Thomas-Fermi vector in A             =   2.571738
 
 Write flags
   LWAVE        =      F    write WAVECAR
   LDOWNSAMPLE  =      F    k-point downsampling of WAVECAR
   LCHARG       =      F    write CHGCAR
   LVTOT        =      F    write LOCPOT, total local potential
   LVHAR        =      F    write LOCPOT, Hartree potential only
   LELF         =      F    write electronic localiz. function (ELF)
   LORBIT       =     11    0 simple, 1 ext, 2 COOP (PROOUT), +10 PAW based schemes


 Dipole corrections
   LMONO  =      F    monopole corrections only (constant potential shift)
   LDIPOL =      F    correct potential (dipole corrections)
   IDIPOL =      0    1-x, 2-y, 3-z, 4-all directions 
   EPSILON=  1.0000000 bulk dielectric constant

 Exchange correlation treatment:
   GGA     =    --    GGA type
   LEXCH   =     8    internal setting for exchange type
   VOSKOWN=      0    Vosko Wilk Nusair interpolation
   LHFCALC =     F    Hartree Fock is set to
   LHFONE  =     F    Hartree Fock one center treatment
   AEXX    =    0.0000 exact exchange contribution

 Linear response parameters
   LEPSILON=     F    determine dielectric tensor
   LRPA    =     F    only Hartree local field effects (RPA)
   LNABLA  =     F    use nabla operator in PAW spheres
   LVEL    =     F    velocity operator in full k-point grid
   LINTERFAST=   F  fast interpolation
   KINTER  =     0    interpolate to denser k-point grid
   CSHIFT  =0.1000    complex shift for real part using Kramers Kronig
   OMEGAMAX=  -1.0    maximum frequency
   DEG_THRESHOLD= 0.2000000E-02 threshold for treating states as degnerate
   RTIME   =   -0.100 relaxation time in fs
  (WPLASMAI=    0.000 imaginary part of plasma frequency in eV, 0.658/RTIME)
   DFIELD  = 0.0000000 0.0000000 0.0000000 field for delta impulse in time
 
 Orbital magnetization related:
   ORBITALMAG=     F  switch on orbital magnetization
   LCHIMAG   =     F  perturbation theory with respect to B field
   DQ        =  0.001000  dq finite difference perturbation B field
   LLRAUG    =     F  two centre corrections for induced B field



--------------------------------------------------------------------------------------------------------


 Static calculation
 charge density and potential will be updated during run
 spin polarized calculation
 Variant of blocked Davidson
 Davidson routine will perform the subspace rotation
 perform sub-space diagonalisation
    after iterative eigenvector-optimisation
 modified Broyden-mixing scheme, WC =      100.0
 initial mixing is a Kerker type mixing with AMIX =  0.4000 and BMIX =      1.0000
 Hartree-type preconditioning will be used
 using additional bands            5
 real space projection scheme for non local part
 use partial core corrections
 calculate Harris-corrections to forces 
   (improved forces if not selfconsistent)
 use gradient corrections 
 use of overlap-Matrix (Vanderbilt PP)
 Fermi weights with tetrahedron method with Bloechl corrections


--------------------------------------------------------------------------------------------------------


  energy-cutoff  :      520.00
  volume of cell :       65.58
      direct lattice vectors                 reciprocal lattice vectors
    -1.792192109  3.104193840 -0.000015599    -0.278984191  0.161074301 -0.056567418
    -1.792532551 -1.034920145  5.893661408     0.000011162  0.000007297  0.169678488
     1.792274375  3.104169907 -0.000251390     0.278990063  0.161074205  0.113138110

  length of vectors
     3.584406778  6.246557247  3.584427194     0.327073359  0.169678489  0.341438994


 
 k-points in units of 2pi/SCALE and weight: pymatgen v2019.10.16 with grid density =
   0.00000000  0.00000000  0.00000000       0.001
  -0.02324868  0.01342286 -0.00471395       0.002
  -0.04649737  0.02684572 -0.00942790       0.002
  -0.06974605  0.04026858 -0.01414185       0.002
  -0.09299473  0.05369143 -0.01885581       0.002
  -0.11624341  0.06711429 -0.02356976       0.002
  -0.13949210  0.08053715 -0.02828371       0.001
   0.00000159  0.00000104  0.02423978       0.002
  -0.02324709  0.01342390  0.01952583       0.002
  -0.04649577  0.02684676  0.01481188       0.002
  -0.06974445  0.04026962  0.01009793       0.002
  -0.09299314  0.05369248  0.00538398       0.002
  -0.11624182  0.06711533  0.00067003       0.002
  -0.13949050  0.08053819 -0.00404392       0.002
   0.11624501 -0.06711325  0.04780954       0.002
   0.09299632 -0.05369039  0.04309559       0.002
   0.06974764 -0.04026753  0.03838164       0.002
   0.04649896 -0.02684467  0.03366769       0.002
   0.02325028 -0.01342182  0.02895374       0.002
   0.00000319  0.00000208  0.04847957       0.002
  -0.02324549  0.01342494  0.04376562       0.002
  -0.04649418  0.02684780  0.03905167       0.002
  -0.06974286  0.04027066  0.03433771       0.002
  -0.09299154  0.05369352  0.02962376       0.002
  -0.11624022  0.06711638  0.02490981       0.002
  -0.13948891  0.08053924  0.02019586       0.002
   0.11624660 -0.06711221  0.07204933       0.002
   0.09299792 -0.05368935  0.06733537       0.002
   0.06974924 -0.04026649  0.06262142       0.002
   0.04650055 -0.02684363  0.05790747       0.002
   0.02325187 -0.01342077  0.05319352       0.002
   0.00000478  0.00000313  0.07271935       0.002
  -0.02324390  0.01342599  0.06800540       0.002
  -0.04649258  0.02684884  0.06329145       0.002
  -0.06974126  0.04027170  0.05857750       0.002
  -0.09298995  0.05369456  0.05386355       0.002
  -0.11623863  0.06711742  0.04914959       0.002
  -0.13948731  0.08054028  0.04443564       0.002
   0.11624820 -0.06711116  0.09628911       0.002
   0.09299951 -0.05368831  0.09157516       0.002
   0.06975083 -0.04026545  0.08686121       0.002
   0.04650215 -0.02684259  0.08214726       0.002
   0.02325347 -0.01341973  0.07743330       0.002
   0.02324917  0.01342285  0.00942818       0.002
   0.00000049  0.02684571  0.00471422       0.002
  -0.02324819  0.04026857  0.00000027       0.002
  -0.04649688  0.05369143 -0.00471368       0.002
  -0.06974556  0.06711428 -0.00942763       0.002
  -0.09299424  0.08053714 -0.01414158       0.002
  -0.11624292  0.09396000 -0.01885553       0.002
   0.13949258 -0.05369144  0.03299793       0.002
   0.11624390 -0.04026858  0.02828398       0.002
   0.09299522 -0.02684572  0.02357003       0.002
   0.06974654 -0.01342287  0.01885608       0.002
   0.04649785 -0.00000001  0.01414213       0.002
   0.02325077  0.01342389  0.03366796       0.002
   0.00000208  0.02684675  0.02895401       0.002
  -0.02324660  0.04026961  0.02424006       0.002
  -0.04649528  0.05369247  0.01952611       0.002
  -0.06974396  0.06711533  0.01481215       0.002
  -0.09299265  0.08053818  0.01009820       0.002
  -0.11624133  0.09396104  0.00538425       0.002
   0.13949418 -0.05369040  0.05723772       0.002
   0.11624550 -0.04026754  0.05252377       0.002
   0.09299681 -0.02684468  0.04780981       0.002
   0.06974813 -0.01342182  0.04309586       0.002
   0.04649945  0.00000103  0.03838191       0.002
   0.02325236  0.01342494  0.05790774       0.002
   0.00000368  0.02684779  0.05319379       0.002
  -0.02324500  0.04027065  0.04847984       0.002
  -0.04649369  0.05369351  0.04376589       0.002
  -0.06974237  0.06711637  0.03905194       0.002
  -0.09299105  0.08053923  0.03433799       0.002
  -0.11623973  0.09396209  0.02962404       0.002
   0.13949577 -0.05368936  0.08147750       0.002
   0.11624709 -0.04026650  0.07676355       0.002
   0.09299841 -0.02684364  0.07204960       0.002
   0.06974973 -0.01342078  0.06733565       0.002
   0.04650104  0.00000208  0.06262170       0.002
   0.02325396  0.01342598  0.08214753       0.002
   0.00000527  0.02684884  0.07743358       0.002
  -0.02324341  0.04027169  0.07271963       0.002
  -0.04649209  0.05369455  0.06800567       0.002
  -0.06974077  0.06711741  0.06329172       0.002
  -0.09298946  0.08054027  0.05857777       0.002
  -0.11623814  0.09396313  0.05386382       0.002
   0.13949737 -0.05368831  0.10571729       0.002
   0.11624869 -0.04026546  0.10100333       0.002
   0.09300000 -0.02684260  0.09628938       0.002
   0.06975132 -0.01341974  0.09157543       0.002
   0.04650264  0.00000312  0.08686148       0.002
   0.02324439  0.01341972 -0.06329118       0.002
  -0.00000429  0.02684258 -0.06800513       0.002
  -0.02325298  0.04026544 -0.07271908       0.002
  -0.04650166  0.05368830 -0.07743303       0.002
  -0.06975034  0.06711116 -0.08214698       0.002
  -0.09299902  0.08053402 -0.08686093       0.002
  -0.11624771  0.09395687 -0.09157489       0.002
   0.13948780 -0.05369457 -0.03972142       0.002
   0.11623912 -0.04027171 -0.04443537       0.002
   0.09299044 -0.02684885 -0.04914932       0.002
   0.06974175 -0.01342599 -0.05386327       0.002
   0.04649307 -0.00000314 -0.05857722       0.002
   0.02324598  0.01342077 -0.03905139       0.002
  -0.00000270  0.02684362 -0.04376534       0.002
  -0.02325138  0.04026648 -0.04847930       0.002
  -0.04650006  0.05368934 -0.05319325       0.002
  -0.06974875  0.06711220 -0.05790720       0.002
  -0.09299743  0.08053506 -0.06262115       0.002
  -0.11624611  0.09395792 -0.06733510       0.002
   0.13948940 -0.05369353 -0.01548164       0.002
   0.11624071 -0.04027067 -0.02019559       0.002
   0.09299203 -0.02684781 -0.02490954       0.002
   0.06974335 -0.01342495 -0.02962349       0.002
   0.04649467 -0.00000209 -0.03433744       0.002
   0.02324758  0.01342181 -0.01481161       0.002
  -0.00000111  0.02684467 -0.01952556       0.002
  -0.02324979  0.04026752 -0.02423951       0.002
  -0.04649847  0.05369038 -0.02895346       0.002
  -0.06974715  0.06711324 -0.03366741       0.002
  -0.09299584  0.08053610 -0.03838137       0.002
  -0.11624452  0.09395896 -0.04309532       0.002
   0.13949099 -0.05369248  0.00875815       0.002
   0.11624231 -0.04026963  0.00404420       0.002
   0.09299363 -0.02684677 -0.00066975       0.002
   0.06974494 -0.01342391 -0.00538371       0.002
   0.04649626 -0.00000105 -0.01009766       0.002
   0.04649834  0.02684570  0.01885635       0.002
   0.02324966  0.04026856  0.01414240       0.002
   0.00000098  0.05369142  0.00942845       0.002
  -0.02324770  0.06711428  0.00471450       0.002
  -0.04649639  0.08053713  0.00000055       0.002
  -0.06974507  0.09395999 -0.00471341       0.002
  -0.09299375  0.10738285 -0.00942736       0.002
   0.16274176 -0.04026859  0.04242611       0.002
   0.13949307 -0.02684573  0.03771216       0.002
   0.11624439 -0.01342287  0.03299821       0.002
   0.09299571 -0.00000002  0.02828425       0.002
   0.06974703  0.01342284  0.02357030       0.002
   0.04649994  0.02684674  0.04309614       0.002
   0.02325126  0.04026960  0.03838218       0.002
   0.00000257  0.05369246  0.03366823       0.002
  -0.02324611  0.06711532  0.02895428       0.002
  -0.04649479  0.08053818  0.02424033       0.002
  -0.06974347  0.09396104  0.01952638       0.002
  -0.09299216  0.10738389  0.01481243       0.002
   0.16274335 -0.04026755  0.06666589       0.002
   0.13949467 -0.02684469  0.06195194       0.002
   0.11624599 -0.01342183  0.05723799       0.002
   0.09299730  0.00000103  0.05252404       0.002
   0.06974862  0.01342388  0.04781009       0.002
   0.04650153  0.02684779  0.06733592       0.002
   0.02325285  0.04027064  0.06262197       0.002
   0.00000417  0.05369350  0.05790802       0.002
  -0.02324451  0.06711636  0.05319407       0.002
  -0.04649320  0.08053922  0.04848011       0.002
  -0.06974188  0.09396208  0.04376616       0.002
  -0.09299056  0.10738494  0.03905221       0.002
   0.16274495 -0.04026651  0.09090568       0.002
   0.13949626 -0.02684365  0.08619173       0.002
   0.11624758 -0.01342079  0.08147777       0.002
   0.09299890  0.00000207  0.07676382       0.002
   0.06975022  0.01342493  0.07204987       0.002
   0.04650313  0.02684883  0.09157570       0.002
   0.02325444  0.04027169  0.08686175       0.002
   0.00000576  0.05369454  0.08214780       0.002
  -0.02324292  0.06711740  0.07743385       0.002
  -0.04649160  0.08054026  0.07271990       0.002
  -0.06974029  0.09396312  0.06800595       0.002
  -0.09298897  0.10738598  0.06329200       0.002
   0.16274654 -0.04026546  0.11514546       0.002
   0.13949786 -0.02684261  0.11043151       0.002
   0.11624918 -0.01341975  0.10571756       0.002
   0.09300049  0.00000311  0.10100361       0.002
   0.06975181  0.01342597  0.09628966       0.002
   0.04649356  0.02684257 -0.05386300       0.002
   0.02324488  0.04026543 -0.05857695       0.002
  -0.00000380  0.05368829 -0.06329090       0.002
  -0.02325249  0.06711115 -0.06800486       0.002
  -0.04650117  0.08053401 -0.07271881       0.002
  -0.06974985  0.09395687 -0.07743276       0.002
  -0.09299854  0.10737972 -0.08214671       0.002
   0.16273697 -0.04027172 -0.03029324       0.002
   0.13948829 -0.02684886 -0.03500719       0.002
   0.11623961 -0.01342600 -0.03972115       0.002
   0.09299093 -0.00000314 -0.04443510       0.002
   0.06974224  0.01341972 -0.04914905       0.002
   0.04649515  0.02684362 -0.02962322       0.002
   0.02324647  0.04026647 -0.03433717       0.002
  -0.00000221  0.05368933 -0.03905112       0.002
  -0.02325089  0.06711219 -0.04376507       0.002
  -0.04649958  0.08053505 -0.04847902       0.002
  -0.06974826  0.09395791 -0.05319297       0.002
  -0.09299694  0.10738077 -0.05790693       0.002
   0.16273857 -0.04027068 -0.00605346       0.002
   0.13948989 -0.02684782 -0.01076741       0.002
   0.11624120 -0.01342496 -0.01548136       0.002
   0.09299252 -0.00000210 -0.02019531       0.002
   0.06974384  0.01342076 -0.02490927       0.002
   0.04649675  0.02684466 -0.00538343       0.002
   0.02324807  0.04026752 -0.01009738       0.002
  -0.00000062  0.05369038 -0.01481134       0.002
  -0.02324930  0.06711323 -0.01952529       0.002
  -0.04649798  0.08053609 -0.02423924       0.002
  -0.06974666  0.09395895 -0.02895319       0.002
  -0.09299535  0.10738181 -0.03366714       0.002
   0.16274016 -0.04026963  0.01818632       0.002
   0.13949148 -0.02684678  0.01347237       0.002
   0.11624280 -0.01342392  0.00875842       0.002
   0.09299411 -0.00000106  0.00404447       0.002
   0.06974543  0.01342180 -0.00066948       0.002
[...]
 -0.000   0.000  -0.000 -17.545   0.000   0.000   7.753  -0.000
 -0.000   0.000  -0.000   0.000 -17.546  -0.000  -0.000   7.754
 -0.000  -0.000   7.754   0.000  -0.000   5.171  -0.000   0.000
 -0.000  -0.000   0.000   7.753  -0.000  -0.000   5.172  -0.000
 -0.000  -0.000  -0.000  -0.000   7.754   0.000  -0.000   5.171
 -0.000   0.000  -0.000  -0.000  -0.000  -0.000  -0.000  -0.000
 -0.000  -0.000  -0.000  -0.000  -0.000  -0.000  -0.000  -0.000
 -0.000   0.000   0.000  -0.000   0.000   0.000  -0.000   0.000
  0.000  -0.000  -0.000   0.000  -0.000  -0.000  -0.000  -0.000
 -0.000  -0.000   0.000   0.000   0.000   0.000   0.000  -0.000
  0.000  -0.000  -0.000  -0.000  -0.000   0.000   0.000   0.000
  0.000   0.000  -0.000  -0.000  -0.000   0.000   0.000   0.000
  0.000  -0.001   0.000  -0.000   0.000  -0.000   0.000  -0.000
 -0.000   0.000  -0.000  -0.000  -0.000   0.000   0.000   0.000
  0.000   0.000  -0.000   0.000  -0.000  -0.000  -0.000   0.000
  0.000  -0.000   0.000  -0.022   0.000  -0.000   0.014  -0.000
  0.000  -0.000   0.000   0.000  -0.028   0.000  -0.000   0.018
  0.000  -0.000   0.014  -0.000   0.000  -0.009   0.000  -0.000
  0.000  -0.000   0.000  -0.019  -0.000  -0.000   0.012   0.000
 -0.000   0.000   0.000  -0.000   0.014  -0.000   0.000  -0.009
 -0.000   0.000  -0.027   0.000  -0.000   0.018  -0.000   0.000
  0.000  -0.000   0.000  -0.000  -0.000  -0.000   0.000   0.000
  0.000  -0.000   0.000  -0.022   0.000  -0.000   0.014  -0.000
  0.000  -0.000   0.000   0.000  -0.026   0.000  -0.000   0.017
  0.000  -0.000   0.013  -0.000   0.000  -0.009   0.000  -0.000
  0.000  -0.000   0.000  -0.018  -0.000  -0.000   0.011   0.000
 -0.000   0.000   0.000  -0.000   0.013  -0.000   0.000  -0.009
 -0.000   0.000  -0.026   0.000  -0.000   0.017  -0.000   0.000
  0.000  -0.000   0.000  -0.000  -0.000  -0.000   0.000   0.000
 pseudopotential strength for first ion, spin component:           2
 -8.680  -4.020  -0.000  -0.000  -0.000  -0.000  -0.000  -0.000
 -4.020  -0.357   0.000   0.000   0.000  -0.000  -0.000  -0.000
 -0.000   0.000 -15.665  -0.000   0.000   7.373   0.000  -0.000
 -0.000   0.000  -0.000 -15.664   0.000   0.000   7.372  -0.000
 -0.000   0.000   0.000   0.000 -15.665  -0.000  -0.000   7.373
 -0.000  -0.000   7.373   0.000  -0.000   4.940  -0.000   0.000
 -0.000  -0.000   0.000   7.372  -0.000  -0.000   4.941   0.000
 -0.000  -0.000  -0.000  -0.000   7.373   0.000   0.000   4.940
  0.000  -0.000  -0.000   0.000  -0.000  -0.000  -0.000  -0.000
 -0.000  -0.000  -0.000  -0.000   0.000  -0.000  -0.000  -0.000
  0.000   0.000   0.000  -0.000   0.000   0.000  -0.000   0.000
  0.000   0.000   0.000  -0.000  -0.000  -0.000  -0.000  -0.000
 -0.000   0.000   0.000   0.000   0.000   0.000   0.000  -0.000
 -0.000   0.000  -0.000  -0.000  -0.000   0.000   0.000   0.000
  0.000   0.000  -0.000  -0.000  -0.000   0.000   0.000   0.000
 -0.001  -0.000  -0.000  -0.000   0.000  -0.000   0.000  -0.000
 -0.000  -0.000  -0.000  -0.000  -0.000   0.000   0.000   0.000
  0.000  -0.000   0.000   0.000  -0.000  -0.000  -0.000   0.000
  0.000  -0.000  -0.000   0.001  -0.000   0.000  -0.005   0.000
  0.000  -0.000   0.000  -0.000   0.001  -0.000   0.000  -0.006
  0.000  -0.000   0.000  -0.000  -0.000   0.003   0.000   0.000
  0.000  -0.000   0.000   0.001   0.000  -0.000  -0.005  -0.000
 -0.000   0.000  -0.000   0.000   0.000   0.000  -0.000   0.003
 -0.000   0.000   0.001  -0.000   0.000  -0.006   0.000  -0.000
  0.000  -0.000  -0.000   0.000  -0.000   0.000  -0.000   0.000
  0.000  -0.000  -0.000   0.000  -0.000   0.000  -0.005   0.000
  0.000  -0.000   0.000  -0.000   0.000  -0.000   0.000  -0.006
  0.000  -0.000   0.000  -0.000  -0.000   0.002   0.000   0.000
  0.000  -0.000   0.000   0.001   0.000  -0.000  -0.005  -0.000
 -0.000   0.000  -0.000   0.000   0.000   0.000  -0.000   0.002
 -0.000   0.000   0.000  -0.000   0.000  -0.006   0.000  -0.000
  0.000  -0.000  -0.000   0.000  -0.000   0.000  -0.000   0.000
 total augmentation occupancy for first ion, spin component:           1
  1.993  -0.037   0.000   0.000   0.000   0.000   0.000   0.000  -0.000   0.000  -0.001   0.000  -0.000  -0.000   0.000  -0.000
 -0.037   0.605   0.000   0.000   0.000   0.000   0.000   0.000  -0.000   0.000  -0.001   0.000  -0.000  -0.000   0.000  -0.000
  0.000   0.000   2.012   0.000  -0.000  -0.019  -0.000   0.000   0.000   0.000   0.000   0.000   0.000   0.000   0.000   0.000
  0.000   0.000   0.000   2.013   0.000  -0.000  -0.020   0.000   0.000   0.000   0.000   0.000   0.000   0.000   0.000   0.000
  0.000   0.000  -0.000   0.000   2.012   0.000   0.000  -0.019   0.000   0.000   0.000   0.000   0.000   0.000   0.000   0.000
  0.000   0.000  -0.019  -0.000   0.000   0.020   0.000  -0.000   0.000   0.000   0.000   0.000   0.000   0.000   0.000   0.000
  0.000   0.000  -0.000  -0.020   0.000   0.000   0.020   0.000   0.000   0.000   0.000   0.000   0.000   0.000   0.000   0.000
  0.000   0.000   0.000   0.000  -0.019  -0.000   0.000   0.020   0.000   0.000   0.000   0.000   0.000   0.000   0.000   0.000
 -0.000  -0.000   0.000   0.000   0.000   0.000   0.000   0.000   0.229  -0.000  -0.000  -0.082  -0.000   0.062   0.000  -0.000
  0.000   0.000   0.000   0.000   0.000   0.000   0.000   0.000  -0.000   0.287  -0.000  -0.000  -0.082   0.000   0.084  -0.000
 -0.001  -0.001   0.000   0.000   0.000   0.000   0.000   0.000  -0.000  -0.000   0.168  -0.000  -0.000  -0.000  -0.000   0.040
  0.000   0.000   0.000   0.000   0.000   0.000   0.000   0.000  -0.082  -0.000  -0.000   0.287  -0.000  -0.031  -0.000  -0.000
 -0.000  -0.000   0.000   0.000   0.000   0.000   0.000   0.000  -0.000  -0.082  -0.000  -0.000   0.229  -0.000  -0.031  -0.000
 -0.000  -0.000   0.000   0.000   0.000   0.000   0.000   0.000   0.062   0.000  -0.000  -0.031  -0.000   0.018   0.000  -0.000
  0.000   0.000   0.000   0.000   0.000   0.000   0.000   0.000   0.000   0.084  -0.000  -0.000  -0.031   0.000   0.026  -0.000
 -0.000  -0.000   0.000   0.000   0.000   0.000   0.000   0.000  -0.000  -0.000   0.040  -0.000  -0.000  -0.000  -0.000   0.010
  0.000   0.000   0.000   0.000   0.000   0.000   0.000   0.000  -0.031  -0.000  -0.000   0.084   0.000  -0.011  -0.000  -0.000
 -0.000  -0.000   0.000   0.000   0.000   0.000   0.000   0.000  -0.000  -0.031  -0.000   0.000   0.062  -0.000  -0.011  -0.000
  0.000   0.000  -0.000  -0.119  -0.000   0.000   0.082   0.000   0.000   0.000   0.000   0.000   0.000   0.000   0.000   0.000
  0.000   0.000   0.000  -0.000  -0.147  -0.000   0.000   0.101   0.000   0.000   0.000   0.000   0.000   0.000   0.000   0.000
  0.000   0.000   0.070  -0.000   0.000  -0.046  -0.000  -0.000   0.000   0.000   0.000   0.000   0.000   0.000   0.000   0.000
  0.000   0.000   0.000  -0.105  -0.000   0.000   0.074   0.000   0.000   0.000   0.000   0.000   0.000   0.000   0.000   0.000
  0.000   0.000   0.000   0.000   0.070   0.000  -0.000  -0.046   0.000   0.000   0.000   0.000   0.000   0.000   0.000   0.000
  0.000   0.000  -0.147  -0.000   0.000   0.101   0.000  -0.000   0.000   0.000   0.000   0.000   0.000   0.000   0.000   0.000
  0.000   0.000   0.000  -0.000  -0.000  -0.000   0.000   0.000   0.000   0.000   0.000   0.000   0.000   0.000   0.000   0.000
  0.000   0.000   0.000   0.121   0.000  -0.000  -0.075  -0.000   0.000   0.000   0.000   0.000   0.000   0.000   0.000   0.000
  0.000   0.000  -0.000   0.000   0.149   0.000  -0.000  -0.093   0.000   0.000   0.000   0.000   0.000   0.000   0.000   0.000
  0.000   0.000  -0.071   0.000  -0.000   0.042   0.000  -0.000   0.000   0.000   0.000   0.000   0.000   0.000   0.000   0.000
  0.000   0.000  -0.000   0.106   0.000  -0.000  -0.067  -0.000   0.000   0.000   0.000   0.000   0.000   0.000   0.000   0.000
  0.000   0.000  -0.000  -0.000  -0.071  -0.000   0.000   0.042   0.000   0.000   0.000   0.000   0.000   0.000   0.000   0.000
  0.000   0.000   0.149   0.000  -0.000  -0.093  -0.000   0.000   0.000   0.000   0.000   0.000   0.000   0.000   0.000   0.000
  0.000   0.000  -0.000   0.000   0.000   0.000  -0.000  -0.000   0.000   0.000   0.000   0.000   0.000   0.000   0.000   0.000
 total augmentation occupancy for first ion, spin component:           2
  0.042   0.160   0.000   0.000   0.000   0.000   0.000   0.000  -0.000   0.000  -0.000   0.000  -0.000  -0.000  -0.000  -0.000
  0.160  -0.131   0.000   0.000   0.000   0.000   0.000   0.000   0.000  -0.000   0.008  -0.000   0.000   0.000  -0.000   0.002
  0.000   0.000   0.007   0.000  -0.000   0.044  -0.000   0.000   0.000   0.000   0.000   0.000   0.000   0.000   0.000   0.000
  0.000   0.000   0.000   0.008  -0.000  -0.000   0.044  -0.000   0.000   0.000   0.000   0.000   0.000   0.000   0.000   0.000
  0.000   0.000  -0.000  -0.000   0.007   0.000  -0.000   0.044   0.000   0.000   0.000   0.000   0.000   0.000   0.000   0.000
  0.000   0.000   0.044  -0.000   0.000  -0.003  -0.000   0.000   0.000   0.000   0.000   0.000   0.000   0.000   0.000   0.000
  0.000   0.000  -0.000   0.044  -0.000  -0.000  -0.003  -0.000   0.000   0.000   0.000   0.000   0.000   0.000   0.000   0.000
  0.000   0.000   0.000  -0.000   0.044   0.000  -0.000  -0.003   0.000   0.000   0.000   0.000   0.000   0.000   0.000   0.000
 -0.000   0.000   0.000   0.000   0.000   0.000   0.000   0.000  -0.043   0.000   0.000   0.004   0.000  -0.011   0.000   0.000
  0.000  -0.000   0.000   0.000   0.000   0.000   0.000   0.000   0.000  -0.041   0.000   0.000   0.004   0.000  -0.011   0.000
 -0.000   0.008   0.000   0.000   0.000   0.000   0.000   0.000   0.000   0.000  -0.029   0.000   0.000   0.000   0.000  -0.007
  0.000  -0.000   0.000   0.000   0.000   0.000   0.000   0.000   0.004   0.000   0.000  -0.041   0.000   0.002   0.000   0.000
 -0.000   0.000   0.000   0.000   0.000   0.000   0.000   0.000   0.000   0.004   0.000   0.000  -0.043   0.000   0.002   0.000
 -0.000   0.000   0.000   0.000   0.000   0.000   0.000   0.000  -0.011   0.000   0.000   0.002   0.000  -0.003   0.000   0.000
 -0.000  -0.000   0.000   0.000   0.000   0.000   0.000   0.000   0.000  -0.011   0.000   0.000   0.002   0.000  -0.003   0.000
 -0.000   0.002   0.000   0.000   0.000   0.000   0.000   0.000   0.000   0.000  -0.007   0.000   0.000   0.000   0.000  -0.002
  0.000  -0.000   0.000   0.000   0.000   0.000   0.000   0.000   0.002   0.000   0.000  -0.011   0.000   0.001   0.000   0.000
 -0.000   0.000   0.000   0.000   0.000   0.000   0.000   0.000   0.000   0.002   0.000   0.000  -0.011   0.000   0.001   0.000
  0.000   0.000   0.000   0.014  -0.000  -0.000  -0.026  -0.000   0.000   0.000   0.000   0.000   0.000   0.000   0.000   0.000
  0.000   0.000  -0.000  -0.000   0.017  -0.000  -0.000  -0.031   0.000   0.000   0.000   0.000   0.000   0.000   0.000   0.000
  0.000   0.000  -0.006  -0.000  -0.000   0.012  -0.000   0.000   0.000   0.000   0.000   0.000   0.000   0.000   0.000   0.000
  0.000   0.000  -0.000   0.013  -0.000  -0.000  -0.025   0.000   0.000   0.000   0.000   0.000   0.000   0.000   0.000   0.000
  0.000   0.000  -0.000   0.000  -0.006   0.000   0.000   0.012   0.000   0.000   0.000   0.000   0.000   0.000   0.000   0.000
  0.000   0.000   0.017  -0.000  -0.000  -0.031   0.000  -0.000   0.000   0.000   0.000   0.000   0.000   0.000   0.000   0.000
  0.000   0.000  -0.000   0.000  -0.000   0.000  -0.000   0.000   0.000   0.000   0.000   0.000   0.000   0.000   0.000   0.000
  0.000   0.000  -0.000   0.000   0.000   0.000   0.012   0.000   0.000   0.000   0.000   0.000   0.000   0.000   0.000   0.000
  0.000   0.000   0.000   0.000   0.001  -0.000  -0.000   0.013   0.000   0.000   0.000   0.000   0.000   0.000   0.000   0.000
  0.000   0.000  -0.003   0.000   0.000  -0.003   0.000  -0.000   0.000   0.000   0.000   0.000   0.000   0.000   0.000   0.000
  0.000   0.000   0.000  -0.000   0.000  -0.000   0.013  -0.000   0.000   0.000   0.000   0.000   0.000   0.000   0.000   0.000
  0.000   0.000   0.000  -0.000  -0.003  -0.000  -0.000  -0.003   0.000   0.000   0.000   0.000   0.000   0.000   0.000   0.000
  0.000   0.000   0.001   0.000   0.000   0.013  -0.000   0.000   0.000   0.000   0.000   0.000   0.000   0.000   0.000   0.000
  0.000   0.000   0.000   0.000   0.000  -0.000   0.000  -0.000   0.000   0.000   0.000   0.000   0.000   0.000   0.000   0.000


------------------------ aborting loop because EDIFF is reached ----------------------------------------


 


 total charge     
 
# of ion       s       p       d       f       tot
--------------------------------------------------
    1        2.083   5.888   0.611   6.723  15.306
    2        2.083   5.888   0.611   6.722  15.305
    3        1.555   3.408   0.000   0.000   4.963
    4        1.555   3.408   0.000   0.000   4.963
--------------------------------------------------
tot          7.278  18.592   1.223  13.445  40.537

 


 magnetization (x)
 
# of ion       s       p       d       f       tot
--------------------------------------------------
    1        0.006   0.010  -0.103  -6.618  -6.705
    2       -0.006  -0.010   0.103   6.617   6.705
    3        0.000  -0.000   0.000   0.000  -0.000
    4        0.000  -0.000   0.000   0.000  -0.000
--------------------------------------------------
tot          0.000  -0.000   0.000  -0.000  -0.000

 
    CHARGE:  cpu time    1.4702: real time    1.4737
    FORLOC:  cpu time    0.0017: real time    0.0018
    FORNL :  cpu time    7.9318: real time    7.9505
    STRESS:  cpu time   24.7637: real time   24.8220
    FORCOR:  cpu time    0.0438: real time    0.0439
    FORHAR:  cpu time    0.0051: real time    0.0051
    MIXING:  cpu time    0.0025: real time    0.0025
    OFIELD:  cpu time    0.0000: real time    0.0000

  FORCE on cell =-STRESS in cart. coord.  units (eV):
  Direction    XX          YY          ZZ          XY          YZ          ZX
  --------------------------------------------------------------------------------------
  Alpha Z   453.10562   453.10562   453.10562
  Ewald   -1618.06296 -1617.91399 -1617.28146    -0.09855     0.10164     0.13229
  Hartree   459.02022   459.10411   460.13541    -0.05619     0.05322     0.06985
  E(xc)    -244.17996  -244.17973  -244.18800    -0.00014     0.00011     0.00013
  Local     423.52082   423.29099   421.24400     0.15472    -0.14965    -0.19819
  n-local  -226.50023  -226.50019  -226.33191    -0.00203     0.00086     0.00445
  augment    96.41840    96.41953    96.50664    -0.00028    -0.00085    -0.00012
  Kinetic   656.54632   656.54581   656.73045    -0.00027    -0.00176    -0.00427
  Fock        0.00000     0.00000     0.00000     0.00000     0.00000     0.00000
  -------------------------------------------------------------------------------------
  Total      -0.13176    -0.12785    -0.07925    -0.00274     0.00357     0.00416
  in kB      -3.21911    -3.12361    -1.93631    -0.06701     0.08713     0.10156
  external pressure =       -2.76 kB  Pullay stress =        0.00 kB


 VOLUME and BASIS-vectors are now :
 -----------------------------------------------------------------------------
  energy-cutoff  :      520.00
  volume of cell :       65.58
      direct lattice vectors                 reciprocal lattice vectors
    -1.792192109  3.104193840 -0.000015599    -0.278984191  0.161074301 -0.056567418
    -1.792532551 -1.034920145  5.893661408     0.000011162  0.000007297  0.169678488
     1.792274375  3.104169907 -0.000251390     0.278990063  0.161074205  0.113138110

  length of vectors
     3.584406778  6.246557247  3.584427194     0.327073359  0.169678489  0.341438994


 FORCES acting on ions
    electron-ion (+dipol)            ewald-force                    non-local-force                 convergence-correction
 -----------------------------------------------------------------------------------------------
   0.597E-12 0.263E-11 0.405E-11   0.984E-14 -.248E-13 -.568E-13   -.159E-21 0.000E+00 0.171E-22   0.440E-13 -.433E-13 -.120E-12
   -.933E-15 -.275E-13 -.421E-13   -.484E-14 -.528E-14 0.000E+00   0.106E-21 0.000E+00 -.181E-24   0.111E-13 -.182E-13 0.741E-13
   0.167E-02 -.810E-03 0.572E-01   -.174E-03 -.139E-04 -.634E-01   0.174E-03 0.565E-04 -.208E-02   -.166E-02 0.825E-03 0.691E-02
   -.167E-02 0.810E-03 -.572E-01   0.174E-03 0.139E-04 0.634E-01   -.174E-03 -.565E-04 0.208E-02   0.166E-02 -.825E-03 -.691E-02
 -----------------------------------------------------------------------------------------------
   0.269E-11 -.124E-11 0.312E-11   0.889E-14 -.169E-13 0.000E+00   0.271E-19 0.000E+00 0.434E-18   0.341E-13 -.798E-13 -.856E-13
 
 
 POSITION                                       TOTAL-FORCE (eV/Angst)
 -----------------------------------------------------------------------------------
     -1.79236      1.03464      2.94682         0.000000      0.000000     -0.000000
      0.00000      0.00000      0.00000         0.000000     -0.000000     -0.000000
     -1.79241      3.10404      4.42028         0.000009      0.000057     -0.001415
     -0.00004      2.06940      1.47312        -0.000009     -0.000057      0.001415
 -----------------------------------------------------------------------------------
    total drift:                                0.000000     -0.000000      0.000000


--------------------------------------------------------------------------------------------------------



  FREE ENERGIE OF THE ION-ELECTRON SYSTEM (eV)
  ---------------------------------------------------
  free  energy   TOTEN  =       -41.62057656 eV

  energy  without entropy=      -41.62057656  energy(sigma->0) =      -41.62057656
 


--------------------------------------------------------------------------------------------------------


    POTLOK:  cpu time    1.1874: real time    1.1902


--------------------------------------------------------------------------------------------------------


     LOOP+:  cpu time  968.7537: real time  971.1955
    4ORBIT:  cpu time    0.0000: real time    0.0000
 


 total charge     
 
# of ion       s       p       d       f       tot
--------------------------------------------------
    1        2.083   5.888   0.611   6.723  15.306
    2        2.083   5.888   0.611   6.722  15.305
    3        1.555   3.408   0.000   0.000   4.963
    4        1.555   3.408   0.000   0.000   4.963
--------------------------------------------------
tot          7.278  18.592   1.223  13.445  40.537

 


 magnetization (x)
 
# of ion       s       p       d       f       tot
--------------------------------------------------
    1        0.006   0.010  -0.103  -6.618  -6.705
    2       -0.006  -0.010   0.103   6.617   6.705
    3        0.000  -0.000   0.000   0.000  -0.000
    4        0.000  -0.000   0.000   0.000  -0.000
--------------------------------------------------
tot          0.000  -0.000   0.000  -0.000  -0.000

 
 BZINTS: Fermi energy:  4.845601; 46.000000 electrons
         Band energy:-292.014040;  BLOECHL correction: -0.001194

 total amount of memory used by VASP MPI-rank0   147659. kBytes
=======================================================================

   base      :      30000. kBytes
   nonlr-proj:       2393. kBytes
   fftplans  :       1593. kBytes
   grid      :       3859. kBytes
   one-center:         98. kBytes
   wavefun   :     109716. kBytes
 
  
  
 General timing and accounting informations for this job:
 ========================================================
  
                  Total CPU time used (sec):      978.369
                            User time (sec):      975.585
                          System time (sec):        2.784
                         Elapsed time (sec):      981.451
  
                   Maximum memory used (kb):      197384.
                   Average memory used (kb):           0.
  
                          Minor page faults:        78747
                          Major page faults:            0
                 Voluntary context switches:          251
