 vasp.5.4.4.18Apr17-6-g9f103f2a35 (build Apr 28 2018 00:24:27) complex          
  
 executed on             LinuxIFC date 2021.03.28  01:29:28
 running on    8 total cores
 distrk:  each k-point on    8 cores,    1 groups
 distr:  one band on NCORES_PER_BAND=   1 cores,    8 groups


--------------------------------------------------------------------------------------------------------


 INCAR:
 POTCAR:    PAW_PBE Eu 23Dec2003                  
 POTCAR:    PAW_PBE O 08Apr2002                   

 ----------------------------------------------------------------------------- 
|                                                                             |
|           W    W    AA    RRRRR   N    N  II  N    N   GGGG   !!!           |
|           W    W   A  A   R    R  NN   N  II  NN   N  G    G  !!!           |
|           W    W  A    A  R    R  N N  N  II  N N  N  G       !!!           |
|           W WW W  AAAAAA  RRRRR   N  N N  II  N  N N  G  GGG   !            |
|           WW  WW  A    A  R   R   N   NN  II  N   NN  G    G                |
|           W    W  A    A  R    R  N    N  II  N    N   GGGG   !!!           |
|                                                                             |
|      For optimal performance we recommend to set                            |
|        NCORE= 4 - approx SQRT( number of cores)                             |
|      NCORE specifies how many cores store one orbital (NPAR=cpu/NCORE).     |
|      This setting can  greatly improve the performance of VASP for DFT.     |
|      The default,   NCORE=1            might be grossly inefficient         |
|      on modern multi-core architectures or massively parallel machines.     |
|      Do your own testing !!!!                                               |
|      Unfortunately you need to use the default for GW and RPA calculations. |
|      (for HF NCORE is supported but not extensively tested yet)             |
|                                                                             |
 ----------------------------------------------------------------------------- 

 POTCAR:    PAW_PBE Eu 23Dec2003                  
   VRHFIN =Eu : [core=Kr4d]                                                     
   LEXCH  = PE                                                                  
   EATOM  =  2619.8085 eV,  192.5505 Ry                                         
                                                                                
   TITEL  = PAW_PBE Eu 23Dec2003                                                
   LULTRA =        F    use ultrasoft PP ?                                      
   IUNSCR =        1    unscreen: 0-lin 1-nonlin 2-no                           
   RPACOR =    2.300    partial core radius                                     
   POMASS =  151.965; ZVAL   =   17.000    mass and valenz                      
   RCORE  =    2.800    outmost cutoff radius                                   
   RWIGS  =    2.800; RWIGS  =    1.482    wigner-seitz radius (au A)           
   ENMAX  =  249.668; ENMIN  =  187.251 eV                                      
   RCLOC  =    2.308    cutoff for local pot                                    
   LCOR   =        T    correct aug charges                                     
   LPAW   =        T    paw PP                                                  
   EAUG   =  549.628                                                            
   DEXC   =    0.000                                                            
   RMAX   =    2.870    core radius for proj-oper                               
   RAUG   =    1.300    factor for augmentation sphere                          
   RDEP   =    2.887    radius for radial grids                                 
   RDEPT  =    2.221    core radius for aug-charge                              
                                                                                
   Atomic configuration                                                         
   14 entries                                                                   
     n  l   j            E        occ.                                          
     1  0  0.50    -48354.7667   2.0000                                         
     2  0  0.50     -7939.6472   2.0000                                         
     2  1  1.50     -7072.6637   6.0000                                         
     3  0  0.50     -1747.1875   2.0000                                         
     3  1  1.50     -1477.5221   6.0000                                         
     3  2  2.50     -1117.4686  10.0000                                         
     4  0  0.50      -346.8682   2.0000                                         
     4  1  1.50      -258.1962   6.0000                                         
     4  2  2.50      -134.7724  10.0000                                         
     5  0  0.50       -44.6510   2.0000                                         
     6  0  0.50        -3.6227   2.0000                                         
     5  1  1.50       -23.7639   6.0000                                         
     5  2  2.50        -1.3130   0.0000                                         
     4  3  2.50        -2.7310   7.0000                                         
   Description                                                                  
     l       E           TYP  RCUT    TYP  RCUT                                 
     0    -44.6510453     23  2.400                                             
     0     -3.6226685     23  2.400                                             
     1    -23.7638687     23  2.400                                             
     1     27.2116520     23  2.400                                             
     2     -1.3129622     23  2.500                                             
     2     13.6058260     23  2.500                                             
     3     -2.7309948     23  2.800                                             
     3     -3.4014565     23  2.800                                             
  local pseudopotential read in
  partial core-charges read in
  partial kinetic energy density read in
  atomic valenz-charges read in
  non local Contribution for L=           0  read in
    real space projection operators read in
  non local Contribution for L=           0  read in
    real space projection operators read in
  non local Contribution for L=           1  read in
    real space projection operators read in
  non local Contribution for L=           1  read in
    real space projection operators read in
  non local Contribution for L=           2  read in
    real space projection operators read in
  non local Contribution for L=           2  read in
    real space projection operators read in
  non local Contribution for L=           3  read in
    real space projection operators read in
  non local Contribution for L=           3  read in
    real space projection operators read in
    PAW grid and wavefunctions read in
 
   number of l-projection  operators is LMAX  =           8
   number of lm-projection operators is LMMAX =          32
 
 POTCAR:    PAW_PBE O 08Apr2002                   
   VRHFIN =O: s2p4                                                              
   LEXCH  = PE                                                                  
   EATOM  =   432.3788 eV,   31.7789 Ry                                         
                                                                                
   TITEL  = PAW_PBE O 08Apr2002                                                 
   LULTRA =        F    use ultrasoft PP ?                                      
   IUNSCR =        1    unscreen: 0-lin 1-nonlin 2-no                           
   RPACOR =    1.200    partial core radius                                     
   POMASS =   16.000; ZVAL   =    6.000    mass and valenz                      
   RCORE  =    1.520    outmost cutoff radius                                   
   RWIGS  =    1.550; RWIGS  =    0.820    wigner-seitz radius (au A)           
   ENMAX  =  400.000; ENMIN  =  300.000 eV                                      
   ICORE  =        2    local potential                                         
   LCOR   =        T    correct aug charges                                     
   LPAW   =        T    paw PP                                                  
   EAUG   =  605.392                                                            
   DEXC   =    0.000                                                            
   RMAX   =    1.553    core radius for proj-oper                               
   RAUG   =    1.300    factor for augmentation sphere                          
   RDEP   =    1.550    radius for radial grids                                 
   RDEPT  =    1.329    core radius for aug-charge                              
                                                                                
   Atomic configuration                                                         
    4 entries                                                                   
     n  l   j            E        occ.                                          
     1  0  0.50      -514.6923   2.0000                                         
     2  0  0.50       -23.9615   2.0000                                         
     2  1  0.50        -9.0305   4.0000                                         
     3  2  1.50        -9.5241   0.0000                                         
   Description                                                                  
     l       E           TYP  RCUT    TYP  RCUT                                 
     0    -23.9615318     23  1.200                                             
     0     -9.5240782     23  1.200                                             
     1     -9.0304911     23  1.520                                             
     1      8.1634956     23  1.520                                             
     2     -9.5240782      7  1.500                                             
  local pseudopotential read in
  partial core-charges read in
  partial kinetic energy density read in
  kinetic energy density of atom read in
  atomic valenz-charges read in
  non local Contribution for L=           0  read in
    real space projection operators read in
  non local Contribution for L=           0  read in
    real space projection operators read in
  non local Contribution for L=           1  read in
    real space projection operators read in
  non local Contribution for L=           1  read in
    real space projection operators read in
    PAW grid and wavefunctions read in
 
   number of l-projection  operators is LMAX  =           4
   number of lm-projection operators is LMMAX =           8
 

 ----------------------------------------------------------------------------- 
|                                                                             |
|  ADVICE TO THIS USER RUNNING 'VASP/VAMP'   (HEAR YOUR MASTER'S VOICE ...):  |
|                                                                             |
|      You have a (more or less) 'small supercell' and for smaller cells      |
|      it is recommended  to use the reciprocal-space projection scheme!      |
|      The real space optimization is not  efficient for small cells and it   |
|      is also less accurate ...                                              |
|      Therefore set LREAL=.FALSE. in the  INCAR file                         |
|                                                                             |
 ----------------------------------------------------------------------------- 

 Optimization of the real space projectors (new method)

 maximal supplied QI-value         = 13.42
 optimisation between [QCUT,QGAM] = [ 11.67, 23.35] = [ 38.16,152.62] Ry 
 Optimized for a Real-space Cutoff    1.63 Angstroem

   l    n(q)    QCUT    max X(q) W(low)/X(q) W(high)/X(q)  e(spline) 
   0     11    11.673    10.400    0.14E-04    0.18E-05    0.24E-07
   0     11    11.673    10.768    0.21E-04    0.32E-05    0.49E-07
   1     11    11.673     4.094    0.40E-05    0.13E-04    0.93E-07
   1     11    11.673     4.009    0.11E-04    0.46E-04    0.33E-06
   2     10    11.673    29.030    0.79E-04    0.60E-04    0.70E-06
   2     10    11.673    19.941    0.80E-04    0.60E-04    0.71E-06
   3     10    11.673    88.889    0.23E-03    0.29E-03    0.30E-06
   3     10    11.673    76.102    0.23E-03    0.30E-03    0.30E-06
 Optimization of the real space projectors (new method)

 maximal supplied QI-value         = 24.76
 optimisation between [QCUT,QGAM] = [ 11.64, 23.27] = [ 37.91,151.63] Ry 
 Optimized for a Real-space Cutoff    1.14 Angstroem

   l    n(q)    QCUT    max X(q) W(low)/X(q) W(high)/X(q)  e(spline) 
   0      8    11.635    20.381    0.10E-03    0.33E-03    0.24E-06
   0      8    11.635    15.268    0.11E-03    0.35E-03    0.26E-06
   1      7    11.635     5.964    0.24E-03    0.31E-03    0.30E-06
   1      7    11.635     5.382    0.22E-03    0.25E-03    0.26E-06
  PAW_PBE Eu 23Dec2003                  :
 energy of atom  1       EATOM=-2619.8085
 kinetic energy error for atom=    0.0015 (will be added to EATOM!!)
  PAW_PBE O 08Apr2002                   :
 energy of atom  2       EATOM= -432.3788
 kinetic energy error for atom=    0.0208 (will be added to EATOM!!)
 
 
 POSCAR: Eu2 O2                                  
  positions in direct lattice
  No initial velocities read in
 exchange correlation table for  LEXCH =        8
   RHO(1)=    0.500       N(1)  =     2000
   RHO(2)=  100.500       N(2)  =     4000
 


--------------------------------------------------------------------------------------------------------


 ion  position               nearest neighbor table
   1  0.500  0.500  0.000-   3 2.54   4 2.54   3 2.54   4 2.54   4 2.54   3 2.54
   2  0.000  0.000  0.000-   4 2.54   3 2.54   3 2.54   4 2.54   3 2.54   4 2.54
   3  0.750  0.750  0.500-   2 2.54   1 2.54   1 2.54   2 2.54   1 2.54   2 2.54
   4  0.250  0.250  0.500-   1 2.54   2 2.54   1 2.54   2 2.54   2 2.54   1 2.54
 
  LATTYP: Found a base centered monoclinic cell.
 ALAT       =     6.2226772482
 B/A-ratio  =     0.5773362508
 C/A-ratio  =     1.1546938833
 COS(beta)  =    -0.5000199466
  
  Lattice vectors:
  
 A1 = (   1.7963850000,   3.1112790000,   0.0000000000)
 A2 = (   3.5926460000,   0.0000000000,   0.0000000000)
 A3 = (  -3.5927870000,  -2.0742330000,  -5.8666680000)


Analysis of symmetry for initial positions (statically):
=====================================================================
 Subroutine PRICEL returns following result:
 
  LATTYP: Found a trigonal (rhomboedric) cell.
 ALAT       =     3.5926460000
 COS(alpha) =     0.5000199466
  
  Lattice vectors:
  
 A1 = (  -3.5926460000,   0.0000000000,   0.0000000000)
 A2 = (  -1.7963935000,  -1.0371165000,  -2.9333340000)
 A3 = (  -1.7963850000,  -3.1112790000,   0.0000000000)
 
   2 primitive cells build up your supercell.
 

 Routine SETGRP: Setting up the symmetry group for a 
 base centered monoclinic supercell.


 Subroutine GETGRP returns: Found  4 space group operations
 (whereof  4 operations were pure point group operations)
 out of a pool of  4 trial point group operations.


The static configuration has the point symmetry C_2h.


Analysis of symmetry for dynamics (positions and initial velocities):
=====================================================================
 Subroutine PRICEL returns following result:
 
  LATTYP: Found a trigonal (rhomboedric) cell.
 ALAT       =     3.5926460000
 COS(alpha) =     0.5000199466
  
  Lattice vectors:
  
 A1 = (  -3.5926460000,   0.0000000000,   0.0000000000)
 A2 = (  -1.7963935000,  -1.0371165000,  -2.9333340000)
 A3 = (  -1.7963850000,  -3.1112790000,   0.0000000000)
 
   2 primitive cells build up your supercell.
 

 Routine SETGRP: Setting up the symmetry group for a 
 base centered monoclinic supercell.


 Subroutine GETGRP returns: Found  4 space group operations
 (whereof  4 operations were pure point group operations)
 out of a pool of  4 trial point group operations.


The dynamic configuration has the point symmetry C_2h.


Analysis of structural, dynamic, and magnetic symmetry:
=====================================================================
 Subroutine PRICEL returns:
 Original cell was already a primitive cell.
 

 Routine SETGRP: Setting up the symmetry group for a 
 base centered monoclinic supercell.


 Subroutine GETGRP returns: Found  4 space group operations
 (whereof  4 operations were pure point group operations)
 out of a pool of  4 trial point group operations.


The magnetic configuration has the point symmetry C_2h.


 Subroutine INISYM returns: Found  4 space group operations
 (whereof  4 operations are pure point group operations),
 and found     1 'primitive' translations

 
 
 KPOINTS: pymatgen v2019.10.16 with grid density =

Automatic generation of k-mesh.
Space group operators:
 irot       det(A)        alpha          n_x          n_y          n_z        tau_x        tau_y        tau_z
    1     1.000000     0.000000     1.000000     0.000000     0.000000     0.000000     0.000000     0.000000
    2    -1.000000     0.000000     1.000000     0.000000     0.000000     0.000000     0.000000     0.000000
    3     1.000000   180.000000    -0.499990     0.866031     0.000002     0.000000     0.000000     0.000000
    4    -1.000000   180.000000    -0.499990     0.866031     0.000002     0.000000     0.000000     0.000000
 
 Subroutine IBZKPT returns following result:
 ===========================================
 
 Found     93 irreducible k-points:
 
 Following reciprocal coordinates:
            Coordinates               Weight
  0.000000  0.000000  0.000000      1.000000
  0.125000 -0.000000  0.000000      4.000000
  0.250000 -0.000000  0.000000      4.000000
  0.375000 -0.000000  0.000000      4.000000
  0.500000 -0.000000  0.000000      2.000000
  0.000000  0.200000  0.000000      2.000000
  0.125000  0.200000  0.000000      4.000000
  0.250000  0.200000  0.000000      4.000000
  0.375000  0.200000  0.000000      4.000000
  0.500000  0.200000  0.000000      4.000000
 -0.375000  0.200000 -0.000000      4.000000
 -0.250000  0.200000 -0.000000      4.000000
 -0.125000  0.200000 -0.000000      4.000000
  0.000000  0.400000  0.000000      2.000000
  0.125000  0.400000  0.000000      4.000000
  0.250000  0.400000  0.000000      4.000000
  0.375000  0.400000  0.000000      4.000000
  0.500000  0.400000  0.000000      4.000000
 -0.375000  0.400000 -0.000000      4.000000
 -0.250000  0.400000 -0.000000      4.000000
 -0.125000  0.400000 -0.000000      4.000000
  0.000000  0.000000  0.125000      2.000000
  0.250000  0.000000  0.125000      2.000000
  0.375000  0.000000  0.125000      4.000000
  0.500000  0.000000  0.125000      4.000000
 -0.375000  0.000000  0.125000      4.000000
 -0.250000  0.000000  0.125000      4.000000
 -0.125000  0.000000  0.125000      4.000000
  0.000000  0.200000  0.125000      2.000000
  0.250000  0.200000  0.125000      4.000000
  0.375000  0.200000  0.125000      4.000000
  0.500000  0.200000  0.125000      4.000000
 -0.375000  0.200000  0.125000      4.000000
 -0.250000  0.200000  0.125000      4.000000
 -0.125000  0.200000  0.125000      4.000000
  0.000000  0.400000  0.125000      2.000000
  0.250000  0.400000  0.125000      4.000000
  0.375000  0.400000  0.125000      4.000000
  0.500000  0.400000  0.125000      4.000000
 -0.375000  0.400000  0.125000      4.000000
 -0.250000  0.400000  0.125000      4.000000
 -0.125000  0.400000  0.125000      4.000000
  0.000000 -0.400000  0.125000      2.000000
  0.375000 -0.400000  0.125000      4.000000
  0.500000 -0.400000  0.125000      4.000000
 -0.375000 -0.400000  0.125000      4.000000
 -0.250000 -0.400000  0.125000      4.000000
 -0.125000 -0.400000  0.125000      4.000000
  0.000000 -0.200000  0.125000      2.000000
  0.375000 -0.200000  0.125000      4.000000
  0.500000 -0.200000  0.125000      4.000000
 -0.375000 -0.200000  0.125000      4.000000
 -0.250000 -0.200000  0.125000      4.000000
 -0.125000 -0.200000  0.125000      4.000000
  0.000000  0.000000  0.250000      2.000000
  0.500000  0.000000  0.250000      2.000000
 -0.375000 -0.000000  0.250000      4.000000
 -0.250000  0.000000  0.250000      4.000000
 -0.125000 -0.000000  0.250000      4.000000
  0.000000  0.200000  0.250000      2.000000
  0.500000  0.200000  0.250000      4.000000
 -0.375000  0.200000  0.250000      4.000000
 -0.250000  0.200000  0.250000      4.000000
 -0.125000  0.200000  0.250000      4.000000
  0.000000  0.400000  0.250000      2.000000
  0.500000  0.400000  0.250000      4.000000
 -0.375000  0.400000  0.250000      4.000000
 -0.250000  0.400000  0.250000      4.000000
 -0.125000  0.400000  0.250000      4.000000
  0.000000 -0.400000  0.250000      2.000000
 -0.375000 -0.400000  0.250000      4.000000
 -0.250000 -0.400000  0.250000      4.000000
 -0.125000 -0.400000  0.250000      4.000000
  0.000000 -0.200000  0.250000      2.000000
 -0.375000 -0.200000  0.250000      4.000000
 -0.250000 -0.200000  0.250000      4.000000
 -0.125000 -0.200000  0.250000      4.000000
  0.000000  0.000000  0.375000      2.000000
 -0.250000  0.000000  0.375000      2.000000
 -0.125000  0.000000  0.375000      4.000000
  0.000000  0.200000  0.375000      2.000000
 -0.250000  0.200000  0.375000      4.000000
 -0.125000  0.200000  0.375000      4.000000
  0.000000  0.400000  0.375000      2.000000
 -0.250000  0.400000  0.375000      4.000000
 -0.125000  0.400000  0.375000      4.000000
  0.000000 -0.400000  0.375000      2.000000
 -0.125000 -0.400000  0.375000      4.000000
  0.000000 -0.200000  0.375000      2.000000
 -0.125000 -0.200000  0.375000      4.000000
  0.000000  0.000000  0.500000      1.000000
  0.000000  0.200000  0.500000      2.000000
  0.000000  0.400000  0.500000      2.000000
 
 Following cartesian coordinates:
            Coordinates               Weight
  0.000000  0.000000  0.000000      1.000000
 -0.034793  0.020089 -0.007102      4.000000
 -0.069587  0.040178 -0.014204      4.000000
 -0.104380  0.060267 -0.021306      4.000000
 -0.139173  0.080356 -0.028407      2.000000
  0.000000  0.000000  0.034091      2.000000
 -0.034793  0.020089  0.026989      4.000000
 -0.069587  0.040178  0.019887      4.000000
 -0.104380  0.060267  0.012785      4.000000
 -0.139173  0.080356  0.005684      4.000000
  0.104380 -0.060267  0.055396      4.000000
  0.069587 -0.040178  0.048295      4.000000
  0.034793 -0.020089  0.041193      4.000000
  0.000000  0.000000  0.068182      2.000000
 -0.034793  0.020089  0.061080      4.000000
 -0.069587  0.040178  0.053978      4.000000
 -0.104380  0.060267  0.046876      4.000000
 -0.139173  0.080356  0.039774      4.000000
  0.104380 -0.060267  0.089487      4.000000
  0.069587 -0.040178  0.082385      4.000000
  0.034793 -0.020089  0.075284      4.000000
  0.034793  0.020088  0.014204      2.000000
 -0.034793  0.060265  0.000000      2.000000
 -0.069587  0.080354 -0.007102      4.000000
 -0.104380  0.100443 -0.014204      4.000000
  0.139173 -0.040179  0.035509      4.000000
  0.104380 -0.020090  0.028407      4.000000
  0.069587 -0.000001  0.021306      4.000000
  0.034793  0.020088  0.048295      2.000000
 -0.034793  0.060265  0.034091      4.000000
 -0.069587  0.080354  0.026989      4.000000
 -0.104380  0.100443  0.019887      4.000000
  0.139173 -0.040179  0.069600      4.000000
  0.104380 -0.020090  0.062498      4.000000
  0.069587 -0.000001  0.055397      4.000000
  0.034793  0.020088  0.082386      2.000000
 -0.034793  0.060265  0.068182      4.000000
 -0.069587  0.080354  0.061080      4.000000
 -0.104380  0.100443  0.053978      4.000000
  0.139173 -0.040179  0.103691      4.000000
  0.104380 -0.020090  0.096589      4.000000
  0.069587 -0.000001  0.089487      4.000000
  0.034793  0.020088 -0.053978      2.000000
 -0.069587  0.080354 -0.075284      4.000000
 -0.104380  0.100443 -0.082385      4.000000
  0.139173 -0.040179 -0.032672      4.000000
  0.104380 -0.020090 -0.039774      4.000000
  0.069587 -0.000001 -0.046876      4.000000
  0.034793  0.020088 -0.019887      2.000000
 -0.069587  0.080354 -0.041193      4.000000
 -0.104380  0.100443 -0.048294      4.000000
  0.139173 -0.040179  0.001418      4.000000
  0.104380 -0.020090 -0.005683      4.000000
  0.069587 -0.000001 -0.012785      4.000000
  0.069587  0.040175  0.028408      2.000000
 -0.069587  0.120531  0.000000      2.000000
  0.173966 -0.020092  0.049713      4.000000
  0.139173 -0.000003  0.042611      4.000000
  0.104380  0.020086  0.035509      4.000000
  0.069587  0.040175  0.062498      2.000000
 -0.069587  0.120531  0.034091      4.000000
  0.173966 -0.020092  0.083804      4.000000
  0.139173 -0.000003  0.076702      4.000000
  0.104380  0.020086  0.069600      4.000000
  0.069587  0.040175  0.096589      2.000000
 -0.069587  0.120531  0.068182      4.000000
  0.173966 -0.020092  0.117895      4.000000
  0.139173 -0.000003  0.110793      4.000000
  0.104380  0.020086  0.103691      4.000000
  0.069587  0.040175 -0.039774      2.000000
  0.173966 -0.020092 -0.018469      4.000000
  0.139173 -0.000003 -0.025571      4.000000
  0.104380  0.020086 -0.032672      4.000000
  0.069587  0.040175 -0.005683      2.000000
  0.173966 -0.020092  0.015622      4.000000
  0.139173 -0.000003  0.008520      4.000000
  0.104380  0.020086  0.001419      4.000000
  0.104380  0.060263  0.042611      2.000000
  0.173966  0.020085  0.056815      2.000000
  0.139173  0.040174  0.049713      4.000000
  0.104380  0.060263  0.076702      2.000000
  0.173966  0.020085  0.090906      4.000000
  0.139173  0.040174  0.083804      4.000000
  0.104380  0.060263  0.110793      2.000000
  0.173966  0.020085  0.124997      4.000000
  0.139173  0.040174  0.117895      4.000000
  0.104380  0.060263 -0.025570      2.000000
  0.139173  0.040174 -0.018469      4.000000
  0.104380  0.060263  0.008520      2.000000
  0.139173  0.040174  0.015622      4.000000
  0.139173  0.080350  0.056815      1.000000
  0.139173  0.080350  0.090906      2.000000
  0.139173  0.080350  0.124997      2.000000
 
 TETIRR: Found    949 inequivalent tetrahedra from     1920


--------------------------------------------------------------------------------------------------------




 Dimension of arrays:
   k-points           NKPTS =     93   k-points in BZ     NKDIM =     93   number of bands    NBANDS=     32
   number of dos      NEDOS =    301   number of ions     NIONS =      4
   non local maximal  LDIM  =      8   non local SUM 2l+1 LMDIM =     32
   total plane-waves  NPLWV =  37632
   max r-space proj   IRMAX =  10407   max aug-charges    IRDMAX=  33003
   dimension x,y,z NGX =    28 NGY =   48 NGZ =   28
   dimension x,y,z NGXF=    56 NGYF=   96 NGZF=   56
   support grid    NGXF=    56 NGYF=   96 NGZF=   56
   ions per type =               2   2
   NGX,Y,Z   is equivalent  to a cutoff of  12.96, 12.82, 12.96 a.u.
   NGXF,Y,Z  is equivalent  to a cutoff of  25.91, 25.65, 25.91 a.u.

 SYSTEM =  unknown system                          
 POSCAR =  Eu2 O2                                  

 Startparameter for this run:
   NWRITE =      2    write-flag & timer
   PREC   = accura    normal or accurate (medium, high low for compatibility)
   ISTART =      0    job   : 0-new  1-cont  2-samecut
   ICHARG =      0    charge: 1-file 2-atom 10-const
   ISPIN  =      2    spin polarized calculation?
   LNONCOLLINEAR =      F non collinear calculations
   LSORBIT =      F    spin-orbit coupling
   INIWAV =      1    electr: 0-lowe 1-rand  2-diag
   LASPH  =      F    aspherical Exc in radial PAW
   METAGGA=      F    non-selfconsistent MetaGGA calc.

 Electronic Relaxation 1
   ENCUT  =  520.0 eV  38.22 Ry    6.18 a.u.   6.68 11.57  6.68*2*pi/ulx,y,z
   ENINI  =  520.0     initial cutoff
   ENAUG  =  605.4 eV  augmentation charge cutoff
   NELM   =    100;   NELMIN=  2; NELMDL= -5     # of ELM steps 
   EDIFF  = 0.2E-03   stopping-criterion for ELM
   LREAL  =      T    real-space projection
   NLSPLINE    = F    spline interpolate recip. space projectors
   LCOMPAT=      F    compatible to vasp.4.4
   GGA_COMPAT  = T    GGA compatible to vasp.4.4-vasp.4.6
   LMAXPAW     = -100 max onsite density
   LMAXMIX     =    2 max onsite mixed and CHGCAR
   VOSKOWN=      0    Vosko Wilk Nusair interpolation
   ROPT   =   -0.00025  -0.00025
 Ionic relaxation
   EDIFFG = 0.2E-02   stopping-criterion for IOM
   NSW    =      0    number of steps for IOM
   NBLOCK =      1;   KBLOCK =      1    inner block; outer block 
   IBRION =     -1    ionic relax: 0-MD 1-quasi-New 2-CG
   NFREE  =      0    steps in history (QN), initial steepest desc. (CG)
   ISIF   =      3    stress and relaxation
   IWAVPR =     10    prediction:  0-non 1-charg 2-wave 3-comb
   ISYM   =      2    0-nonsym 1-usesym 2-fastsym
   LCORR  =      T    Harris-Foulkes like correction to forces

   POTIM  = 0.5000    time-step for ionic-motion
   TEIN   =    0.0    initial temperature
   TEBEG  =    0.0;   TEEND  =   0.0 temperature during run
   SMASS  =  -3.00    Nose mass-parameter (am)
   estimated Nose-frequenzy (Omega)   =  0.10E-29 period in steps =****** mass=  -0.295E-27a.u.
   SCALEE = 1.0000    scale energy and forces
   NPACO  =    256;   APACO  = 16.0  distance and # of slots for P.C.
   PSTRESS=    0.0 pullay stress

  Mass of Ions in am
   POMASS = 151.97 16.00
  Ionic Valenz
   ZVAL   =  17.00  6.00
  Atomic Wigner-Seitz radii
   RWIGS  =  -1.00 -1.00
  virtual crystal weights 
   VCA    =   1.00  1.00
   NELECT =      46.0000    total number of electrons
   NUPDOWN=      -1.0000    fix difference up-down

 DOS related values:
   EMIN   =  10.00;   EMAX   =-10.00  energy-range for DOS
   EFERMI =   0.00
   ISMEAR =    -5;   SIGMA  =   0.05  broadening in eV -4-tet -1-fermi 0-gaus

 Electronic relaxation 2 (details)
   IALGO  =     38    algorithm
   LDIAG  =      T    sub-space diagonalisation (order eigenvalues)
   LSUBROT=      F    optimize rotation matrix (better conditioning)
   TURBO    =      0    0=normal 1=particle mesh
   IRESTART =      0    0=no restart 2=restart with 2 vectors
   NREBOOT  =      0    no. of reboots
   NMIN     =      0    reboot dimension
   EREF     =   0.00    reference energy to select bands
   IMIX   =      4    mixing-type and parameters
     AMIX     =   0.40;   BMIX     =  1.00
     AMIX_MAG =   1.60;   BMIX_MAG =  1.00
     AMIN     =   0.10
     WC   =   100.;   INIMIX=   1;  MIXPRE=   1;  MAXMIX= -45

 Intra band minimization:
   WEIMIN = 0.0000     energy-eigenvalue tresh-hold
   EBREAK =  0.16E-05  absolut break condition
   DEPER  =   0.30     relativ break condition  

   TIME   =   0.40     timestep for ELM

  volume/ion in A,a.u.               =      16.39       110.63
  Fermi-wavevector in a.u.,A,eV,Ry     =   1.454607  2.748810 28.788334  2.115883
  Thomas-Fermi vector in A             =   2.571738
 
 Write flags
   LWAVE        =      F    write WAVECAR
   LDOWNSAMPLE  =      F    k-point downsampling of WAVECAR
   LCHARG       =      T    write CHGCAR
   LVTOT        =      F    write LOCPOT, total local potential
   LVHAR        =      T    write LOCPOT, Hartree potential only
   LELF         =      F    write electronic localiz. function (ELF)
   LORBIT       =     11    0 simple, 1 ext, 2 COOP (PROOUT), +10 PAW based schemes


 Dipole corrections
   LMONO  =      F    monopole corrections only (constant potential shift)
   LDIPOL =      F    correct potential (dipole corrections)
   IDIPOL =      0    1-x, 2-y, 3-z, 4-all directions 
   EPSILON=  1.0000000 bulk dielectric constant

 Exchange correlation treatment:
   GGA     =    --    GGA type
   LEXCH   =     8    internal setting for exchange type
   VOSKOWN=      0    Vosko Wilk Nusair interpolation
   LHFCALC =     F    Hartree Fock is set to
   LHFONE  =     F    Hartree Fock one center treatment
   AEXX    =    0.0000 exact exchange contribution

 Linear response parameters
   LEPSILON=     F    determine dielectric tensor
   LRPA    =     F    only Hartree local field effects (RPA)
   LNABLA  =     F    use nabla operator in PAW spheres
   LVEL    =     F    velocity operator in full k-point grid
   LINTERFAST=   F  fast interpolation
   KINTER  =     0    interpolate to denser k-point grid
   CSHIFT  =0.1000    complex shift for real part using Kramers Kronig
   OMEGAMAX=  -1.0    maximum frequency
   DEG_THRESHOLD= 0.2000000E-02 threshold for treating states as degnerate
   RTIME   =   -0.100 relaxation time in fs
  (WPLASMAI=    0.000 imaginary part of plasma frequency in eV, 0.658/RTIME)
   DFIELD  = 0.0000000 0.0000000 0.0000000 field for delta impulse in time
 
 Orbital magnetization related:
   ORBITALMAG=     F  switch on orbital magnetization
   LCHIMAG   =     F  perturbation theory with respect to B field
   DQ        =  0.001000  dq finite difference perturbation B field
   LLRAUG    =     F  two centre corrections for induced B field



--------------------------------------------------------------------------------------------------------


 Static calculation
 charge density and potential will be updated during run
 spin polarized calculation
 Variant of blocked Davidson
 Davidson routine will perform the subspace rotation
 perform sub-space diagonalisation
    after iterative eigenvector-optimisation
 modified Broyden-mixing scheme, WC =      100.0
 initial mixing is a Kerker type mixing with AMIX =  0.4000 and BMIX =      1.0000
 Hartree-type preconditioning will be used
 using additional bands            9
 real space projection scheme for non local part
 use partial core corrections
 calculate Harris-corrections to forces 
   (improved forces if not selfconsistent)
 use gradient corrections 
 use of overlap-Matrix (Vanderbilt PP)
 Fermi weights with tetrahedron method with Bloechl corrections


--------------------------------------------------------------------------------------------------------


  energy-cutoff  :      520.00
  volume of cell :       65.58
      direct lattice vectors                 reciprocal lattice vectors
    -1.796261000  3.111279000  0.000000000    -0.278346378  0.160711160 -0.056814728
    -1.796244000 -1.037046000  5.866668000     0.000000000  0.000000000  0.170454507
     1.796385000  3.111279000  0.000000000     0.278346378  0.160700067  0.113630322

  length of vectors
     3.592577152  6.222519613  3.592639153     0.326393468  0.170454507  0.340900377


 
 k-points in units of 2pi/SCALE and weight: pymatgen v2019.10.16 with grid density =
   0.00000000  0.00000000  0.00000000       0.003
  -0.03479330  0.02008890 -0.00710184       0.013
  -0.06958659  0.04017779 -0.01420368       0.013
  -0.10437989  0.06026669 -0.02130552       0.013
  -0.13917319  0.08035558 -0.02840736       0.006
   0.00000000  0.00000000  0.03409090       0.006
  -0.03479330  0.02008890  0.02698906       0.013
  -0.06958659  0.04017779  0.01988722       0.013
  -0.10437989  0.06026669  0.01278538       0.013
  -0.13917319  0.08035558  0.00568354       0.013
   0.10437989 -0.06026669  0.05539642       0.013
   0.06958659 -0.04017779  0.04829458       0.013
   0.03479330 -0.02008890  0.04119274       0.013
   0.00000000  0.00000000  0.06818180       0.006
  -0.03479330  0.02008890  0.06107996       0.013
  -0.06958659  0.04017779  0.05397812       0.013
  -0.10437989  0.06026669  0.04687628       0.013
  -0.13917319  0.08035558  0.03977444       0.013
   0.10437989 -0.06026669  0.08948733       0.013
   0.06958659 -0.04017779  0.08238548       0.013
   0.03479330 -0.02008890  0.07528364       0.013
   0.03479330  0.02008751  0.01420379       0.006
  -0.03479330  0.06026530  0.00000011       0.006
  -0.06958659  0.08035419 -0.00710173       0.013
  -0.10437989  0.10044309 -0.01420357       0.013
   0.13917319 -0.04017918  0.03550931       0.013
   0.10437989 -0.02009028  0.02840747       0.013
   0.06958659 -0.00000139  0.02130563       0.013
   0.03479330  0.02008751  0.04829469       0.006
  -0.03479330  0.06026530  0.03409101       0.013
  -0.06958659  0.08035419  0.02698917       0.013
  -0.10437989  0.10044309  0.01988733       0.013
   0.13917319 -0.04017918  0.06960021       0.013
   0.10437989 -0.02009028  0.06249837       0.013
   0.06958659 -0.00000139  0.05539653       0.013
   0.03479330  0.02008751  0.08238559       0.006
  -0.03479330  0.06026530  0.06818191       0.013
  -0.06958659  0.08035419  0.06108007       0.013
  -0.10437989  0.10044309  0.05397823       0.013
   0.13917319 -0.04017918  0.10369112       0.013
   0.10437989 -0.02009028  0.09658927       0.013
   0.06958659 -0.00000139  0.08948743       0.013
   0.03479330  0.02008751 -0.05397801       0.006
  -0.06958659  0.08035419 -0.07528354       0.013
  -0.10437989  0.10044309 -0.08238538       0.013
   0.13917319 -0.04017918 -0.03267249       0.013
   0.10437989 -0.02009028 -0.03977433       0.013
   0.06958659 -0.00000139 -0.04687617       0.013
   0.03479330  0.02008751 -0.01988711       0.006
  -0.06958659  0.08035419 -0.04119263       0.013
  -0.10437989  0.10044309 -0.04829447       0.013
   0.13917319 -0.04017918  0.00141841       0.013
   0.10437989 -0.02009028 -0.00568343       0.013
   0.06958659 -0.00000139 -0.01278527       0.013
   0.06958659  0.04017502  0.02840758       0.006
  -0.06958659  0.12053060  0.00000022       0.006
   0.17396649 -0.02009167  0.04971310       0.013
   0.13917319 -0.00000277  0.04261126       0.013
   0.10437989  0.02008612  0.03550942       0.013
   0.06958659  0.04017502  0.06249848       0.006
  -0.06958659  0.12053060  0.03409112       0.013
   0.17396649 -0.02009167  0.08380400       0.013
   0.13917319 -0.00000277  0.07670216       0.013
   0.10437989  0.02008612  0.06960032       0.013
   0.06958659  0.04017502  0.09658938       0.006
  -0.06958659  0.12053060  0.06818202       0.013
   0.17396649 -0.02009167  0.11789491       0.013
   0.13917319 -0.00000277  0.11079307       0.013
   0.10437989  0.02008612  0.10369122       0.013
   0.06958659  0.04017502 -0.03977422       0.006
   0.17396649 -0.02009167 -0.01846870       0.013
   0.13917319 -0.00000277 -0.02557054       0.013
   0.10437989  0.02008612 -0.03267238       0.013
   0.06958659  0.04017502 -0.00568332       0.006
   0.17396649 -0.02009167  0.01562220       0.013
   0.13917319 -0.00000277  0.00852036       0.013
   0.10437989  0.02008612  0.00141852       0.013
   0.10437989  0.06026252  0.04261137       0.006
   0.17396649  0.02008473  0.05681505       0.006
   0.13917319  0.04017363  0.04971321       0.013
   0.10437989  0.06026252  0.07670227       0.006
   0.17396649  0.02008473  0.09090595       0.013
   0.13917319  0.04017363  0.08380411       0.013
   0.10437989  0.06026252  0.11079317       0.006
   0.17396649  0.02008473  0.12499686       0.013
   0.13917319  0.04017363  0.11789501       0.013
   0.10437989  0.06026252 -0.02557043       0.006
   0.13917319  0.04017363 -0.01846859       0.013
   0.10437989  0.06026252  0.00852047       0.006
   0.13917319  0.04017363  0.01562231       0.013
   0.13917319  0.08035003  0.05681516       0.003
   0.13917319  0.08035003  0.09090606       0.006
   0.13917319  0.08035003  0.12499696       0.006
 
 k-points in reciprocal lattice and weights: pymatgen v2019.10.16 with grid density =
   0.00000000  0.00000000  0.00000000       0.003
   0.12500000 -0.00000000  0.00000000       0.013
   0.25000000 -0.00000000  0.00000000       0.013
   0.37500000 -0.00000000  0.00000000       0.013
   0.50000000 -0.00000000  0.00000000       0.006
   0.00000000  0.20000000  0.00000000       0.006
   0.12500000  0.20000000  0.00000000       0.013
   0.25000000  0.20000000  0.00000000       0.013
   0.37500000  0.20000000  0.00000000       0.013
   0.50000000  0.20000000  0.00000000       0.013
  -0.37500000  0.20000000 -0.00000000       0.013
  -0.25000000  0.20000000 -0.00000000       0.013
  -0.12500000  0.20000000 -0.00000000       0.013
   0.00000000  0.40000000  0.00000000       0.006
   0.12500000  0.40000000  0.00000000       0.013
   0.25000000  0.40000000  0.00000000       0.013
   0.37500000  0.40000000  0.00000000       0.013
   0.50000000  0.40000000  0.00000000       0.013
  -0.37500000  0.40000000 -0.00000000       0.013
  -0.25000000  0.40000000 -0.00000000       0.013
  -0.12500000  0.40000000 -0.00000000       0.013
   0.00000000  0.00000000  0.12500000       0.006
   0.25000000  0.00000000  0.12500000       0.006
   0.37500000  0.00000000  0.12500000       0.013
   0.50000000  0.00000000  0.12500000       0.013
  -0.37500000  0.00000000  0.12500000       0.013
  -0.25000000  0.00000000  0.12500000       0.013
  -0.12500000  0.00000000  0.12500000       0.013
   0.00000000  0.20000000  0.12500000       0.006
   0.25000000  0.20000000  0.12500000       0.013
   0.37500000  0.20000000  0.12500000       0.013
   0.50000000  0.20000000  0.12500000       0.013
  -0.37500000  0.20000000  0.12500000       0.013
  -0.25000000  0.20000000  0.12500000       0.013
  -0.12500000  0.20000000  0.12500000       0.013
   0.00000000  0.40000000  0.12500000       0.006
   0.25000000  0.40000000  0.12500000       0.013
   0.37500000  0.40000000  0.12500000       0.013
   0.50000000  0.40000000  0.12500000       0.013
  -0.37500000  0.40000000  0.12500000       0.013
  -0.25000000  0.40000000  0.12500000       0.013
  -0.12500000  0.40000000  0.12500000       0.013
   0.00000000 -0.40000000  0.12500000       0.006
   0.37500000 -0.40000000  0.12500000       0.013
   0.50000000 -0.40000000  0.12500000       0.013
  -0.37500000 -0.40000000  0.12500000       0.013
  -0.25000000 -0.40000000  0.12500000       0.013
  -0.12500000 -0.40000000  0.12500000       0.013
   0.00000000 -0.20000000  0.12500000       0.006
   0.37500000 -0.20000000  0.12500000       0.013
   0.50000000 -0.20000000  0.12500000       0.013
  -0.37500000 -0.20000000  0.12500000       0.013
  -0.25000000 -0.20000000  0.12500000       0.013
  -0.12500000 -0.20000000  0.12500000       0.013
   0.00000000  0.00000000  0.25000000       0.006
   0.50000000  0.00000000  0.25000000       0.006
  -0.37500000 -0.00000000  0.25000000       0.013
  -0.25000000  0.00000000  0.25000000       0.013
  -0.12500000 -0.00000000  0.25000000       0.013
   0.00000000  0.20000000  0.25000000       0.006
   0.50000000  0.20000000  0.25000000       0.013
  -0.37500000  0.20000000  0.25000000       0.013
  -0.25000000  0.20000000  0.25000000       0.013
  -0.12500000  0.20000000  0.25000000       0.013
   0.00000000  0.40000000  0.25000000       0.006
   0.50000000  0.40000000  0.25000000       0.013
  -0.37500000  0.40000000  0.25000000       0.013
  -0.25000000  0.40000000  0.25000000       0.013
  -0.12500000  0.40000000  0.25000000       0.013
   0.00000000 -0.40000000  0.25000000       0.006
  -0.37500000 -0.40000000  0.25000000       0.013
  -0.25000000 -0.40000000  0.25000000       0.013
  -0.12500000 -0.40000000  0.25000000       0.013
   0.00000000 -0.20000000  0.25000000       0.006
  -0.37500000 -0.20000000  0.25000000       0.013
  -0.25000000 -0.20000000  0.25000000       0.013
  -0.12500000 -0.20000000  0.25000000       0.013
   0.00000000  0.00000000  0.37500000       0.006
  -0.25000000  0.00000000  0.37500000       0.006
  -0.12500000  0.00000000  0.37500000       0.013
   0.00000000  0.20000000  0.37500000       0.006
  -0.25000000  0.20000000  0.37500000       0.013
  -0.12500000  0.20000000  0.37500000       0.013
   0.00000000  0.40000000  0.37500000       0.006
  -0.25000000  0.40000000  0.37500000       0.013
  -0.12500000  0.40000000  0.37500000       0.013
   0.00000000 -0.40000000  0.37500000       0.006
  -0.12500000 -0.40000000  0.37500000       0.013
   0.00000000 -0.20000000  0.37500000       0.006
  -0.12500000 -0.20000000  0.37500000       0.013
   0.00000000  0.00000000  0.50000000       0.003
   0.00000000  0.20000000  0.50000000       0.006
   0.00000000  0.40000000  0.50000000       0.006
 
 position of ions in fractional coordinates (direct lattice) 
   0.50000000  0.50000000  0.00000000
   0.00000000  0.00000000  0.00000000
   0.75000000  0.75000000  0.50000000
   0.25000000  0.25000000  0.50000000
 
 position of ions in cartesian coordinates  (Angst):
  -1.79625250  1.03711650  2.93333400
   0.00000000  0.00000000  0.00000000
  -1.79618625  3.11131425  4.40000100
   0.00006625  2.07419775  1.46666700
 


--------------------------------------------------------------------------------------------------------


 k-point  1 :   0.0000 0.0000 0.0000  plane waves:    1779
 k-point  2 :   0.1250-0.0000 0.0000  plane waves:    1775
 k-point  3 :   0.2500-0.0000 0.0000  plane waves:    1759
 k-point  4 :   0.3750-0.0000 0.0000  plane waves:    1765
 k-point  5 :   0.5000-0.0000 0.0000  plane waves:    1776
 k-point  6 :   0.0000 0.2000 0.0000  plane waves:    1774
 k-point  7 :   0.1250 0.2000 0.0000  plane waves:    1791
 k-point  8 :   0.2500 0.2000 0.0000  plane waves:    1774
 k-point  9 :   0.3750 0.2000 0.0000  plane waves:    1768
 k-point 10 :   0.5000 0.2000 0.0000  plane waves:    1765
 k-point 11 :  -0.3750 0.2000-0.0000  plane waves:    1762
 k-point 12 :  -0.2500 0.2000-0.0000  plane waves:    1766
 k-point 13 :  -0.1250 0.2000-0.0000  plane waves:    1774
 k-point 14 :   0.0000 0.4000 0.0000  plane waves:    1789
 k-point 15 :   0.1250 0.4000 0.0000  plane waves:    1771
 k-point 16 :   0.2500 0.4000 0.0000  plane waves:    1764
 k-point 17 :   0.3750 0.4000 0.0000  plane waves:    1765
 k-point 18 :   0.5000 0.4000 0.0000  plane waves:    1764
 k-point 19 :  -0.3750 0.4000-0.0000  plane waves:    1760
 k-point 20 :  -0.2500 0.4000-0.0000  plane waves:    1761
 k-point 21 :  -0.1250 0.4000-0.0000  plane waves:    1768
 k-point 22 :   0.0000 0.0000 0.1250  plane waves:    1782
 k-point 23 :   0.2500 0.0000 0.1250  plane waves:    1785
 k-point 24 :   0.3750 0.0000 0.1250  plane waves:    1766
 k-point 25 :   0.5000 0.0000 0.1250  plane waves:    1767
 k-point 26 :  -0.3750 0.0000 0.1250  plane waves:    1756
 k-point 27 :  -0.2500 0.0000 0.1250  plane waves:    1765
 k-point 28 :  -0.1250 0.0000 0.1250  plane waves:    1773
 k-point 29 :   0.0000 0.2000 0.1250  plane waves:    1785
 k-point 30 :   0.2500 0.2000 0.1250  plane waves:    1769
 k-point 31 :   0.3750 0.2000 0.1250  plane waves:    1771
 k-point 32 :   0.5000 0.2000 0.1250  plane waves:    1764
 k-point 33 :  -0.3750 0.2000 0.1250  plane waves:    1763
 k-point 34 :  -0.2500 0.2000 0.1250  plane waves:    1757
 k-point 35 :  -0.1250 0.2000 0.1250  plane waves:    1766
 k-point 36 :   0.0000 0.4000 0.1250  plane waves:    1766
 k-point 37 :   0.2500 0.4000 0.1250  plane waves:    1759
 k-point 38 :   0.3750 0.4000 0.1250  plane waves:    1760
 k-point 39 :   0.5000 0.4000 0.1250  plane waves:    1763
 k-point 40 :  -0.3750 0.4000 0.1250  plane waves:    1767
 k-point 41 :  -0.2500 0.4000 0.1250  plane waves:    1761
 k-point 42 :  -0.1250 0.4000 0.1250  plane waves:    1764
 k-point 43 :   0.0000-0.4000 0.1250  plane waves:    1776
 k-point 44 :   0.3750-0.4000 0.1250  plane waves:    1761
 k-point 45 :   0.5000-0.4000 0.1250  plane waves:    1763
 k-point 46 :  -0.3750-0.4000 0.1250  plane waves:    1761
 k-point 47 :  -0.2500-0.4000 0.1250  plane waves:    1770
 k-point 48 :  -0.1250-0.4000 0.1250  plane waves:    1768
 k-point 49 :   0.0000-0.2000 0.1250  plane waves:    1773
 k-point 50 :   0.3750-0.2000 0.1250  plane waves:    1765
 k-point 51 :   0.5000-0.2000 0.1250  plane waves:    1760
 k-point 52 :  -0.3750-0.2000 0.1250  plane waves:    1768
 k-point 53 :  -0.2500-0.2000 0.1250  plane waves:    1769
 k-point 54 :  -0.1250-0.2000 0.1250  plane waves:    1776
 k-point 55 :   0.0000 0.0000 0.2500  plane waves:    1784
 k-point 56 :   0.5000 0.0000 0.2500  plane waves:    1759
 k-point 57 :  -0.3750-0.0000 0.2500  plane waves:    1768
 k-point 58 :  -0.2500 0.0000 0.2500  plane waves:    1767
 k-point 59 :  -0.1250-0.0000 0.2500  plane waves:    1768
 k-point 60 :   0.0000 0.2000 0.2500  plane waves:    1765
 k-point 61 :   0.5000 0.2000 0.2500  plane waves:    1766
 k-point 62 :  -0.3750 0.2000 0.2500  plane waves:    1758
 k-point 63 :  -0.2500 0.2000 0.2500  plane waves:    1763
 k-point 64 :  -0.1250 0.2000 0.2500  plane waves:    1757
 k-point 65 :   0.0000 0.4000 0.2500  plane waves:    1762
 k-point 66 :   0.5000 0.4000 0.2500  plane waves:    1764
 k-point 67 :  -0.3750 0.4000 0.2500  plane waves:    1766
 k-point 68 :  -0.2500 0.4000 0.2500  plane waves:    1764
 k-point 69 :  -0.1250 0.4000 0.2500  plane waves:    1758
 k-point 70 :   0.0000-0.4000 0.2500  plane waves:    1764
 k-point 71 :  -0.3750-0.4000 0.2500  plane waves:    1763
 k-point 72 :  -0.2500-0.4000 0.2500  plane waves:    1769
 k-point 73 :  -0.1250-0.4000 0.2500  plane waves:    1767
 k-point 74 :   0.0000-0.2000 0.2500  plane waves:    1763
 k-point 75 :  -0.3750-0.2000 0.2500  plane waves:    1769
 k-point 76 :  -0.2500-0.2000 0.2500  plane waves:    1768
 k-point 77 :  -0.1250-0.2000 0.2500  plane waves:    1767
 k-point 78 :   0.0000 0.0000 0.3750  plane waves:    1761
 k-point 79 :  -0.2500 0.0000 0.3750  plane waves:    1772
 k-point 80 :  -0.1250 0.0000 0.3750  plane waves:    1764
 k-point 81 :   0.0000 0.2000 0.3750  plane waves:    1762
 k-point 82 :  -0.2500 0.2000 0.3750  plane waves:    1760
 k-point 83 :  -0.1250 0.2000 0.3750  plane waves:    1763
 k-point 84 :   0.0000 0.4000 0.3750  plane waves:    1760
 k-point 85 :  -0.2500 0.4000 0.3750  plane waves:    1769
 k-point 86 :  -0.1250 0.4000 0.3750  plane waves:    1762
 k-point 87 :   0.0000-0.4000 0.3750  plane waves:    1769
 k-point 88 :  -0.1250-0.4000 0.3750  plane waves:    1768
 k-point 89 :   0.0000-0.2000 0.3750  plane waves:    1768
 k-point 90 :  -0.1250-0.2000 0.3750  plane waves:    1763
 k-point 91 :   0.0000 0.0000 0.5000  plane waves:    1780
 k-point 92 :   0.0000 0.2000 0.5000  plane waves:    1771
 k-point 93 :   0.0000 0.4000 0.5000  plane waves:    1760

 maximum and minimum number of plane-waves per node :      1791     1756

 maximum number of plane-waves:      1791
 maximum index in each direction: 
   IXMAX=    7   IYMAX=   11   IZMAX=    6
   IXMIN=   -7   IYMIN=  -11   IZMIN=   -7


 serial   3D FFT for wavefunctions
 parallel 3D FFT for charge:
    minimum data exchange during FFTs selected (reduces bandwidth)


 total amount of memory used by VASP MPI-rank0    67174. kBytes
=======================================================================

   base      :      30000. kBytes
   nonlr-proj:       6872. kBytes
   fftplans  :       1475. kBytes
   grid      :       6150. kBytes
   one-center:        393. kBytes
   wavefun   :      22284. kBytes
 
     INWAV:  cpu time    0.0000: real time    0.0001
 Broyden mixing: mesh for mixing (old mesh)
   NGX = 13   NGY = 23   NGZ = 13
  (NGX  = 56   NGY  = 96   NGZ  = 56)
  gives a total of   3887 points

 charge density for first step will be calculated from the start-wavefunctions


--------------------------------------------------------------------------------------------------------


 Maximum index for non-local projection operator        10077
 Maximum index for augmentation-charges         4019 (set IRDMAX)


--------------------------------------------------------------------------------------------------------


 initial charge from wavefunction
 First call to EWALD:  gamma=   0.440
 Maximum number of real-space cells 3x 2x 4
 Maximum number of reciprocal cells 3x 4x 3

    FEWALD:  cpu time    0.0012: real time    0.0012


--------------------------------------- Iteration      1(   1)  ---------------------------------------


    POTLOK:  cpu time    0.0518: real time    0.0571
    SETDIJ:  cpu time    0.0214: real time    0.1167
     EDDAV:  cpu time   14.1510: real time   14.1945
 BZINTS: Fermi energy: -7.483130; 46.000000 electrons
         Band energy:***********;  BLOECHL correction: -1.317589
       DOS:  cpu time    0.0952: real time    0.0954
    --------------------------------------------
      LOOP:  cpu time   14.3195: real time   14.4638

 eigenvalue-minimisations  : 16608
 total energy-change (2. order) :-0.2386470E+03  (-0.2625756E+04)
 number of electron      46.0000002 magnetization       0.0000000
 augmentation part        7.4750359 magnetization       0.0033487

 Free energy of the ion-electron system (eV)
  ---------------------------------------------------
  alpha Z        PSCENC =       453.10561966
  Ewald energy   TEWEN  =     -4853.25055448
  -Hartree energ DENC   =      -506.74082109
  -exchange      EXHF   =         0.00000000
  -V(xc)+E(xc)   XCENC  =       178.30603281
  PAW double counting   =      7585.56222523    -7798.08272332
  entropy T*S    EENTRO =         0.00000000
  eigenvalues    EBANDS =     -1401.87672370
  atomic energy  EATOM  =      6104.32994346
  Solvation  Ediel_sol  =         0.00000000
  ---------------------------------------------------
  free energy    TOTEN  =      -238.64700144 eV

  energy without entropy =     -238.64700144  energy(sigma->0) =     -238.64700144


--------------------------------------------------------------------------------------------------------




--------------------------------------- Iteration      1(   2)  ---------------------------------------


     EDDAV:  cpu time   13.0988: real time   13.1371
 BZINTS: Fermi energy:-23.570374; 46.000000 electrons
         Band energy:***********;  BLOECHL correction: -0.026245
       DOS:  cpu time    0.1018: real time    0.1020
    --------------------------------------------
      LOOP:  cpu time   13.2005: real time   13.2391

 eigenvalue-minimisations  : 14792
 total energy-change (2. order) :-0.5972967E+03  (-0.4689109E+03)
 number of electron      46.0000002 magnetization       0.0000000
 augmentation part        7.4750359 magnetization       0.0033487

 Free energy of the ion-electron system (eV)
  ---------------------------------------------------
  alpha Z        PSCENC =       453.10561966
  Ewald energy   TEWEN  =     -4853.25055448
  -Hartree energ DENC   =      -506.74082109
  -exchange      EXHF   =         0.00000000
  -V(xc)+E(xc)   XCENC  =       178.30603281
  PAW double counting   =      7585.56222523    -7798.08272332
  entropy T*S    EENTRO =         0.00000000
  eigenvalues    EBANDS =     -1999.17346614
  atomic energy  EATOM  =      6104.32994346
  Solvation  Ediel_sol  =         0.00000000
  ---------------------------------------------------
  free energy    TOTEN  =      -835.94374388 eV

  energy without entropy =     -835.94374388  energy(sigma->0) =     -835.94374388


--------------------------------------------------------------------------------------------------------




--------------------------------------- Iteration      1(   3)  ---------------------------------------


     EDDAV:  cpu time   13.8269: real time   13.8664
 BZINTS: Fermi energy:-27.020437; 46.000000 electrons
         Band energy:***********;  BLOECHL correction:  0.000000
       DOS:  cpu time    0.0195: real time    0.0195
    --------------------------------------------
      LOOP:  cpu time   13.8464: real time   13.8859

 eigenvalue-minimisations  : 15792
 total energy-change (2. order) :-0.1128176E+03  (-0.1093238E+03)
 number of electron      46.0000002 magnetization       0.0000000
 augmentation part        7.4750359 magnetization       0.0033487

 Free energy of the ion-electron system (eV)
  ---------------------------------------------------
  alpha Z        PSCENC =       453.10561966
  Ewald energy   TEWEN  =     -4853.25055448
  -Hartree energ DENC   =      -506.74082109
  -exchange      EXHF   =         0.00000000
  -V(xc)+E(xc)   XCENC  =       178.30603281
  PAW double counting   =      7585.56222523    -7798.08272332
  entropy T*S    EENTRO =         0.00000000
  eigenvalues    EBANDS =     -2111.99105645
  atomic energy  EATOM  =      6104.32994346
  Solvation  Ediel_sol  =         0.00000000
  ---------------------------------------------------
  free energy    TOTEN  =      -948.76133419 eV

  energy without entropy =     -948.76133419  energy(sigma->0) =     -948.76133419


--------------------------------------------------------------------------------------------------------




--------------------------------------- Iteration      1(   4)  ---------------------------------------


     EDDAV:  cpu time   12.3660: real time   12.3995
 BZINTS: Fermi energy:-27.743533; 46.000000 electrons
         Band energy:***********;  BLOECHL correction:  0.000000
       DOS:  cpu time    0.0167: real time    0.0167
    --------------------------------------------
      LOOP:  cpu time   12.3826: real time   12.4162

 eigenvalue-minimisations  : 13848
 total energy-change (2. order) :-0.6713965E+01  (-0.6711493E+01)
 number of electron      46.0000002 magnetization       0.0000000
 augmentation part        7.4750359 magnetization       0.0033487

 Free energy of the ion-electron system (eV)
  ---------------------------------------------------
  alpha Z        PSCENC =       453.10561966
  Ewald energy   TEWEN  =     -4853.25055448
  -Hartree energ DENC   =      -506.74082109
  -exchange      EXHF   =         0.00000000
  -V(xc)+E(xc)   XCENC  =       178.30603281
  PAW double counting   =      7585.56222523    -7798.08272332
  entropy T*S    EENTRO =         0.00000000
  eigenvalues    EBANDS =     -2118.70502120
  atomic energy  EATOM  =      6104.32994346
  Solvation  Ediel_sol  =         0.00000000
  ---------------------------------------------------
  free energy    TOTEN  =      -955.47529894 eV

  energy without entropy =     -955.47529894  energy(sigma->0) =     -955.47529894


--------------------------------------------------------------------------------------------------------




--------------------------------------- Iteration      1(   5)  ---------------------------------------


     EDDAV:  cpu time   16.1300: real time   16.1852
 BZINTS: Fermi energy:-27.857941; 46.000000 electrons
         Band energy:***********;  BLOECHL correction:  0.000000
       DOS:  cpu time    0.0159: real time    0.0160
    CHARGE:  cpu time    0.2888: real time    0.2895
    MIXING:  cpu time    0.0009: real time    0.0009
    --------------------------------------------
      LOOP:  cpu time   16.4357: real time   16.4916

 eigenvalue-minimisations  : 19296
 total energy-change (2. order) :-0.6868524E+00  (-0.6867250E+00)
 number of electron      46.0000000 magnetization       0.0000000
 augmentation part       14.3359236 magnetization      -0.0080745

 Broyden mixing:
  rms(total) = 0.21216E+02    rms(broyden)= 0.21194E+02
  rms(prec ) = 0.33194E+02
  weight for this iteration     100.00

 Free energy of the ion-electron system (eV)
  ---------------------------------------------------
  alpha Z        PSCENC =       453.10561966
  Ewald energy   TEWEN  =     -4853.25055448
  -Hartree energ DENC   =      -506.74082109
  -exchange      EXHF   =         0.00000000
  -V(xc)+E(xc)   XCENC  =       178.30603281
  PAW double counting   =      7585.56222523    -7798.08272332
  entropy T*S    EENTRO =         0.00000000
  eigenvalues    EBANDS =     -2119.39187361
  atomic energy  EATOM  =      6104.32994346
  Solvation  Ediel_sol  =         0.00000000
  ---------------------------------------------------
  free energy    TOTEN  =      -956.16215135 eV

  energy without entropy =     -956.16215135  energy(sigma->0) =     -956.16215135


--------------------------------------------------------------------------------------------------------




--------------------------------------- Iteration      1(   6)  ---------------------------------------


    POTLOK:  cpu time    0.0448: real time    0.0451
    SETDIJ:  cpu time    0.0131: real time    0.0131
     EDDAV:  cpu time   15.4053: real time   15.4474
 BZINTS: Fermi energy: -3.938009; 46.000000 electrons
         Band energy:***********;  BLOECHL correction: -0.009751
       DOS:  cpu time    0.0948: real time    0.0950
    CHARGE:  cpu time    0.2892: real time    0.2899
    MIXING:  cpu time    0.0012: real time    0.0012
    --------------------------------------------
      LOOP:  cpu time   15.8483: real time   15.8917

 eigenvalue-minimisations  : 18376
 total energy-change (2. order) :-0.4538527E+01  (-0.6195025E+03)
 number of electron      46.0000001 magnetization       0.0004086
 augmentation part       15.2816228 magnetization       0.0028871

 Broyden mixing:
  rms(total) = 0.19193E+02    rms(broyden)= 0.19191E+02
  rms(prec ) = 0.28760E+02
  weight for this iteration     100.00

 eigenvalues of (default mixing * dielectric matrix)
  average eigenvalue GAMMA=   0.5343
  0.5343

 Free energy of the ion-electron system (eV)
  ---------------------------------------------------
  alpha Z        PSCENC =       453.10561966
  Ewald energy   TEWEN  =     -4853.25055448
  -Hartree energ DENC   =      -928.92143490
  -exchange      EXHF   =         0.00000000
  -V(xc)+E(xc)   XCENC  =       200.33785399
  PAW double counting   =      7027.58593000    -7383.29435627
  entropy T*S    EENTRO =         0.00000000
  eigenvalues    EBANDS =     -1580.59368030
  atomic energy  EATOM  =      6104.32994346
  Solvation  Ediel_sol  =         0.00000000
  ---------------------------------------------------
  free energy    TOTEN  =      -960.70067884 eV

  energy without entropy =     -960.70067884  energy(sigma->0) =     -960.70067884


--------------------------------------------------------------------------------------------------------




--------------------------------------- Iteration      1(   7)  ---------------------------------------


    POTLOK:  cpu time    0.0479: real time    0.0482
    SETDIJ:  cpu time    0.0133: real time    0.0133
     EDDAV:  cpu time   12.9646: real time   12.9967
 BZINTS: Fermi energy: -2.515794; 46.000000 electrons
         Band energy:-699.656815;  BLOECHL correction:  0.000000
       DOS:  cpu time    0.0197: real time    0.0198
    CHARGE:  cpu time    0.2882: real time    0.2889
    MIXING:  cpu time    0.0011: real time    0.0011
    --------------------------------------------
      LOOP:  cpu time   13.3347: real time   13.3680

 eigenvalue-minimisations  : 14912
 total energy-change (2. order) : 0.8146066E+03  (-0.3309584E+02)
 number of electron      46.0000001 magnetization       0.0000811
 augmentation part       14.4794532 magnetization      -0.0110711

 Broyden mixing:
  rms(total) = 0.13484E+02    rms(broyden)= 0.13484E+02
  rms(prec ) = 0.21107E+02
  weight for this iteration     100.00

 eigenvalues of (default mixing * dielectric matrix)
  average eigenvalue GAMMA=   0.4021
  0.4021  0.4021

 Free energy of the ion-electron system (eV)
  ---------------------------------------------------
  alpha Z        PSCENC =       453.10561966
  Ewald energy   TEWEN  =     -4853.25055448
  -Hartree energ DENC   =     -1018.98558253
  -exchange      EXHF   =         0.00000000
  -V(xc)+E(xc)   XCENC  =       206.01676970
  PAW double counting   =      6680.85341283    -7018.50687827
  entropy T*S    EENTRO =         0.00000000
  eigenvalues    EBANDS =      -699.65681548
  atomic energy  EATOM  =      6104.32994346
  Solvation  Ediel_sol  =         0.00000000
  ---------------------------------------------------
  free energy    TOTEN  =      -146.09408511 eV

  energy without entropy =     -146.09408511  energy(sigma->0) =     -146.09408511


--------------------------------------------------------------------------------------------------------




--------------------------------------- Iteration      1(   8)  ---------------------------------------


    POTLOK:  cpu time    0.0428: real time    0.0430
    SETDIJ:  cpu time    0.0116: real time    0.0116
     EDDAV:  cpu time   15.6503: real time   15.6913
 BZINTS: Fermi energy: -0.648456; 46.000000 electrons
         Band energy:-760.755355;  BLOECHL correction:  0.000000
       DOS:  cpu time    0.0172: real time    0.0172
    CHARGE:  cpu time    0.2899: real time    0.2906
    MIXING:  cpu time    0.0014: real time    0.0014
    --------------------------------------------
      LOOP:  cpu time   16.0132: real time   16.0552

 eigenvalue-minimisations  : 18832
 total energy-change (2. order) :-0.1599700E+03  (-0.1856723E+03)
 number of electron      46.0000002 magnetization       0.0002289
 augmentation part       13.7110994 magnetization      -0.0094023

 Broyden mixing:
  rms(total) = 0.12126E+02    rms(broyden)= 0.12126E+02
  rms(prec ) = 0.21991E+02
  weight for this iteration     100.00

 eigenvalues of (default mixing * dielectric matrix)
  average eigenvalue GAMMA=   0.7478
  1.2773  0.4830  0.4830

 Free energy of the ion-electron system (eV)
  ---------------------------------------------------
  alpha Z        PSCENC =       453.10561966
  Ewald energy   TEWEN  =     -4853.25055448
  -Hartree energ DENC   =     -1115.50056873
  -exchange      EXHF   =         0.00000000
  -V(xc)+E(xc)   XCENC  =       210.22011232
  PAW double counting   =      6442.80976865    -6787.02305600
  entropy T*S    EENTRO =         0.00000000
  eigenvalues    EBANDS =      -760.75535492
  atomic energy  EATOM  =      6104.32994346
  Solvation  Ediel_sol  =         0.00000000
  ---------------------------------------------------
  free energy    TOTEN  =      -306.06409006 eV

  energy without entropy =     -306.06409006  energy(sigma->0) =     -306.06409006


--------------------------------------------------------------------------------------------------------




--------------------------------------- Iteration      1(   9)  ---------------------------------------


    POTLOK:  cpu time    0.0477: real time    0.0481
    SETDIJ:  cpu time    0.0136: real time    0.0137
     EDDAV:  cpu time   19.9622: real time   20.0157
 BZINTS: Fermi energy:  3.868205; 46.000000 electrons
         Band energy:-327.470374;  BLOECHL correction: -0.001987
       DOS:  cpu time    0.0837: real time    0.0839
    CHARGE:  cpu time    0.2938: real time    0.2945
    MIXING:  cpu time    0.0015: real time    0.0015
    --------------------------------------------
      LOOP:  cpu time   20.4026: real time   20.4574

 eigenvalue-minimisations  : 23520
 total energy-change (2. order) : 0.1845394E+03  (-0.2095053E+03)
 number of electron      46.0000001 magnetization      -0.0011920
 augmentation part       12.3613660 magnetization       0.0028426

 Broyden mixing:
  rms(total) = 0.93979E+01    rms(broyden)= 0.93978E+01
  rms(prec ) = 0.18078E+02
  weight for this iteration     100.00

 eigenvalues of (default mixing * dielectric matrix)
  average eigenvalue GAMMA=   0.9578
  1.5092  1.5092  0.4063  0.4063

 Free energy of the ion-electron system (eV)
  ---------------------------------------------------
  alpha Z        PSCENC =       453.10561966
  Ewald energy   TEWEN  =     -4853.25055448
  -Hartree energ DENC   =     -1323.32193570
  -exchange      EXHF   =         0.00000000
  -V(xc)+E(xc)   XCENC  =       220.38085709
  PAW double counting   =      6163.16178176    -6558.46005299
  entropy T*S    EENTRO =         0.00000000
  eigenvalues    EBANDS =      -327.47037404
  atomic energy  EATOM  =      6104.32994346
  Solvation  Ediel_sol  =         0.00000000
  ---------------------------------------------------
  free energy    TOTEN  =      -121.52471525 eV

  energy without entropy =     -121.52471525  energy(sigma->0) =     -121.52471525


--------------------------------------------------------------------------------------------------------




--------------------------------------- Iteration      1(  10)  ---------------------------------------


    POTLOK:  cpu time    0.0489: real time    0.0494
    SETDIJ:  cpu time    0.0141: real time    0.0141
     EDDAV:  cpu time   17.7440: real time   17.7915
 BZINTS: Fermi energy:  6.964803; 46.000000 electrons
         Band energy:-354.956904;  BLOECHL correction: -0.024871
       DOS:  cpu time    0.1092: real time    0.1095
    CHARGE:  cpu time    0.3120: real time    0.3127
    MIXING:  cpu time    0.0013: real time    0.0013
    --------------------------------------------
      LOOP:  cpu time   18.2294: real time   18.2785

 eigenvalue-minimisations  : 20400
 total energy-change (2. order) : 0.2957783E+02  (-0.2372921E+02)
 number of electron      45.9999968 magnetization       0.0231237
 augmentation part        8.6502897 magnetization       0.0301872

 Broyden mixing:
  rms(total) = 0.90476E+01    rms(broyden)= 0.90474E+01
  rms(prec ) = 0.14403E+02
  weight for this iteration     100.00

 eigenvalues of (default mixing * dielectric matrix)
  average eigenvalue GAMMA=   0.8808
  1.6522  1.6522  0.3785  0.3785  0.3426

 Free energy of the ion-electron system (eV)
  ---------------------------------------------------
  alpha Z        PSCENC =       453.10561966
  Ewald energy   TEWEN  =     -4853.25055448
  -Hartree energ DENC   =     -1271.95417073
  -exchange      EXHF   =         0.00000000
  -V(xc)+E(xc)   XCENC  =       215.19072041
  PAW double counting   =      6015.00463190    -6399.41616696
  entropy T*S    EENTRO =         0.00000000
  eigenvalues    EBANDS =      -354.95690353
  atomic energy  EATOM  =      6104.32994346
  Solvation  Ediel_sol  =         0.00000000
  ---------------------------------------------------
  free energy    TOTEN  =       -91.94688028 eV

  energy without entropy =      -91.94688028  energy(sigma->0) =      -91.94688028


--------------------------------------------------------------------------------------------------------




--------------------------------------- Iteration      1(  11)  ---------------------------------------


    POTLOK:  cpu time    0.0471: real time    0.0474
    SETDIJ:  cpu time    0.0135: real time    0.0135
     EDDAV:  cpu time   17.4369: real time   17.4819
 BZINTS: Fermi energy: -0.750770; 46.000000 electrons
         Band energy:-476.360167;  BLOECHL correction:  0.000000
       DOS:  cpu time    0.0167: real time    0.0167
    CHARGE:  cpu time    0.2945: real time    0.2952
    MIXING:  cpu time    0.0013: real time    0.0013
    --------------------------------------------
      LOOP:  cpu time   17.8100: real time   17.8560

 eigenvalue-minimisations  : 19832
 total energy-change (2. order) :-0.4922672E+02  (-0.1883867E+02)
 number of electron      46.0000001 magnetization       0.0042473
 augmentation part       13.6103842 magnetization       0.0090758

 Broyden mixing:
  rms(total) = 0.93109E+01    rms(broyden)= 0.93109E+01
  rms(prec ) = 0.18347E+02
  weight for this iteration     100.00

 eigenvalues of (default mixing * dielectric matrix)
  average eigenvalue GAMMA=   0.8940
  2.3495  1.0973  0.7768  0.3901  0.3901  0.3601

 Free energy of the ion-electron system (eV)
  ---------------------------------------------------
  alpha Z        PSCENC =       453.10561966
  Ewald energy   TEWEN  =     -4853.25055448
  -Hartree energ DENC   =     -1233.75744211
  -exchange      EXHF   =         0.00000000
  -V(xc)+E(xc)   XCENC  =       213.77338984
  PAW double counting   =      5811.06559590    -6160.07998192
  entropy T*S    EENTRO =         0.00000000
  eigenvalues    EBANDS =      -476.36016697
  atomic energy  EATOM  =      6104.32994346
  Solvation  Ediel_sol  =         0.00000000
  ---------------------------------------------------
  free energy    TOTEN  =      -141.17359663 eV

  energy without entropy =     -141.17359663  energy(sigma->0) =     -141.17359663


--------------------------------------------------------------------------------------------------------




--------------------------------------- Iteration      1(  12)  ---------------------------------------


    POTLOK:  cpu time    0.0476: real time    0.0478
    SETDIJ:  cpu time    0.0133: real time    0.0134
     EDDAV:  cpu time   15.8829: real time   15.9231
 BZINTS: Fermi energy:  8.692886; 46.000000 electrons
         Band energy:-256.350266;  BLOECHL correction: -0.003345
       DOS:  cpu time    0.1057: real time    0.1059
    CHARGE:  cpu time    0.2934: real time    0.2942
    MIXING:  cpu time    0.0013: real time    0.0013
    --------------------------------------------
      LOOP:  cpu time   16.3443: real time   16.3857

 eigenvalue-minimisations  : 17856
 total energy-change (2. order) : 0.5594607E+02  (-0.1347137E+02)
 number of electron      45.9999963 magnetization      -0.0409760
 augmentation part        5.4321203 magnetization      -0.0376975

 Broyden mixing:
  rms(total) = 0.64614E+01    rms(broyden)= 0.64613E+01
  rms(prec ) = 0.11741E+02
  weight for this iteration     100.00

 eigenvalues of (default mixing * dielectric matrix)
  average eigenvalue GAMMA=   0.7978
  2.3608  1.0847  0.4100  0.4100  0.5931  0.5931  0.1330

 Free energy of the ion-electron system (eV)
  ---------------------------------------------------
  alpha Z        PSCENC =       453.10561966
  Ewald energy   TEWEN  =     -4853.25055448
  -Hartree energ DENC   =     -1377.59613629
  -exchange      EXHF   =         0.00000000
  -V(xc)+E(xc)   XCENC  =       221.28010774
  PAW double counting   =      5655.83785876    -6032.58409982
  entropy T*S    EENTRO =         0.00000000
  eigenvalues    EBANDS =      -256.35026610
  atomic energy  EATOM  =      6104.32994346
  Solvation  Ediel_sol  =         0.00000000
  ---------------------------------------------------
  free energy    TOTEN  =       -85.22752708 eV

  energy without entropy =      -85.22752708  energy(sigma->0) =      -85.22752708


--------------------------------------------------------------------------------------------------------




--------------------------------------- Iteration      1(  13)  ---------------------------------------


    POTLOK:  cpu time    0.0463: real time    0.0467
    SETDIJ:  cpu time    0.0133: real time    0.0133
     EDDAV:  cpu time   18.1772: real time   18.2280
 BZINTS: Fermi energy:  8.062823; 46.000000 electrons
         Band energy:-251.216267;  BLOECHL correction: -0.022835
       DOS:  cpu time    0.1078: real time    0.1081
    CHARGE:  cpu time    0.2988: real time    0.2995
    MIXING:  cpu time    0.0015: real time    0.0015
    --------------------------------------------
      LOOP:  cpu time   18.6449: real time   18.6972

 eigenvalue-minimisations  : 20240
 total energy-change (2. order) : 0.4361433E+02  (-0.1053328E+02)
 number of electron      45.9999966 magnetization      -0.0409740
 augmentation part        7.0544318 magnetization      -0.0458061

 Broyden mixing:
  rms(total) = 0.55872E+01    rms(broyden)= 0.55871E+01
  rms(prec ) = 0.10599E+02
  weight for this iteration     100.00

 eigenvalues of (default mixing * dielectric matrix)
  average eigenvalue GAMMA=   0.7005
  2.3701  1.0998  0.4096  0.4096  0.5813  0.5813  0.0961  0.0559

 Free energy of the ion-electron system (eV)
  ---------------------------------------------------
  alpha Z        PSCENC =       453.10561966
  Ewald energy   TEWEN  =     -4853.25055448
  -Hartree energ DENC   =     -1361.91557564
  -exchange      EXHF   =         0.00000000
  -V(xc)+E(xc)   XCENC  =       221.44507537
  PAW double counting   =      5514.33745046    -5868.44889293
  entropy T*S    EENTRO =         0.00000000
  eigenvalues    EBANDS =      -251.21626743
  atomic energy  EATOM  =      6104.32994346
  Solvation  Ediel_sol  =         0.00000000
  ---------------------------------------------------
  free energy    TOTEN  =       -41.61320154 eV

  energy without entropy =      -41.61320154  energy(sigma->0) =      -41.61320154


--------------------------------------------------------------------------------------------------------




--------------------------------------- Iteration      1(  14)  ---------------------------------------


    POTLOK:  cpu time    0.0490: real time    0.0493
    SETDIJ:  cpu time    0.0136: real time    0.0137
     EDDAV:  cpu time   19.0090: real time   19.0566
 BZINTS: Fermi energy:  7.896932; 46.000000 electrons
         Band energy:-252.934303;  BLOECHL correction: -0.006794
       DOS:  cpu time    0.1141: real time    0.1143
    CHARGE:  cpu time    0.2952: real time    0.2959
    MIXING:  cpu time    0.0015: real time    0.0015
    --------------------------------------------
      LOOP:  cpu time   19.4822: real time   19.5312

 eigenvalue-minimisations  : 21072
 total energy-change (2. order) :-0.1582294E+01  (-0.1658669E+01)
 number of electron      45.9999956 magnetization      -0.0150600
 augmentation part        6.9169952 magnetization      -0.0209193

 Broyden mixing:
  rms(total) = 0.57055E+01    rms(broyden)= 0.57055E+01
  rms(prec ) = 0.11005E+02
  weight for this iteration     100.00

 eigenvalues of (default mixing * dielectric matrix)
  average eigenvalue GAMMA=   0.6263
  2.3764  1.1018  0.5728  0.5728  0.4093  0.4093  0.0929  0.0929  0.0086

 Free energy of the ion-electron system (eV)
  ---------------------------------------------------
  alpha Z        PSCENC =       453.10561966
  Ewald energy   TEWEN  =     -4853.25055448
  -Hartree energ DENC   =     -1361.93095247
  -exchange      EXHF   =         0.00000000
  -V(xc)+E(xc)   XCENC  =       221.44837816
  PAW double counting   =      5514.44287806    -5868.40650472
  entropy T*S    EENTRO =         0.00000000
  eigenvalues    EBANDS =      -252.93430285
  atomic energy  EATOM  =      6104.32994346
  Solvation  Ediel_sol  =         0.00000000
  ---------------------------------------------------
  free energy    TOTEN  =       -43.19549519 eV

  energy without entropy =      -43.19549519  energy(sigma->0) =      -43.19549519


--------------------------------------------------------------------------------------------------------




--------------------------------------- Iteration      1(  15)  ---------------------------------------


    POTLOK:  cpu time    0.0456: real time    0.0458
    SETDIJ:  cpu time    0.0124: real time    0.0124
     EDDAV:  cpu time   19.4107: real time   19.4604
 BZINTS: Fermi energy:  8.029943; 46.000000 electrons
         Band energy:-250.085141;  BLOECHL correction: -0.007294
       DOS:  cpu time    0.1035: real time    0.1094
    CHARGE:  cpu time    0.3002: real time    0.3022
    MIXING:  cpu time    0.0017: real time    0.0037
    --------------------------------------------
      LOOP:  cpu time   19.8742: real time   19.9376

 eigenvalue-minimisations  : 21288
 total energy-change (2. order) :-0.7134096E+00  (-0.1124780E+00)
 number of electron      45.9999959 magnetization      -0.0117102
 augmentation part        6.4992899 magnetization      -0.0169193

 Broyden mixing:
  rms(total) = 0.56346E+01    rms(broyden)= 0.56345E+01
  rms(prec ) = 0.10767E+02
  weight for this iteration     100.00

 eigenvalues of (default mixing * dielectric matrix)
  average eigenvalue GAMMA=   0.5743
  2.3820  1.1043  0.5666  0.5666  0.4093  0.4093  0.1249  0.1249  0.0388  0.0159

 Free energy of the ion-electron system (eV)
  ---------------------------------------------------
  alpha Z        PSCENC =       453.10561966
  Ewald energy   TEWEN  =     -4853.25055448
  -Hartree energ DENC   =     -1364.41874644
  -exchange      EXHF   =         0.00000000
  -V(xc)+E(xc)   XCENC  =       221.58195421
  PAW double counting   =      5511.69257476    -5866.86455534
  entropy T*S    EENTRO =         0.00000000
  eigenvalues    EBANDS =      -250.08514060
  atomic energy  EATOM  =      6104.32994346
  Solvation  Ediel_sol  =         0.00000000
  ---------------------------------------------------
  free energy    TOTEN  =       -43.90890476 eV

  energy without entropy =      -43.90890476  energy(sigma->0) =      -43.90890476


--------------------------------------------------------------------------------------------------------




[...]
 -0.000   0.000   0.009 -15.744   0.016  -0.005   8.535  -0.008
  0.000  -0.000  -0.017   0.016 -15.300   0.029  -0.008   7.882
 -0.000  -0.000   7.848  -0.005   0.029   4.333   0.005  -0.028
 -0.000  -0.000  -0.005   8.535  -0.008   0.005   3.677   0.009
  0.000   0.000   0.029  -0.008   7.882  -0.028   0.009   4.301
 -0.008  -0.006   0.000  -0.000  -0.000   0.000  -0.000  -0.000
  0.008  -0.003  -0.000  -0.000  -0.000  -0.000  -0.000  -0.000
 -0.154  -0.039   0.000  -0.000  -0.000   0.000  -0.000  -0.000
  0.013  -0.006  -0.000   0.000  -0.000  -0.000   0.000  -0.000
 -0.004  -0.004   0.000  -0.000   0.000   0.000  -0.000   0.000
  0.015   0.011   0.000  -0.000  -0.000  -0.000   0.000   0.000
 -0.013   0.005  -0.000  -0.000  -0.000   0.000   0.000   0.000
  0.279   0.057   0.000  -0.000  -0.000  -0.000   0.000   0.000
 -0.022   0.009  -0.000   0.000  -0.000   0.000  -0.000   0.000
  0.009   0.006   0.000  -0.000   0.000  -0.000   0.000  -0.000
  0.000  -0.000  -0.016  -0.038  -0.028   0.015   0.014   0.027
  0.000  -0.000   0.002  -0.047  -0.046   0.001   0.031   0.018
  0.000  -0.000  -0.250  -0.039  -0.008   0.207   0.015  -0.002
 -0.000   0.000  -0.017  -0.143  -0.030   0.006   0.191   0.010
 -0.000   0.000  -0.008  -0.067  -0.260  -0.002   0.026   0.205
  0.000  -0.000  -0.048  -0.027   0.002   0.017   0.018   0.001
 -0.000   0.000   0.027  -0.000  -0.015  -0.028   0.000   0.016
  0.000  -0.000  -0.016  -0.037  -0.027   0.015   0.014   0.026
  0.000  -0.000   0.002  -0.045  -0.044   0.000   0.030   0.018
  0.000  -0.000  -0.244  -0.037  -0.008   0.204   0.015  -0.002
 -0.000   0.000  -0.017  -0.142  -0.029   0.006   0.187   0.010
 -0.000   0.000  -0.008  -0.065  -0.253  -0.002   0.025   0.202
  0.000  -0.000  -0.047  -0.026   0.002   0.017   0.017   0.000
 -0.000   0.000   0.026  -0.000  -0.015  -0.027   0.000   0.016
 pseudopotential strength for first ion, spin component:           2
-14.948  -0.242  -0.000  -0.000   0.000  -0.000  -0.000   0.000
 -0.242  -2.799   0.000   0.000  -0.000  -0.000  -0.000   0.000
 -0.000   0.000 -17.094   0.015  -0.019   8.637  -0.017   0.028
 -0.000   0.000   0.015 -17.897   0.026  -0.017   9.080  -0.030
  0.000  -0.000  -0.019   0.026 -17.117   0.028  -0.030   8.670
 -0.000  -0.000   8.637  -0.017   0.028   4.369   0.012  -0.032
 -0.000  -0.000  -0.017   9.080  -0.030   0.012   4.014   0.021
  0.000   0.000   0.028  -0.030   8.670  -0.032   0.021   4.332
 -0.010  -0.006   0.000  -0.000  -0.000   0.000  -0.000  -0.000
  0.011   0.002  -0.000  -0.000  -0.000  -0.000  -0.000  -0.000
 -0.395   0.125   0.000  -0.000  -0.000   0.000  -0.000  -0.000
  0.018   0.004  -0.000   0.000  -0.000  -0.000   0.000  -0.000
 -0.006  -0.003   0.000  -0.000   0.000   0.000  -0.000   0.000
  0.018   0.008   0.000  -0.000  -0.000  -0.000   0.000   0.000
 -0.018  -0.002  -0.000  -0.000  -0.000   0.000   0.000   0.000
  0.626  -0.205  -0.000  -0.000  -0.000  -0.000   0.000   0.000
 -0.030  -0.004  -0.000   0.000  -0.000   0.000  -0.000   0.000
  0.010   0.005   0.000  -0.000   0.000  -0.000   0.000  -0.000
  0.000  -0.000  -0.024   0.067  -0.040   0.016  -0.018   0.028
  0.000  -0.000  -0.002   0.052   0.082  -0.001  -0.004  -0.022
  0.000  -0.000   0.155   0.092   0.059  -0.043  -0.030  -0.022
 -0.000   0.000   0.039  -0.179   0.067  -0.012   0.067  -0.020
 -0.000   0.000   0.059   0.159   0.222  -0.022  -0.052  -0.069
  0.000  -0.000   0.084   0.029  -0.002  -0.021  -0.002  -0.001
 -0.000   0.000   0.028  -0.000  -0.016  -0.024   0.000   0.014
  0.000  -0.000  -0.023   0.065  -0.039   0.016  -0.018   0.027
  0.000  -0.000  -0.001   0.050   0.079  -0.001  -0.005  -0.023
  0.000  -0.000   0.143   0.089   0.057  -0.041  -0.030  -0.022
 -0.000   0.000   0.037  -0.180   0.064  -0.012   0.071  -0.021
 -0.000   0.000   0.057   0.154   0.208  -0.022  -0.053  -0.067
  0.000  -0.000   0.080   0.028  -0.001  -0.022  -0.002  -0.001
 -0.000   0.000   0.027  -0.000  -0.016  -0.023   0.000   0.014
 total augmentation occupancy for first ion, spin component:           1
  1.904  -0.373   0.000   0.000   0.000   0.000   0.000   0.000   0.014   0.008  -0.063   0.013   0.008   0.006   0.007  -0.064
 -0.373   1.085   0.000   0.000   0.000   0.000   0.000   0.000  -0.007  -0.002  -0.024  -0.003  -0.004  -0.003  -0.002   0.001
  0.000   0.000   1.996   0.000  -0.000  -0.093   0.001  -0.001   0.000   0.000   0.000   0.000   0.000   0.000   0.000   0.000
  0.000   0.000   0.000   1.994   0.000   0.001  -0.118   0.002   0.000   0.000   0.000   0.000   0.000   0.000   0.000   0.000
  0.000   0.000  -0.000   0.000   1.996  -0.001   0.002  -0.094   0.000   0.000   0.000   0.000   0.000   0.000   0.000   0.000
  0.000   0.000  -0.093   0.001  -0.001   0.022  -0.000   0.000   0.000   0.000   0.000   0.000   0.000   0.000   0.000   0.000
  0.000   0.000   0.001  -0.118   0.002  -0.000   0.026  -0.000   0.000   0.000   0.000   0.000   0.000   0.000   0.000   0.000
  0.000   0.000  -0.001   0.002  -0.094   0.000  -0.000   0.022   0.000   0.000   0.000   0.000   0.000   0.000   0.000   0.000
  0.014  -0.007   0.000   0.000   0.000   0.000   0.000   0.000   0.201   0.001  -0.001  -0.093   0.002   0.051   0.000  -0.001
  0.008  -0.002   0.000   0.000   0.000   0.000   0.000   0.000   0.001   0.271   0.000   0.000  -0.094   0.000   0.062  -0.000
 -0.063  -0.024   0.000   0.000   0.000   0.000   0.000   0.000  -0.001   0.000   0.145   0.001  -0.001  -0.001  -0.000   0.034
  0.013  -0.003   0.000   0.000   0.000   0.000   0.000   0.000  -0.093   0.000   0.001   0.271   0.001  -0.024  -0.000  -0.001
  0.008  -0.004   0.000   0.000   0.000   0.000   0.000   0.000   0.002  -0.094  -0.001   0.001   0.198   0.001  -0.023  -0.001
  0.006  -0.003   0.000   0.000   0.000   0.000   0.000   0.000   0.051   0.000  -0.001  -0.024   0.001   0.015   0.000  -0.001
  0.007  -0.002   0.000   0.000   0.000   0.000   0.000   0.000   0.000   0.062  -0.000  -0.000  -0.023   0.000   0.016  -0.000
 -0.064   0.001   0.000   0.000   0.000   0.000   0.000   0.000  -0.001  -0.000   0.034  -0.001  -0.001  -0.001  -0.000   0.011
  0.012  -0.003   0.000   0.000   0.000   0.000   0.000   0.000  -0.023  -0.000  -0.000   0.062   0.000  -0.007  -0.000  -0.001
  0.004  -0.002   0.000   0.000   0.000   0.000   0.000   0.000   0.001  -0.025  -0.000   0.000   0.049   0.001  -0.007  -0.000
  0.000   0.000  -0.003  -0.068  -0.005  -0.001   0.064  -0.001   0.000   0.000   0.000   0.000   0.000   0.000   0.000   0.000
  0.000   0.000   0.008  -0.003  -0.082   0.000   0.000   0.072   0.000   0.000   0.000   0.000   0.000   0.000   0.000   0.000
  0.000   0.000  -0.042   0.004   0.004  -0.033   0.001   0.002   0.000   0.000   0.000   0.000   0.000   0.000   0.000   0.000
  0.000   0.000  -0.007  -0.122  -0.012   0.000   0.043   0.001   0.000   0.000   0.000   0.000   0.000   0.000   0.000   0.000
  0.000   0.000   0.004   0.007  -0.037   0.002   0.003  -0.031   0.000   0.000   0.000   0.000   0.000   0.000   0.000   0.000
  0.000   0.000  -0.092  -0.002   0.008   0.071   0.000   0.000   0.000   0.000   0.000   0.000   0.000   0.000   0.000   0.000
  0.000   0.000   0.018  -0.000  -0.011   0.000   0.000  -0.000   0.000   0.000   0.000   0.000   0.000   0.000   0.000   0.000
  0.000   0.000   0.006   0.064   0.011   0.000  -0.063   0.000   0.000   0.000   0.000   0.000   0.000   0.000   0.000   0.000
  0.000   0.000  -0.005   0.003   0.080   0.000  -0.000  -0.070   0.000   0.000   0.000   0.000   0.000   0.000   0.000   0.000
  0.000   0.000   0.028  -0.009  -0.008   0.028  -0.000  -0.001   0.000   0.000   0.000   0.000   0.000   0.000   0.000   0.000
  0.000   0.000   0.003   0.139   0.005  -0.000  -0.053  -0.000   0.000   0.000   0.000   0.000   0.000   0.000   0.000   0.000
  0.000   0.000  -0.008  -0.015   0.018  -0.001  -0.001   0.027   0.000   0.000   0.000   0.000   0.000   0.000   0.000   0.000
  0.000   0.000   0.086   0.002  -0.005  -0.071  -0.000   0.000   0.000   0.000   0.000   0.000   0.000   0.000   0.000   0.000
  0.000   0.000  -0.020   0.000   0.012   0.000  -0.000  -0.000   0.000   0.000   0.000   0.000   0.000   0.000   0.000   0.000
 total augmentation occupancy for first ion, spin component:           2
 -0.057  -0.147   0.000   0.000   0.000   0.000   0.000   0.000  -0.005  -0.009   0.123  -0.015  -0.003  -0.002  -0.005   0.062
 -0.147   0.403   0.000   0.000   0.000   0.000   0.000   0.000  -0.003   0.010  -0.073   0.017  -0.002   0.001   0.004  -0.032
  0.000   0.000   0.001   0.001  -0.000  -0.030   0.001  -0.000   0.000   0.000   0.000   0.000   0.000   0.000   0.000   0.000
  0.000   0.000   0.001  -0.005   0.001   0.002  -0.052   0.003   0.000   0.000   0.000   0.000   0.000   0.000   0.000   0.000
  0.000   0.000  -0.000   0.001   0.001  -0.000   0.003  -0.031   0.000   0.000   0.000   0.000   0.000   0.000   0.000   0.000
  0.000   0.000  -0.030   0.002  -0.000   0.012  -0.000   0.000   0.000   0.000   0.000   0.000   0.000   0.000   0.000   0.000
  0.000   0.000   0.001  -0.052   0.003  -0.000   0.016  -0.000   0.000   0.000   0.000   0.000   0.000   0.000   0.000   0.000
  0.000   0.000  -0.000   0.003  -0.031   0.000  -0.000   0.012   0.000   0.000   0.000   0.000   0.000   0.000   0.000   0.000
 -0.005  -0.003   0.000   0.000   0.000   0.000   0.000   0.000   0.093   0.001   0.005  -0.036   0.002   0.029   0.000   0.001
 -0.009   0.010   0.000   0.000   0.000   0.000   0.000   0.000   0.001   0.127   0.002  -0.002  -0.037   0.000   0.031   0.000
  0.123  -0.073   0.000   0.000   0.000   0.000   0.000   0.000   0.005   0.002   0.053   0.004   0.003   0.001   0.001   0.010
 -0.015   0.017   0.000   0.000   0.000   0.000   0.000   0.000  -0.036  -0.002   0.004   0.124   0.001  -0.012  -0.001   0.001
 -0.003  -0.002   0.000   0.000   0.000   0.000   0.000   0.000   0.002  -0.037   0.003   0.001   0.090   0.001  -0.010   0.000
 -0.002   0.001   0.000   0.000   0.000   0.000   0.000   0.000   0.029   0.000   0.001  -0.012   0.001   0.009   0.000  -0.000
 -0.005   0.004   0.000   0.000   0.000   0.000   0.000   0.000   0.000   0.031   0.001  -0.001  -0.010   0.000   0.008   0.000
  0.062  -0.032   0.000   0.000   0.000   0.000   0.000   0.000   0.001   0.000   0.010   0.001   0.000  -0.000   0.000   0.000
 -0.009   0.006   0.000   0.000   0.000   0.000   0.000   0.000  -0.009  -0.001   0.001   0.030   0.000  -0.003  -0.001   0.001
 -0.001   0.000   0.000   0.000   0.000   0.000   0.000   0.000   0.001  -0.012   0.000   0.000   0.027   0.001  -0.003  -0.000
  0.000   0.000   0.016  -0.050   0.028  -0.001   0.045  -0.001   0.000   0.000   0.000   0.000   0.000   0.000   0.000   0.000
  0.000   0.000  -0.001   0.003  -0.071   0.001  -0.001   0.053   0.000   0.000   0.000   0.000   0.000   0.000   0.000   0.000
  0.000   0.000  -0.033  -0.020  -0.006  -0.030   0.001   0.001   0.000   0.000   0.000   0.000   0.000   0.000   0.000   0.000
  0.000   0.000  -0.011  -0.007  -0.019  -0.001   0.031  -0.002   0.000   0.000   0.000   0.000   0.000   0.000   0.000   0.000
  0.000   0.000  -0.006  -0.034  -0.040   0.001   0.002  -0.029   0.000   0.000   0.000   0.000   0.000   0.000   0.000   0.000
  0.000   0.000  -0.070   0.002  -0.001   0.051  -0.001   0.001   0.000   0.000   0.000   0.000   0.000   0.000   0.000   0.000
  0.000   0.000   0.009  -0.000  -0.005   0.002   0.000  -0.001   0.000   0.000   0.000   0.000   0.000   0.000   0.000   0.000
  0.000   0.000  -0.020   0.052  -0.035   0.001  -0.040   0.001   0.000   0.000   0.000   0.000   0.000   0.000   0.000   0.000
  0.000   0.000  -0.003  -0.003   0.071   0.000   0.001  -0.046   0.000   0.000   0.000   0.000   0.000   0.000   0.000   0.000
  0.000   0.000   0.052   0.025   0.009   0.020  -0.001  -0.002   0.000   0.000   0.000   0.000   0.000   0.000   0.000   0.000
  0.000   0.000   0.016  -0.011   0.027  -0.000  -0.032  -0.000   0.000   0.000   0.000   0.000   0.000   0.000   0.000   0.000
  0.000   0.000   0.009   0.042   0.063  -0.002  -0.002   0.018   0.000   0.000   0.000   0.000   0.000   0.000   0.000   0.000
  0.000   0.000   0.075  -0.002  -0.003  -0.046   0.001   0.000   0.000   0.000   0.000   0.000   0.000   0.000   0.000   0.000
  0.000   0.000  -0.008   0.000   0.004  -0.002  -0.000   0.001   0.000   0.000   0.000   0.000   0.000   0.000   0.000   0.000


------------------------ aborting loop because EDIFF is reached ----------------------------------------


 


 total charge     
 
# of ion       s       p       d       f       tot
--------------------------------------------------
    1        2.131   5.879   0.745  10.094  18.849
    2        2.083   5.862   0.496   6.276  14.717
    3        1.524   2.297   0.000   0.000   3.821
    4        1.524   2.297   0.000   0.000   3.821
--------------------------------------------------
tot          7.262  16.335   1.241  16.370  41.207

 


 magnetization (x)
 
# of ion       s       p       d       f       tot
--------------------------------------------------
    1        0.014   0.018   0.260   3.824   4.116
    2       -0.001   0.033   0.039  -0.282  -0.212
    3        0.013   0.684   0.000   0.000   0.697
    4        0.013   0.684   0.000   0.000   0.697
--------------------------------------------------
tot          0.039   1.417   0.299   3.541   5.297

 
    CHARGE:  cpu time    0.3526: real time    0.3535
    FORLOC:  cpu time    0.0017: real time    0.0017
    FORNL :  cpu time    2.8371: real time    2.8438
    STRESS:  cpu time    8.8292: real time    8.8516
    FORCOR:  cpu time    0.0494: real time    0.0495
    FORHAR:  cpu time    0.0059: real time    0.0059
    MIXING:  cpu time    0.0065: real time    0.0067
    OFIELD:  cpu time    0.0000: real time    0.0000

  FORCE on cell =-STRESS in cart. coord.  units (eV):
  Direction    XX          YY          ZZ          XY          YZ          ZX
  --------------------------------------------------------------------------------------
  Alpha Z   453.10562   453.10562   453.10562
  Ewald   -1617.75269 -1617.75108 -1617.75298     0.00352     0.00270    -0.00244
  Hartree   631.05489   631.77006   589.68469    -0.61917     1.80590     3.12669
  E(xc)    -240.81808  -240.90007  -240.61010     0.05502     0.01277     0.02244
  Local     549.53011   545.01195   513.85605     3.91018    -4.62051    -7.99700
  n-local   365.70974   354.64295   510.32087    16.82439    -4.77956   -12.22883
  augment   105.88006   106.95083   102.14783    -0.92747     0.42596     0.43414
  Kinetic   604.36865   618.91678   617.12567     3.82372    -4.64963     4.09741
  Fock        0.00000     0.00000     0.00000     0.00000     0.00000     0.00000
  -------------------------------------------------------------------------------------
  Total     861.34531   841.48008   927.87765    17.19931    -8.46136   -14.60638
  in kB   21044.71164 20559.35685 22670.25487   420.21996  -206.73115  -356.86866
  external pressure =    21424.77 kB  Pullay stress =        0.00 kB


 VOLUME and BASIS-vectors are now :
 -----------------------------------------------------------------------------
  energy-cutoff  :      520.00
  volume of cell :       65.58
      direct lattice vectors                 reciprocal lattice vectors
    -1.796261000  3.111279000  0.000000000    -0.278346378  0.160711160 -0.056814728
    -1.796244000 -1.037046000  5.866668000     0.000000000  0.000000000  0.170454507
     1.796385000  3.111279000  0.000000000     0.278346378  0.160700067  0.113630322

  length of vectors
     3.592577152  6.222519613  3.592639153     0.326393468  0.170454507  0.340900377


 FORCES acting on ions
    electron-ion (+dipol)            ewald-force                    non-local-force                 convergence-correction
 -----------------------------------------------------------------------------------------------
   -.259E-12 0.282E-11 0.598E-11   0.267E-14 0.115E-13 0.114E-12   -.444E-15 0.000E+00 0.000E+00   0.253E-12 0.164E-12 -.200E-11
   -.462E-14 -.193E-13 -.579E-13   0.611E-14 0.127E-13 0.000E+00   0.000E+00 0.111E-15 0.000E+00   -.100E-11 0.755E-12 0.609E-14
   0.162E+01 0.936E+00 -.787E+02   -.108E-13 -.106E-13 -.517E-13   -.398E+00 -.229E+00 -.389E+01   -.171E+01 -.986E+00 0.813E+02
   -.162E+01 -.936E+00 0.787E+02   -.105E-13 -.107E-13 -.620E-13   0.398E+00 0.229E+00 0.389E+01   0.171E+01 0.986E+00 -.813E+02
 -----------------------------------------------------------------------------------------------
   -.414E-11 0.318E-11 0.398E-11   -.126E-13 0.291E-14 -.108E-17   -.444E-15 0.139E-15 0.000E+00   -.219E-12 0.696E-12 -.138E-11
 
 
 POSITION                                       TOTAL-FORCE (eV/Angst)
 -----------------------------------------------------------------------------------
     -1.79625      1.03712      2.93333        -0.000000      0.000000      0.000000
      0.00000      0.00000      0.00000        -0.000000      0.000000      0.000000
     -1.79619      3.11131      4.40000        -0.483732     -0.279273     -1.356213
      0.00007      2.07420      1.46667         0.483732      0.279273      1.356213
 -----------------------------------------------------------------------------------
    total drift:                               -0.000000      0.000000      0.000000


--------------------------------------------------------------------------------------------------------



  FREE ENERGIE OF THE ION-ELECTRON SYSTEM (eV)
  ---------------------------------------------------
  free  energy   TOTEN  =      -105.01959823 eV

  energy  without entropy=     -105.01959823  energy(sigma->0) =     -105.01959823
 


--------------------------------------------------------------------------------------------------------


    POTLOK:  cpu time    0.0609: real time    0.0610


--------------------------------------------------------------------------------------------------------


     LOOP+:  cpu time 1786.1228: real time 1791.5508
    4ORBIT:  cpu time    0.0000: real time    0.0000
 


 total charge     
 
# of ion       s       p       d       f       tot
--------------------------------------------------
    1        2.131   5.879   0.745  10.094  18.849
    2        2.083   5.862   0.496   6.276  14.717
    3        1.524   2.297   0.000   0.000   3.821
    4        1.524   2.297   0.000   0.000   3.821
--------------------------------------------------
tot          7.262  16.335   1.241  16.370  41.207

 


 magnetization (x)
 
# of ion       s       p       d       f       tot
--------------------------------------------------
    1        0.014   0.018   0.260   3.824   4.116
    2       -0.001   0.033   0.039  -0.282  -0.212
    3        0.013   0.684   0.000   0.000   0.697
    4        0.013   0.684   0.000   0.000   0.697
--------------------------------------------------
tot          0.039   1.417   0.299   3.541   5.297

 
 BZINTS: Fermi energy:  2.398778; 46.000000 electrons
         Band energy:-446.740312;  BLOECHL correction: -0.018041

 total amount of memory used by VASP MPI-rank0    67174. kBytes
=======================================================================

   base      :      30000. kBytes
   nonlr-proj:       6872. kBytes
   fftplans  :       1475. kBytes
   grid      :       6150. kBytes
   one-center:        393. kBytes
   wavefun   :      22284. kBytes
 
  
  
 General timing and accounting informations for this job:
 ========================================================
  
                  Total CPU time used (sec):     1792.142
                            User time (sec):     1787.583
                          System time (sec):        4.559
                         Elapsed time (sec):     1798.512
  
                   Maximum memory used (kb):      119492.
                   Average memory used (kb):           0.
  
                          Minor page faults:       168440
                          Major page faults:            0
                 Voluntary context switches:         1657
