unknown system                          
   1.00000000000000     
     0.000000    2.908477    0.000000
     0.000000    0.000000   -2.908477
    -5.415985    0.000000    0.000000
   Fe
     4
Direct
  0.000000  0.000000  0.506828
  0.500000  0.500000  0.743172
  0.000000  0.000000  0.006828
  0.500000  0.500000  0.243172
 
   48   48   80
 0.12697005236E+06 0.37781907237E+05 0.12588400881E+05 0.27067713366E+04 0.62717264470E+03
 0.27101437464E+03 0.17136372927E+03 0.10935643308E+03 0.65577467198E+02 0.37361657856E+02
 0.20568206819E+02 0.11076779585E+02 0.58827628207E+01 0.30976102325E+01 0.16221993442E+01
 0.84724343812E+00 0.44186754511E+00 0.23034991414E+00 0.12017611022E+00 0.62770060851E-01
 0.32957487355E-01 0.17493413068E-01 0.96870052703E-02 0.60194979178E-02 0.49778969307E-02
 0.60194979179E-02 0.96870052705E-02 0.17493413068E-01 0.32957487355E-01 0.62770060851E-01
 0.12017611022E+00 0.23034991413E+00 0.44186754511E+00 0.84724343812E+00 0.16221993442E+01
 0.30976102325E+01 0.58827628207E+01 0.11076779585E+02 0.20568206819E+02 0.37361657856E+02
 0.65577467198E+02 0.10935643308E+03 0.17136372927E+03 0.27101437464E+03 0.62717264470E+03
 0.27067713366E+04 0.12588400881E+05 0.37781907237E+05 0.37781907237E+05 0.25712568720E+05
 0.89734550710E+04 0.20875392337E+04 0.54452384365E+03 0.25696694473E+03 0.16541754614E+03
 0.10567116398E+03 0.63403038887E+02 0.36174193629E+02 0.19951803671E+02 0.10766103913E+02
 0.57286604878E+01 0.30218829523E+01 0.15850838449E+01 0.82909188434E+00 0.43298364686E+00
 0.22597923331E+00 0.11803181934E+00 0.61706984025E-01 0.32434750151E-01 0.17229035283E-01
 0.95539798944E-02 0.59397674043E-02 0.49181936623E-02 0.59397674034E-02 0.95539798946E-02
 0.17229035283E-01 0.32434750151E-01 0.61706984025E-01 0.11803181934E+00 0.22597923331E+00
 0.43298364685E+00 0.82909188434E+00 0.15850838449E+01 0.30218829523E+01 0.57286604878E+01
 0.10766103913E+02 0.19951803671E+02 0.36174193629E+02 0.63403038887E+02 0.10567116398E+03
 0.16541754614E+03 0.25696694473E+03 0.54452384365E+03 0.20875392337E+04 0.89734550710E+04
 0.25712568720E+05 0.12588400881E+05 0.89734550710E+04 0.35667513451E+04 0.10588224006E+04
 0.38838454309E+03 0.22361871046E+03 0.14900381145E+03 0.95351474645E+02 0.57326179006E+02
 0.32852692532E+02 0.18222065632E+02 0.98908020332E+01 0.52928210528E+01 0.28064535410E+01
 0.14793296027E+01 0.77717795522E+00 0.40748961900E+00 0.21339840879E+00 0.11184907216E+00
 0.58631449296E-01 0.30924285944E-01 0.16458814677E-01 0.91706828235E-02 0.57045182051E-02
 0.47477826359E-02 0.57045182049E-02 0.91706828238E-02 0.16458814677E-01 0.30924285944E-01
 0.58631449296E-01 0.11184907216E+00 0.21339840879E+00 0.40748961900E+00 0.77717795522E+00
 0.14793296027E+01 0.28064535410E+01 0.52928210528E+01 0.98908020332E+01 0.18222065632E+02
 0.32852692532E+02 0.57326179006E+02 0.95351474645E+02 0.14900381145E+03 0.22361871046E+03
 0.38838454309E+03 0.10588224006E+04 0.35667513451E+04 0.89734550710E+04 0.27067713366E+04
 0.20875392337E+04 0.10588224006E+04 0.48000149135E+03 0.27101432395E+03 0.18412517844E+03
 0.12544119942E+03 0.80381054357E+02 0.48538899672E+02 0.28035309733E+02 0.15696000283E+02
 0.86015796762E+01 0.46455819155E+01 0.24845065834E+01 0.13200614345E+01 0.69833444396E+00
 0.36856510322E+00 0.19410851372E+00 0.10230720259E+00 0.53879919272E-01 0.28570090058E-01
 0.15268053149E-01 0.85665078973E-02 0.53460025823E-02 0.44759888838E-02 0.53460025822E-02
 0.85665078976E-02 0.15268053149E-01 0.28570090057E-01 0.53879919272E-01 0.10230720259E+00
 0.19410851372E+00 0.36856510322E+00 0.69833444396E+00 0.13200614345E+01 0.24845065834E+01
 0.46455819155E+01 0.86015796762E+01 0.15696000283E+02 0.28035309733E+02 0.48538899672E+02
 0.80381054357E+02 0.12544119942E+03 0.18412517844E+03 0.27101432395E+03 0.48000149135E+03
 0.10588224006E+04 0.20875392337E+04 0.62717264470E+03 0.54452384365E+03 0.38838454309E+03
 0.27101432395E+03 0.19833599615E+03 0.14394508767E+03 0.98672575449E+02 0.63403036539E+02
 0.38591665477E+02 0.22547713643E+02 0.12787613437E+02 0.70992928869E+01 0.38823735591E+01
 0.21001533319E+01 0.11276820562E+01 0.60230585258E+00 0.32071925896E+00 0.17025049075E+00
 0.90397680758E-01 0.47935708347E-01 0.25593442303E-01 0.13773264867E-01 0.77930664861E-02
 0.49023420709E-02 0.41248252833E-02 0.49023420712E-02 0.77930664865E-02 0.13773264867E-01
 0.25593442303E-01 0.47935708347E-01 0.90397680758E-01 0.17025049075E+00 0.32071925896E+00
 0.60230585258E+00 0.11276820562E+01 0.21001533319E+01 0.38823735591E+01 0.70992928869E+01
 0.12787613437E+02 0.22547713643E+02 0.38591665477E+02 0.63403036539E+02 0.98672575449E+02
 0.14394508767E+03 0.19833599615E+03 0.27101432395E+03 0.38838454309E+03 0.54452384365E+03
 0.27101437464E+03 0.25696694473E+03 0.22361871046E+03 0.18412517844E+03 0.14394508767E+03
 0.10567109593E+03 0.72585653308E+02 0.46961874525E+02 0.28932934057E+02 0.17161043130E+02
 0.98908187988E+01 0.55790862761E+01 0.30976247924E+01 0.16994265049E+01 0.92443279838E+00
 0.49962892406E+00 0.26887484227E+00 0.14420182002E+00 0.77234629067E-01 0.41354436512E-01
 0.22245541355E-01 0.12118587732E-01 0.69079036690E-02 0.44281301932E-02 0.37170131077E-02
 0.44281301932E-02 0.69079036693E-02 0.12118587732E-01 0.22245541355E-01 0.41354436512E-01
 0.77234629067E-01 0.14420182002E+00 0.26887484227E+00 0.49962892406E+00 0.92443279838E+00
 0.16994265049E+01 0.30976247924E+01 0.55790862761E+01 0.98908187988E+01 0.17161043130E+02
 0.28932934057E+02 0.46961874525E+02 0.72585653308E+02 0.10567109593E+03 0.14394508767E+03
 0.18412517844E+03 0.22361871046E+03 0.25696694473E+03 0.17136372927E+03 0.16541754614E+03
 0.14900381145E+03 0.12544119942E+03 0.98672575449E+02 0.72585653308E+02 0.50173164398E+02
 0.32852646143E+02 0.20568257088E+02 0.12423458943E+02 0.72948864921E+01 0.41908810357E+01
 0.23675318687E+01 0.13200879316E+01 0.72885406505E+00 0.39942278074E+00 0.21758228254E+00
 0.11812852924E+00 0.63921540048E-01 0.34641711150E-01 0.18809748359E-01 0.10418020437E-01
 0.60006711175E-02 0.39503391931E-02 0.33066773309E-02 0.39503391927E-02 0.60006711180E-02
 0.10418020437E-01 0.18809748359E-01 0.34641711150E-01 0.63921540048E-01 0.11812852924E+00
 0.21758228254E+00 0.39942278074E+00 0.72885406505E+00 0.13200879316E+01 0.23675318687E+01
 0.41908810357E+01 0.72948864921E+01 0.12423458943E+02 0.20568257088E+02 0.32852646143E+02
 0.50173164398E+02 0.72585653308E+02 0.98672575449E+02 0.12544119942E+03 0.14900381145E+03
 0.16541754614E+03 0.10935643308E+03 0.10567116398E+03 0.95351474645E+02 0.80381054357E+02
 0.63403036539E+02 0.46961874525E+02 0.32852646143E+02 0.21865477552E+02 0.13953494136E+02
 0.86015909175E+01 0.51559422912E+01 0.30219017588E+01 0.17395955806E+01 0.98744798375E+00
 0.55414284593E+00 0.30838108471E+00 0.17037679694E+00 0.93737728230E-01 0.51382180665E-01
 0.28212791364E-01 0.15545136354E-01 0.87658988666E-02 0.51670726592E-02 0.34891536010E-02
 0.29582852607E-02 0.34891536016E-02 0.51670726598E-02 0.87658988666E-02 0.15545136354E-01
 0.28212791364E-01 0.51382180665E-01 0.93737728230E-01 0.17037679694E+00 0.30838108471E+00
 0.55414284593E+00 0.98744798375E+00 0.17395955806E+01 0.30219017588E+01 0.51559422912E+01
 0.86015909175E+01 0.13953494136E+02 0.21865477552E+02 0.32852646143E+02 0.46961874525E+02
 0.63403036539E+02 0.80381054357E+02 0.95351474645E+02 0.10567116398E+03 0.65577467198E+02
 0.63403038887E+02 0.57326179006E+02 0.48538899672E+02 0.38591665477E+02 0.28932934057E+02
 0.20568257088E+02 0.13953494136E+02 0.90932636469E+01 0.57287612361E+01 0.35089941782E+01
 0.21002448405E+01 0.12335009834E+01 0.71350460871E+00 0.40762712342E+00 0.23050954583E+00
 0.12941655847E+00 0.72212739672E-01 0.40229182793E-01 0.22403858189E-01 0.12626563518E-01
 0.72620400889E-02 0.44661264114E-02 0.30851477721E-02 0.27085763088E-02 0.30851477725E-02
 0.44661264114E-02 0.72620400890E-02 0.12626563518E-01 0.22403858189E-01 0.40229182794E-01
 0.72212739672E-01 0.12941655848E+00 0.23050954583E+00 0.40762712342E+00 0.71350460871E+00
 0.12335009834E+01 0.21002448405E+01 0.35089941782E+01 0.57287612361E+01 0.90932636469E+01
 0.13953494136E+02 0.20568257088E+02 0.28932934057E+02 0.38591665477E+02 0.48538899672E+02
 0.57326179006E+02 0.63403038887E+02 0.37361657856E+02 0.36174193629E+02 0.32852692532E+02
 0.28035309733E+02 0.22547713643E+02 0.17161043130E+02 0.12423458943E+02 0.86015909175E+01
 0.57287612361E+01 0.36904029180E+01 0.23112680200E+01 0.14133202161E+01 0.84734171299E+00
 0.49978482531E+00 0.29082110194E+00 0.16738142262E+00 0.95538260304E-01 0.54229608760E-01
 0.30729911308E-01 0.17487725301E-01 0.10104817045E-01 0.60446294623E-02 0.38848966164E-02
 0.28389245126E-02 0.25313504043E-02 0.28389245125E-02 0.38848966162E-02 0.60446294622E-02
 0.10104817045E-01 0.17487725301E-01 0.30729911308E-01 0.54229608760E-01 0.95538260304E-01
 0.16738142262E+00 0.29082110194E+00 0.49978482531E+00 0.84734171299E+00 0.14133202161E+01
 0.23112680200E+01 0.36904029180E+01 0.57287612361E+01 0.86015909175E+01 0.12423458943E+02
 0.17161043130E+02 0.22547713643E+02 0.28035309733E+02 0.32852692532E+02 0.36174193629E+02
 0.20568206819E+02 0.19951803671E+02 0.18222065632E+02 0.15696000283E+02 0.12787613437E+02
 0.98908187988E+01 0.72948864921E+01 0.51559422912E+01 0.35089941782E+01 0.23112680200E+01
 0.14794454833E+01 0.92448756782E+00 0.56591499500E+00 0.34050195419E+00 0.20190533146E+00
 0.11837955827E+00 0.68799687538E-01 0.39817540361E-01 0.23051642377E-01 0.13497184032E-01
 0.80925262185E-02 0.51145874680E-02 0.35038682698E-02 0.27394059818E-02 0.24990330476E-02
 0.27394059817E-02 0.35038682700E-02 0.51145874679E-02 0.80925262185E-02 0.13497184032E-01
 0.23051642377E-01 0.39817540361E-01 0.68799687538E-01 0.11837955826E+00 0.20190533146E+00
 0.34050195419E+00 0.56591499500E+00 0.92448756782E+00 0.14794454833E+01 0.23112680200E+01
 0.35089941782E+01 0.51559422912E+01 0.72948864921E+01 0.98908187988E+01 0.12787613437E+02
 0.15696000283E+02 0.18222065632E+02 0.19951803671E+02 0.11076779585E+02 0.10766103913E+02
 0.98908020332E+01 0.86015796762E+01 0.70992928869E+01 0.55790862761E+01 0.41908810357E+01
 0.30219017588E+01 0.21002448405E+01 0.14133202161E+01 0.92448756782E+00 0.59004672744E+00
 0.36875505475E+00 0.22630878349E+00 0.13686869554E+00 0.81803347438E-01 0.48537393481E-01
 0.28728495628E-01 0.17131649236E-01 0.10418357785E-01 0.66163543758E-02 0.44889098590E-02
 0.33619416963E-02 0.28062740174E-02 0.26515183191E-02 0.28062740169E-02 0.33619416966E-02
 0.44889098592E-02 0.66163543756E-02 0.10418357785E-01 0.17131649236E-01 0.28728495628E-01
 0.48537393480E-01 0.81803347438E-01 0.13686869554E+00 0.22630878349E+00 0.36875505475E+00
 0.59004672744E+00 0.92448756782E+00 0.14133202161E+01 0.21002448405E+01 0.30219017588E+01
 0.41908810357E+01 0.55790862761E+01 0.70992928869E+01 0.86015796762E+01 0.98908020332E+01
 0.10766103913E+02 0.58827628207E+01 0.57286604878E+01 0.52928210528E+01 0.46455819155E+01
 0.38823735591E+01 0.30976247924E+01 0.23675318687E+01 0.17395955806E+01 0.12335009834E+01
 0.84734171299E+00 0.56591499500E+00 0.36875505475E+00 0.23514527996E+00 0.14727212643E+00
 0.90872442692E-01 0.55491312040E-01 0.33709577644E-01 0.20562104029E-01 0.12754629195E-01
 0.82202530392E-02 0.56318189622E-02 0.42066567843E-02 0.34459507680E-02 0.30904750685E-02
 0.29808657230E-02 0.30904750692E-02 0.34459507681E-02 0.42066567845E-02 0.56318189621E-02
 0.82202530390E-02 0.12754629195E-01 0.20562104029E-01 0.33709577643E-01 0.55491312040E-01
 0.90872442693E-01 0.14727212643E+00 0.23514527996E+00 0.36875505475E+00 0.56591499500E+00
 0.84734171299E+00 0.12335009834E+01 0.17395955806E+01 0.23675318687E+01 0.30976247924E+01
 0.38823735591E+01 0.46455819155E+01 0.52928210528E+01 0.57286604878E+01 0.30976102325E+01
 0.30218829523E+01 0.28064535410E+01 0.24845065834E+01 0.21001533319E+01 0.16994265049E+01
 0.13200879316E+01 0.98744798375E+00 0.71350460871E+00 0.49978482531E+00 0.34050195419E+00
 0.22630878349E+00 0.14727212643E+00 0.94133717268E-01 0.59367947631E-01 0.37142434814E-01
 0.23262404684E-01 0.14775513487E-01 0.97172134564E-02 0.67753486981E-02 0.51284501947E-02
 0.42392848823E-02 0.37934133563E-02 0.35884616033E-02 0.35338564976E-02 0.35884616035E-02
 0.37934133562E-02 0.42392848822E-02 0.51284501945E-02 0.67753486979E-02 0.97172134563E-02
 0.14775513487E-01 0.23262404684E-01 0.37142434814E-01 0.59367947631E-01 0.94133717268E-01
 0.14727212643E+00 0.22630878349E+00 0.34050195419E+00 0.49978482531E+00 0.71350460871E+00
 0.98744798375E+00 0.13200879316E+01 0.16994265049E+01 0.21001533319E+01 0.24845065834E+01
 0.28064535410E+01 0.30218829523E+01 0.16221993442E+01 0.15850838449E+01 0.14793296027E+01
 0.13200614345E+01 0.11276820562E+01 0.92443279838E+00 0.72885406505E+00 0.55414284593E+00
 0.40762712342E+00 0.29082110194E+00 0.20190533146E+00 0.13686869554E+00 0.90872442693E-01
 0.59367947631E-01 0.38369434895E-01 0.24755284554E-01 0.16153896782E-01 0.10882668625E-01
 0.77564719051E-02 0.59906201788E-02 0.50480241025E-02 0.45904956790E-02 0.43907740878E-02
 0.43215745096E-02 0.43039265289E-02 0.43215745102E-02 0.43907740878E-02 0.45904956789E-02
 0.50480241024E-02 0.59906201788E-02 0.77564719051E-02 0.10882668625E-01 0.16153896782E-01
 0.24755284554E-01 0.38369434895E-01 0.59367947631E-01 0.90872442693E-01 0.13686869554E+00
 0.20190533146E+00 0.29082110194E+00 0.40762712342E+00 0.55414284593E+00 0.72885406505E+00
 0.92443279838E+00 0.11276820562E+01 0.13200614345E+01 0.14793296027E+01 0.15850838449E+01
 0.84724343813E+00 0.82909188434E+00 0.77717795522E+00 0.69833444396E+00 0.60230585258E+00
 0.49962892406E+00 0.39942278074E+00 0.30838108471E+00 0.23050954583E+00 0.16738142262E+00
 0.11837955827E+00 0.81803347438E-01 0.55491312041E-01 0.37142434814E-01 0.24755284554E-01
 0.16643910090E-01 0.11522307813E-01 0.84211474659E-02 0.66594692215E-02 0.57423725774E-02
 0.53403236286E-02 0.52201068285E-02 0.52338109984E-02 0.52771354582E-02 0.52992305400E-02
 0.52771354589E-02 0.52338109979E-02 0.52201068286E-02 0.53403236287E-02 0.57423725776E-02
 0.66594692214E-02 0.84211474659E-02 0.11522307812E-01 0.16643910090E-01 0.24755284554E-01
 0.37142434814E-01 0.55491312041E-01 0.81803347438E-01 0.11837955827E+00 0.16738142262E+00
 0.23050954583E+00 0.30838108471E+00 0.39942278074E+00 0.49962892406E+00 0.60230585258E+00
 0.69833444396E+00 0.77717795522E+00 0.82909188434E+00 0.44186754511E+00 0.43298364685E+00
 0.40748961900E+00 0.36856510322E+00 0.32071925896E+00 0.26887484227E+00 0.21758228254E+00
 0.17037679694E+00 0.12941655847E+00 0.95538260304E-01 0.68799687538E-01 0.48537393480E-01
 0.33709577644E-01 0.23262404684E-01 0.16153896782E-01 0.11522307812E-01 0.86565539930E-02
 0.70250116595E-02 0.62109102785E-02 0.59229663748E-02 0.59407506692E-02 0.61084433254E-02
 0.63049574723E-02 0.64550784549E-02 0.65088589415E-02 0.64550784544E-02 0.63049574722E-02
 0.61084433254E-02 0.59407506692E-02 0.59229663751E-02 0.62109102785E-02 0.70250116595E-02
 0.86565539931E-02 0.11522307812E-01 0.16153896782E-01 0.23262404684E-01 0.33709577644E-01
 0.48537393481E-01 0.68799687538E-01 0.95538260304E-01 0.12941655847E+00 0.17037679694E+00
 0.21758228254E+00 0.26887484227E+00 0.32071925896E+00 0.36856510322E+00 0.40748961900E+00
 0.43298364685E+00 0.23034991414E+00 0.22597923331E+00 0.21339840879E+00 0.19410851372E+00
 0.17025049075E+00 0.14420182002E+00 0.11812852924E+00 0.93737728230E-01 0.72212739672E-01
 0.54229608760E-01 0.39817540361E-01 0.28728495628E-01 0.20562104030E-01 0.14775513488E-01
 0.10882668626E-01 0.84211474663E-02 0.70250116594E-02 0.63764376462E-02 0.62422938900E-02
 0.64317919547E-02 0.67939867235E-02 0.72010784994E-02 0.75613701796E-02 0.78039426490E-02
 0.78904207685E-02 0.78039426484E-02 0.75613701799E-02 0.72010784993E-02 0.67939867235E-02
 0.64317919549E-02 0.62422938903E-02 0.63764376464E-02 0.70250116596E-02 0.84211474664E-02
 0.10882668626E-01 0.14775513488E-01 0.20562104030E-01 0.28728495628E-01 0.39817540361E-01
 0.54229608760E-01 0.72212739672E-01 0.93737728230E-01 0.11812852924E+00 0.14420182002E+00
 0.17025049075E+00 0.19410851372E+00 0.21339840879E+00 0.22597923331E+00 0.12017611022E+00
 0.11803181934E+00 0.11184907216E+00 0.10230720259E+00 0.90397680758E-01 0.77234629067E-01
 0.63921540049E-01 0.51382180666E-01 0.40229182794E-01 0.30729911307E-01 0.23051642377E-01
 0.17131649236E-01 0.12754629195E-01 0.97172134569E-02 0.77564719051E-02 0.66594692217E-02
 0.62109102787E-02 0.62422938901E-02 0.66059490212E-02 0.71695311175E-02 0.78094080432E-02
 0.84257489817E-02 0.89317004938E-02 0.92641381370E-02 0.93790896537E-02 0.92641381362E-02
 0.89317004934E-02 0.84257489817E-02 0.78094080434E-02 0.71695311177E-02 0.66059490215E-02
 0.62422938905E-02 0.62109102786E-02 0.66594692217E-02 0.77564719051E-02 0.97172134566E-02
 0.12754629195E-01 0.17131649236E-01 0.23051642376E-01 0.30729911308E-01 0.40229182794E-01
 0.51382180666E-01 0.63921540049E-01 0.77234629067E-01 0.90397680758E-01 0.10230720259E+00
 0.11184907216E+00 0.11803181934E+00 0.62770060850E-01 0.61706984024E-01 0.58631449296E-01
 0.53879919272E-01 0.47935708347E-01 0.41354436512E-01 0.34641711150E-01 0.28212791364E-01
 0.22403858189E-01 0.17487725301E-01 0.13497184032E-01 0.10418357785E-01 0.82202530389E-02
 0.67753486982E-02 0.59906201788E-02 0.57423725776E-02 0.59229663750E-02 0.64317919548E-02
 0.71695311176E-02 0.80249436007E-02 0.89004428202E-02 0.97006890242E-02 0.10344266440E-01
 0.10759927301E-01 0.10904532007E-01 0.10759927300E-01 0.10344266440E-01 0.97006890242E-02
 0.89004428205E-02 0.80249436008E-02 0.71695311174E-02 0.64317919551E-02 0.59229663752E-02
 0.57423725776E-02 0.59906201788E-02 0.67753486979E-02 0.82202530390E-02 0.10418357785E-01
 0.13497184032E-01 0.17487725301E-01 0.22403858189E-01 0.28212791364E-01 0.34641711150E-01
 0.41354436512E-01 0.47935708347E-01 0.53879919272E-01 0.58631449296E-01 0.61706984024E-01
 0.32957487356E-01 0.32434750151E-01 0.30924285944E-01 0.28570090058E-01 0.25593442303E-01
 0.22245541355E-01 0.18809748359E-01 0.15545136354E-01 0.12626563519E-01 0.10104817045E-01
 0.80925262184E-02 0.66163543758E-02 0.56318189622E-02 0.51284501947E-02 0.50480241024E-02
 0.53403236291E-02 0.59407506691E-02 0.67939867236E-02 0.78094080433E-02 0.89004428203E-02
 0.99736312385E-02 0.10939900656E-01 0.11706501773E-01 0.12201056546E-01 0.12370810200E-01
 0.12201056546E-01 0.11706501773E-01 0.10939900656E-01 0.99736312385E-02 0.89004428208E-02
 0.78094080431E-02 0.67939867238E-02 0.59407506693E-02 0.53403236289E-02 0.50480241025E-02
 0.51284501945E-02 0.56318189624E-02 0.66163543756E-02 0.80925262183E-02 0.10104817045E-01
 0.12626563518E-01 0.15545136354E-01 0.18809748359E-01 0.22245541355E-01 0.25593442302E-01
 0.28570090058E-01 0.30924285944E-01 0.32434750151E-01 0.17493413065E-01 0.17229035282E-01
 0.16458814677E-01 0.15268053148E-01 0.13773264867E-01 0.12118587732E-01 0.10418020438E-01
 0.87658988668E-02 0.72620400889E-02 0.60446294623E-02 0.51145874678E-02 0.44889098592E-02
 0.42066567846E-02 0.42392848825E-02 0.45904956786E-02 0.52201068288E-02 0.61084433252E-02
 0.72010784992E-02 0.84257489815E-02 0.97006890239E-02 0.10939900656E-01 0.12043763857E-01
 0.12917008942E-01 0.13476602001E-01 0.13669902004E-01 0.13476602001E-01 0.12917008942E-01
 0.12043763857E-01 0.10939900656E-01 0.97006890242E-02 0.84257489814E-02 0.72010784996E-02
 0.61084433253E-02 0.52201068287E-02 0.45904956788E-02 0.42392848823E-02 0.42066567846E-02
 0.44889098590E-02 0.51145874677E-02 0.60446294620E-02 0.72620400892E-02 0.87658988668E-02
 0.10418020437E-01 0.12118587732E-01 0.13773264867E-01 0.15268053148E-01 0.16458814677E-01
 0.17229035282E-01 0.96870052702E-02 0.95539798943E-02 0.91706828239E-02 0.85665078974E-02
 0.77930664861E-02 0.69079036687E-02 0.60006711177E-02 0.51670726596E-02 0.44661264119E-02
 0.38848966163E-02 0.35038682700E-02 0.33619416968E-02 0.34459507685E-02 0.37934133565E-02
 0.43907740873E-02 0.52338109986E-02 0.63049574715E-02 0.75613701798E-02 0.89317004940E-02
 0.10344266440E-01 0.11706501772E-01 0.12917008942E-01 0.13870170943E-01 0.14481354911E-01
 0.14691107959E-01 0.14481354912E-01 0.13870170943E-01 0.12917008942E-01 0.11706501773E-01
 0.10344266440E-01 0.89317004940E-02 0.75613701804E-02 0.63049574717E-02 0.52338109984E-02
 0.43907740877E-02 0.37934133564E-02 0.34459507685E-02 0.33619416966E-02 0.35038682701E-02
 0.38848966162E-02 0.44661264117E-02 0.51670726596E-02 0.60006711176E-02 0.69079036688E-02
 0.77930664862E-02 0.85665078975E-02 0.91706828238E-02 0.95539798945E-02 0.60194979165E-02
 0.59397674042E-02 0.57045182053E-02 0.53460025826E-02 0.49023420711E-02 0.44281301932E-02
 0.39503391929E-02 0.34891536020E-02 0.30851477723E-02 0.28389245121E-02 0.27394059810E-02
 0.28062740171E-02 0.30904750690E-02 0.35884616030E-02 0.43215745093E-02 0.52771354587E-02
 0.64550784549E-02 0.78039426489E-02 0.92641381372E-02 0.10759927300E-01 0.12201056547E-01
 0.13476602001E-01 0.14481354912E-01 0.15123295521E-01 0.15344874071E-01 0.15123295523E-01
 0.14481354911E-01 0.13476602001E-01 0.12201056547E-01 0.10759927301E-01 0.92641381371E-02
 0.78039426493E-02 0.64550784553E-02 0.52771354585E-02 0.43215745098E-02 0.35884616030E-02
 0.30904750688E-02 0.28062740169E-02 0.27394059811E-02 0.28389245123E-02 0.30851477726E-02
 0.34891536019E-02 0.39503391927E-02 0.44281301933E-02 0.49023420711E-02 0.53460025827E-02
 0.57045182053E-02 0.59397674039E-02 0.49778969321E-02 0.49181936622E-02 0.47477826344E-02
 0.44759888847E-02 0.41248252826E-02 0.37170131077E-02 0.33066773321E-02 0.29582852600E-02
 0.27085763094E-02 0.25313504049E-02 0.24990330487E-02 0.26515183197E-02 0.29808657250E-02
 0.35338564967E-02 0.43039265292E-02 0.52992305403E-02 0.65088589434E-02 0.78904207707E-02
 0.93790896563E-02 0.10904532008E-01 0.12370810199E-01 0.13669902005E-01 0.14691107958E-01
 0.15344874070E-01 0.15569326881E-01 0.15344874070E-01 0.14691107958E-01 0.13669902005E-01
 0.12370810199E-01 0.10904532008E-01 0.93790896562E-02 0.78904207709E-02 0.65088589436E-02
 0.52992305404E-02 0.43039265294E-02 0.35338564966E-02 0.29808657249E-02 0.26515183195E-02
 0.24990330488E-02 0.25313504049E-02 0.27085763093E-02 0.29582852599E-02 0.33066773320E-02
 0.37170131077E-02 0.41248252828E-02 0.44759888848E-02 0.47477826343E-02 0.49181936617E-02
 0.60194979171E-02 0.59397674040E-02 0.57045182055E-02 0.53460025825E-02 0.49023420711E-02
 0.44281301932E-02 0.39503391928E-02 0.34891536019E-02 0.30851477725E-02 0.28389245123E-02
 0.27394059811E-02 0.28062740171E-02 0.30904750686E-02 0.35884616031E-02 0.43215745097E-02
 0.52771354585E-02 0.64550784553E-02 0.78039426492E-02 0.92641381372E-02 0.10759927301E-01
 0.12201056546E-01 0.13476602001E-01 0.14481354912E-01 0.15123295521E-01 0.15344874069E-01
 0.15123295523E-01 0.14481354911E-01 0.13476602001E-01 0.12201056546E-01 0.10759927301E-01
 0.92641381372E-02 0.78039426494E-02 0.64550784553E-02 0.52771354584E-02 0.43215745097E-02
 0.35884616029E-02 0.30904750688E-02 0.28062740170E-02 0.27394059812E-02 0.28389245121E-02
 0.30851477725E-02 0.34891536019E-02 0.39503391927E-02 0.44281301933E-02 0.49023420714E-02
 0.53460025827E-02 0.57045182056E-02 0.59397674039E-02 0.96870052707E-02 0.95539798947E-02
 0.91706828236E-02 0.85665078972E-02 0.77930664864E-02 0.69079036687E-02 0.60006711175E-02
 0.51670726596E-02 0.44661264112E-02 0.38848966163E-02 0.35038682700E-02 0.33619416967E-02
 0.34459507683E-02 0.37934133565E-02 0.43907740876E-02 0.52338109982E-02 0.63049574723E-02
 0.75613701801E-02 0.89317004939E-02 0.10344266440E-01 0.11706501773E-01 0.12917008942E-01
 0.13870170943E-01 0.14481354911E-01 0.14691107960E-01 0.14481354912E-01 0.13870170943E-01
 0.12917008942E-01 0.11706501773E-01 0.10344266440E-01 0.89317004941E-02 0.75613701804E-02
 0.63049574720E-02 0.52338109983E-02 0.43907740876E-02 0.37934133563E-02 0.34459507684E-02
 0.33619416965E-02 0.35038682701E-02 0.38848966161E-02 0.44661264113E-02 0.51670726596E-02
 0.60006711174E-02 0.69079036689E-02 0.77930664864E-02 0.85665078974E-02 0.91706828238E-02
 0.95539798947E-02 0.17493413066E-01 0.17229035282E-01 0.16458814677E-01 0.15268053148E-01
 0.13773264867E-01 0.12118587732E-01 0.10418020437E-01 0.87658988668E-02 0.72620400886E-02
 0.60446294622E-02 0.51145874678E-02 0.44889098591E-02 0.42066567846E-02 0.42392848826E-02
 0.45904956786E-02 0.52201068284E-02 0.61084433253E-02 0.72010784994E-02 0.84257489815E-02
 0.97006890239E-02 0.10939900656E-01 0.12043763857E-01 0.12917008942E-01 0.13476602001E-01
 0.13669902005E-01 0.13476602001E-01 0.12917008942E-01 0.12043763857E-01 0.10939900656E-01
 0.97006890241E-02 0.84257489817E-02 0.72010784995E-02 0.61084433255E-02 0.52201068285E-02
 0.45904956788E-02 0.42392848825E-02 0.42066567844E-02 0.44889098588E-02 0.51145874677E-02
 0.60446294621E-02 0.72620400886E-02 0.87658988669E-02 0.10418020437E-01 0.12118587732E-01
 0.13773264867E-01 0.15268053148E-01 0.16458814677E-01 0.17229035282E-01 0.32957487354E-01
 0.32434750151E-01 0.30924285944E-01 0.28570090057E-01 0.25593442303E-01 0.22245541355E-01
 0.18809748359E-01 0.15545136354E-01 0.12626563518E-01 0.10104817045E-01 0.80925262182E-02
 0.66163543757E-02 0.56318189623E-02 0.51284501947E-02 0.50480241022E-02 0.53403236287E-02
 0.59407506692E-02 0.67939867239E-02 0.78094080432E-02 0.89004428204E-02 0.99736312384E-02
 0.10939900657E-01 0.11706501773E-01 0.12201056546E-01 0.12370810199E-01 0.12201056546E-01
 0.11706501773E-01 0.10939900657E-01 0.99736312387E-02 0.89004428206E-02 0.78094080433E-02
 0.67939867240E-02 0.59407506692E-02 0.53403236289E-02 0.50480241027E-02 0.51284501946E-02
 0.56318189620E-02 0.66163543755E-02 0.80925262183E-02 0.10104817045E-01 0.12626563518E-01
 0.15545136355E-01 0.18809748359E-01 0.22245541355E-01 0.25593442302E-01 0.28570090057E-01
 0.30924285944E-01 0.32434750151E-01 0.62770060851E-01 0.61706984024E-01 0.58631449296E-01
 0.53879919272E-01 0.47935708347E-01 0.41354436512E-01 0.34641711150E-01 0.28212791364E-01
 0.22403858189E-01 0.17487725301E-01 0.13497184032E-01 0.10418357785E-01 0.82202530389E-02
 0.67753486982E-02 0.59906201787E-02 0.57423725775E-02 0.59229663753E-02 0.64317919553E-02
 0.71695311175E-02 0.80249436006E-02 0.89004428203E-02 0.97006890242E-02 0.10344266440E-01
 0.10759927301E-01 0.10904532008E-01 0.10759927300E-01 0.10344266440E-01 0.97006890243E-02
 0.89004428203E-02 0.80249436008E-02 0.71695311178E-02 0.64317919552E-02 0.59229663754E-02
 0.57423725776E-02 0.59906201789E-02 0.67753486980E-02 0.82202530386E-02 0.10418357785E-01
 0.13497184032E-01 0.17487725301E-01 0.22403858189E-01 0.28212791365E-01 0.34641711150E-01
 0.41354436512E-01 0.47935708347E-01 0.53879919272E-01 0.58631449296E-01 0.61706984024E-01
 0.12017611022E+00 0.11803181934E+00 0.11184907216E+00 0.10230720259E+00 0.90397680758E-01
 0.77234629067E-01 0.63921540049E-01 0.51382180666E-01 0.40229182794E-01 0.30729911308E-01
 0.23051642377E-01 0.17131649236E-01 0.12754629195E-01 0.97172134569E-02 0.77564719052E-02
 0.66594692218E-02 0.62109102788E-02 0.62422938908E-02 0.66059490216E-02 0.71695311175E-02
 0.78094080432E-02 0.84257489814E-02 0.89317004936E-02 0.92641381369E-02 0.93790896554E-02
 0.92641381360E-02 0.89317004935E-02 0.84257489817E-02 0.78094080431E-02 0.71695311176E-02
 0.66059490216E-02 0.62422938905E-02 0.62109102791E-02 0.66594692218E-02 0.77564719052E-02
 0.97172134566E-02 0.12754629195E-01 0.17131649236E-01 0.23051642377E-01 0.30729911307E-01
 0.40229182794E-01 0.51382180666E-01 0.63921540049E-01 0.77234629067E-01 0.90397680758E-01
 0.10230720259E+00 0.11184907216E+00 0.11803181934E+00 0.23034991414E+00 0.22597923331E+00
 0.21339840879E+00 0.19410851372E+00 0.17025049075E+00 0.14420182002E+00 0.11812852924E+00
 0.93737728230E-01 0.72212739672E-01 0.54229608760E-01 0.39817540361E-01 0.28728495628E-01
 0.20562104029E-01 0.14775513488E-01 0.10882668625E-01 0.84211474664E-02 0.70250116598E-02
 0.63764376466E-02 0.62422938904E-02 0.64317919548E-02 0.67939867235E-02 0.72010784995E-02
 0.75613701798E-02 0.78039426490E-02 0.78904207691E-02 0.78039426482E-02 0.75613701798E-02
 0.72010784996E-02 0.67939867234E-02 0.64317919551E-02 0.62422938904E-02 0.63764376464E-02
 0.70250116594E-02 0.84211474663E-02 0.10882668625E-01 0.14775513487E-01 0.20562104029E-01
 0.28728495628E-01 0.39817540361E-01 0.54229608760E-01 0.72212739672E-01 0.93737728230E-01
 0.11812852924E+00 0.14420182002E+00 0.17025049075E+00 0.19410851372E+00 0.21339840879E+00
 0.22597923331E+00 0.44186754511E+00 0.43298364685E+00 0.40748961900E+00 0.36856510322E+00
 0.32071925896E+00 0.26887484227E+00 0.21758228254E+00 0.17037679694E+00 0.12941655847E+00
 0.95538260304E-01 0.68799687538E-01 0.48537393481E-01 0.33709577644E-01 0.23262404684E-01
 0.16153896782E-01 0.11522307812E-01 0.86565539931E-02 0.70250116597E-02 0.62109102789E-02
 0.59229663751E-02 0.59407506692E-02 0.61084433254E-02 0.63049574722E-02 0.64550784555E-02
 0.65088589421E-02 0.64550784545E-02 0.63049574724E-02 0.61084433253E-02 0.59407506690E-02
 0.59229663752E-02 0.62109102788E-02 0.70250116596E-02 0.86565539929E-02 0.11522307813E-01
 0.16153896782E-01 0.23262404684E-01 0.33709577644E-01 0.48537393481E-01 0.68799687538E-01
 0.95538260304E-01 0.12941655847E+00 0.17037679694E+00 0.21758228254E+00 0.26887484227E+00
 0.32071925896E+00 0.36856510322E+00 0.40748961900E+00 0.43298364685E+00 0.84724343812E+00
 0.82909188434E+00 0.77717795522E+00 0.69833444396E+00 0.60230585258E+00 0.49962892406E+00
 0.39942278074E+00 0.30838108471E+00 0.23050954583E+00 0.16738142262E+00 0.11837955827E+00
 0.81803347438E-01 0.55491312041E-01 0.37142434814E-01 0.24755284554E-01 0.16643910091E-01
 0.11522307813E-01 0.84211474662E-02 0.66594692219E-02 0.57423725777E-02 0.53403236287E-02
 0.52201068286E-02 0.52338109983E-02 0.52771354585E-02 0.52992305405E-02 0.52771354588E-02
 0.52338109981E-02 0.52201068287E-02 0.53403236286E-02 0.57423725778E-02 0.66594692216E-02
 0.84211474661E-02 0.11522307813E-01 0.16643910091E-01 0.24755284554E-01 0.37142434814E-01
 0.55491312041E-01 0.81803347438E-01 0.11837955827E+00 0.16738142262E+00 0.23050954583E+00