unknown system                          
   1.00000000000000     
     0.000000    2.908477    0.000000
     0.000000    0.000000   -2.908477
    -5.415985    0.000000    0.000000
   Fe
     4
Direct
  0.000000  0.000000  0.506828
  0.500000  0.500000  0.743172
  0.000000  0.000000  0.006828
  0.500000  0.500000  0.243172
 
   48   48   80
 0.47195476884E+04 0.32056971233E+04 0.58920826030E+03 0.51461374224E+03 0.82105598196E+03
 0.83060257730E+03 0.66199015084E+03 0.46814677015E+03 0.31198857608E+03 0.20273874601E+03
 0.13130450871E+03 0.86135916786E+02 0.58008247290E+02 0.40569387811E+02 0.29721497491E+02
 0.22912133407E+02 0.18408122127E+02 0.15759021138E+02 0.13935879827E+02 0.12719688696E+02
 0.11926113969E+02 0.11419036799E+02 0.11108169951E+02 0.10939730312E+02 0.10886335824E+02
 0.10939730312E+02 0.11108169951E+02 0.11419036799E+02 0.11926113969E+02 0.12719688696E+02
 0.13935879827E+02 0.15759021138E+02 0.18408122127E+02 0.22912133407E+02 0.29721497491E+02
 0.40569387811E+02 0.58008247290E+02 0.86135916786E+02 0.13130450871E+03 0.20273874601E+03
 0.31198857608E+03 0.46814677015E+03 0.66199015084E+03 0.83060257730E+03 0.82105598196E+03
 0.51461374224E+03 0.58920826030E+03 0.32056971233E+04 0.32056971233E+04 0.18066662649E+04
 0.50497297469E+03 0.62853374927E+03 0.86895157420E+03 0.83549253731E+03 0.65464620763E+03
 0.46051455158E+03 0.30668309747E+03 0.19952885209E+03 0.12948717185E+03 0.85145781548E+02
 0.57483379330E+02 0.40298697912E+02 0.29586291707E+02 0.22848086348E+02 0.18388448721E+02
 0.15751094440E+02 0.13935730696E+02 0.12723963902E+02 0.11932457673E+02 0.11426044996E+02
 0.11115173264E+02 0.10946549467E+02 0.10893064606E+02 0.10946549467E+02 0.11115173264E+02
 0.11426044996E+02 0.11932457673E+02 0.12723963902E+02 0.13935730696E+02 0.15751094440E+02
 0.18388448721E+02 0.22848086348E+02 0.29586291707E+02 0.40298697912E+02 0.57483379330E+02
 0.85145781548E+02 0.12948717185E+03 0.19952885209E+03 0.30668309747E+03 0.46051455158E+03
 0.65464620763E+03 0.83549253731E+03 0.86895157420E+03 0.62853374927E+03 0.50497297469E+03
 0.18066662649E+04 0.58920826030E+03 0.50497297469E+03 0.59570590551E+03 0.85437233019E+03
 0.94376282216E+03 0.82664546841E+03 0.62627444096E+03 0.43629207567E+03 0.29064321992E+03
 0.18997920349E+03 0.12410538558E+03 0.82212253015E+02 0.55923569687E+02 0.39488291635E+02
 0.29178840848E+02 0.22652505225E+02 0.18324235688E+02 0.15723874774E+02 0.13932901087E+02
 0.12735084782E+02 0.11950247589E+02 0.11446156078E+02 0.11135494147E+02 0.10966450617E+02
 0.10912738742E+02 0.10966450617E+02 0.11135494147E+02 0.11446156078E+02 0.11950247589E+02
 0.12735084782E+02 0.13932901087E+02 0.15723874774E+02 0.18324235688E+02 0.22652505225E+02
 0.29178840848E+02 0.39488291635E+02 0.55923569687E+02 0.82212253015E+02 0.12410538558E+03
 0.18997920349E+03 0.29064321992E+03 0.43629207567E+03 0.62627444096E+03 0.82664546841E+03
 0.94376282216E+03 0.85437233019E+03 0.59570590551E+03 0.50497297469E+03 0.51461374224E+03
 0.62853374927E+03 0.85437233019E+03 0.98588308149E+03 0.93795327514E+03 0.76804889608E+03
 0.56810428379E+03 0.39441406954E+03 0.26434032556E+03 0.17458513374E+03 0.11545436416E+03
 0.77476809134E+02 0.53385166515E+02 0.38155840781E+02 0.28497400977E+02 0.22316277430E+02
 0.18201883232E+02 0.15668243527E+02 0.13920972545E+02 0.12748382011E+02 0.11976034197E+02
 0.11476800050E+02 0.11167174451E+02 0.10997841118E+02 0.10943887594E+02 0.10997841118E+02
 0.11167174451E+02 0.11476800050E+02 0.11976034197E+02 0.12748382011E+02 0.13920972545E+02
 0.15668243527E+02 0.18201883232E+02 0.22316277430E+02 0.28497400977E+02 0.38155840781E+02
 0.53385166515E+02 0.77476809134E+02 0.11545436416E+03 0.17458513374E+03 0.26434032556E+03
 0.39441406954E+03 0.56810428379E+03 0.76804889608E+03 0.93795327514E+03 0.98588308149E+03
 0.85437233019E+03 0.62853374927E+03 0.82105598196E+03 0.86895157420E+03 0.94376282216E+03
 0.93795327514E+03 0.82665139707E+03 0.65665239302E+03 0.48333938427E+03 0.33834547093E+03
 0.23010081636E+03 0.15465436705E+03 0.10419778008E+03 0.71250815076E+02 0.50000674398E+02
 0.36345639920E+02 0.27548594950E+02 0.21833744738E+02 0.18004609990E+02 0.15572581178E+02
 0.13891429584E+02 0.12757415790E+02 0.12004902398E+02 0.11514217844E+02 0.11207289852E+02
 0.11038306926E+02 0.10984269304E+02 0.11038306926E+02 0.11207289852E+02 0.11514217844E+02
 0.12004902398E+02 0.12757415790E+02 0.13891429584E+02 0.15572581178E+02 0.18004609990E+02
 0.21833744738E+02 0.27548594950E+02 0.36345639920E+02 0.50000674398E+02 0.71250815076E+02
 0.10419778008E+03 0.15465436705E+03 0.23010081636E+03 0.33834547093E+03 0.48333938427E+03
 0.65665239302E+03 0.82665139707E+03 0.93795327514E+03 0.94376282216E+03 0.86895157420E+03
 0.83060257730E+03 0.83549253731E+03 0.82664546841E+03 0.76804889608E+03 0.65665239302E+03
 0.51946254105E+03 0.38665689078E+03 0.27591361722E+03 0.19200938972E+03 0.13225887654E+03
 0.91355005364E+02 0.64015968612E+02 0.45983694352E+02 0.34146196913E+02 0.26362552461E+02
 0.20918691518E+02 0.17719065777E+02 0.15426819579E+02 0.13836167242E+02 0.12755549647E+02
 0.12031472771E+02 0.11554107808E+02 0.11252381111E+02 0.11084927409E+02 0.11031148662E+02
 0.11084927409E+02 0.11252381111E+02 0.11554107808E+02 0.12031472771E+02 0.12755549647E+02
 0.13836167242E+02 0.15426819579E+02 0.17719065777E+02 0.20918691518E+02 0.26362552461E+02
 0.34146196913E+02 0.45983694352E+02 0.64015968612E+02 0.91355005364E+02 0.13225887654E+03
 0.19200938972E+03 0.27591361722E+03 0.38665689078E+03 0.51946254105E+03 0.65665239302E+03
 0.76804889608E+03 0.82664546841E+03 0.83549253731E+03 0.66199015084E+03 0.65464620763E+03
 0.62627444096E+03 0.56810428379E+03 0.48333938427E+03 0.38665689078E+03 0.29403037298E+03
 0.21554552257E+03 0.15448857306E+03 0.10969368408E+03 0.78091067934E+02 0.56350524293E+02
 0.41611081489E+02 0.31680748725E+02 0.24988844340E+02 0.20287516169E+02 0.17341032636E+02
 0.15226004248E+02 0.13749768826E+02 0.12737440432E+02 0.12050893865E+02 0.11592298069E+02
 0.11298925555E+02 0.11134635313E+02 0.11081621217E+02 0.11134635313E+02 0.11298925555E+02
 0.11592298069E+02 0.12050893865E+02 0.12737440432E+02 0.13749768826E+02 0.15226004248E+02
 0.17341032636E+02 0.20287516169E+02 0.24988844340E+02 0.31680748725E+02 0.41611081489E+02
 0.56350524293E+02 0.78091067934E+02 0.10969368408E+03 0.15448857306E+03 0.21554552257E+03
 0.29403037298E+03 0.38665689078E+03 0.48333938427E+03 0.56810428379E+03 0.62627444096E+03
 0.65464620763E+03 0.46814677015E+03 0.46051455158E+03 0.43629207567E+03 0.39441406954E+03
 0.33834547093E+03 0.27591361722E+03 0.21554552257E+03 0.16306538423E+03 0.12088366209E+03
 0.88842094153E+02 0.65446507288E+02 0.48809581611E+02 0.37169531719E+02 0.29091467417E+02
 0.23493287395E+02 0.19522966489E+02 0.16878338290E+02 0.14972250095E+02 0.13630890512E+02
 0.12700049410E+02 0.12059589703E+02 0.11625303557E+02 0.11343762338E+02 0.11184563838E+02
 0.11132934354E+02 0.11184563838E+02 0.11343762338E+02 0.11625303557E+02 0.12059589703E+02
 0.12700049410E+02 0.13630890512E+02 0.14972250095E+02 0.16878338290E+02 0.19522966489E+02
 0.23493287395E+02 0.29091467417E+02 0.37169531719E+02 0.48809581611E+02 0.65446507288E+02
 0.88842094153E+02 0.12088366209E+03 0.16306538423E+03 0.21554552257E+03 0.27591361722E+03
 0.33834547093E+03 0.39441406954E+03 0.43629207567E+03 0.46051455158E+03 0.31198857608E+03
 0.30668309747E+03 0.29064321992E+03 0.26434032556E+03 0.23010081636E+03 0.19200938972E+03
 0.15448857306E+03 0.12088366209E+03 0.92904639910E+02 0.70848524502E+02 0.54138248818E+02
 0.41823027955E+02 0.32907155557E+02 0.26515314453E+02 0.21747757593E+02 0.18659527039E+02
 0.16350195343E+02 0.14674608363E+02 0.13482445558E+02 0.12642973202E+02 0.12055628641E+02
 0.11650677229E+02 0.11384407858E+02 0.11232331794E+02 0.11182760939E+02 0.11232331794E+02
 0.11384407858E+02 0.11650677229E+02 0.12055628641E+02 0.12642973202E+02 0.13482445558E+02
 0.14674608363E+02 0.16350195343E+02 0.18659527039E+02 0.21747757593E+02 0.26515314453E+02
 0.32907155557E+02 0.41823027955E+02 0.54138248818E+02 0.70848524502E+02 0.92904639910E+02
 0.12088366209E+03 0.15448857306E+03 0.19200938972E+03 0.23010081636E+03 0.26434032556E+03
 0.29064321992E+03 0.30668309747E+03 0.20273874601E+03 0.19952885209E+03 0.18997920349E+03
 0.17458513374E+03 0.15465436705E+03 0.13225887654E+03 0.10969368408E+03 0.88842094153E+02
 0.70848524502E+02 0.56118491432E+02 0.44526749144E+02 0.35658465333E+02 0.29002527769E+02
 0.23700742983E+02 0.20352104870E+02 0.17743894357E+02 0.15783470086E+02 0.14347110670E+02
 0.13310705278E+02 0.12568129989E+02 0.12038708770E+02 0.11667132787E+02 0.11419231536E+02
 0.11276234602E+02 0.11229392734E+02 0.11276234602E+02 0.11419231536E+02 0.11667132787E+02
 0.12038708770E+02 0.12568129989E+02 0.13310705278E+02 0.14347110670E+02 0.15783470086E+02
 0.17743894357E+02 0.20352104870E+02 0.23700742983E+02 0.29002527769E+02 0.35658465333E+02
 0.44526749144E+02 0.56118491432E+02 0.70848524502E+02 0.88842094153E+02 0.10969368408E+03
 0.13225887654E+03 0.15465436705E+03 0.17458513374E+03 0.18997920349E+03 0.19952885209E+03
 0.13130450871E+03 0.12948717185E+03 0.12410538558E+03 0.11545436416E+03 0.10419778008E+03
 0.91355005364E+02 0.78091067934E+02 0.65446507288E+02 0.54138248818E+02 0.44526749144E+02
 0.36665582655E+02 0.30419816742E+02 0.25556465716E+02 0.21691607651E+02 0.18960830062E+02
 0.16825823543E+02 0.15207353051E+02 0.14005818215E+02 0.13123760159E+02 0.12479025186E+02
 0.12009862778E+02 0.11674476001E+02 0.11447494481E+02 0.11315327286E+02 0.11271834955E+02
 0.11315327286E+02 0.11447494481E+02 0.11674476001E+02 0.12009862778E+02 0.12479025186E+02
 0.13123760159E+02 0.14005818215E+02 0.15207353051E+02 0.16825823543E+02 0.18960830062E+02
 0.21691607651E+02 0.25556465716E+02 0.30419816742E+02 0.36665582655E+02 0.44526749144E+02
 0.54138248818E+02 0.65446507288E+02 0.78091067934E+02 0.91355005364E+02 0.10419778008E+03
 0.11545436416E+03 0.12410538558E+03 0.12948717185E+03 0.86135916786E+02 0.85145781548E+02
 0.82212253015E+02 0.77476809134E+02 0.71250815076E+02 0.64015968612E+02 0.56350524293E+02
 0.48809581611E+02 0.41823027955E+02 0.35658465333E+02 0.30419816742E+02 0.26095732203E+02
 0.22434670507E+02 0.19797139015E+02 0.17644774256E+02 0.15949340025E+02 0.14648206975E+02
 0.13665888851E+02 0.12929904749E+02 0.12379900853E+02 0.11971037734E+02 0.11673415588E+02
 0.11469275764E+02 0.11349401513E+02 0.11309797293E+02 0.11349401513E+02 0.11469275764E+02
 0.11673415588E+02 0.11971037734E+02 0.12379900853E+02 0.12929904749E+02 0.13665888851E+02
 0.14648206975E+02 0.15949340025E+02 0.17644774256E+02 0.19797139015E+02 0.22434670507E+02
 0.26095732203E+02 0.30419816742E+02 0.35658465333E+02 0.41823027955E+02 0.48809581611E+02
 0.56350524293E+02 0.64015968612E+02 0.71250815076E+02 0.77476809134E+02 0.82212253015E+02
 0.85145781548E+02 0.58008247290E+02 0.57483379330E+02 0.55923569687E+02 0.53385166515E+02
 0.50000674398E+02 0.45983694352E+02 0.41611081489E+02 0.37169531719E+02 0.32907155557E+02
 0.29002527769E+02 0.25556465716E+02 0.22434670507E+02 0.20095647886E+02 0.18097206038E+02
 0.16455215903E+02 0.15146705508E+02 0.14125989278E+02 0.13339473317E+02 0.12736414254E+02
 0.12275033761E+02 0.11924693865E+02 0.11665326911E+02 0.11485320163E+02 0.11378871208E+02
 0.11343590162E+02 0.11378871208E+02 0.11485320163E+02 0.11665326911E+02 0.11924693865E+02
 0.12275033761E+02 0.12736414254E+02 0.13339473317E+02 0.14125989278E+02 0.15146705508E+02
 0.16455215903E+02 0.18097206038E+02 0.20095647886E+02 0.22434670507E+02 0.25556465716E+02
 0.29002527769E+02 0.32907155557E+02 0.37169531719E+02 0.41611081489E+02 0.45983694352E+02
 0.50000674398E+02 0.53385166515E+02 0.55923569687E+02 0.57483379330E+02 0.40569387811E+02
 0.40298697912E+02 0.39488291635E+02 0.38155840781E+02 0.36345639920E+02 0.34146196913E+02
 0.31680748725E+02 0.29091467417E+02 0.26515314453E+02 0.23700742983E+02 0.21691607651E+02
 0.19797139015E+02 0.18097206038E+02 0.16635082872E+02 0.15420071918E+02 0.14436173567E+02
 0.13652860679E+02 0.13034815264E+02 0.12548945571E+02 0.12168324628E+02 0.11873507541E+02
 0.11652019458E+02 0.11496839792E+02 0.11404590492E+02 0.11373947472E+02 0.11404590492E+02
 0.11496839792E+02 0.11652019458E+02 0.11873507541E+02 0.12168324628E+02 0.12548945571E+02
 0.13034815264E+02 0.13652860679E+02 0.14436173567E+02 0.15420071918E+02 0.16635082872E+02
 0.18097206038E+02 0.19797139015E+02 0.21691607651E+02 0.23700742983E+02 0.26515314453E+02
 0.29091467417E+02 0.31680748725E+02 0.34146196913E+02 0.36345639920E+02 0.38155840781E+02
 0.39488291635E+02 0.40298697912E+02 0.29721497491E+02 0.29586291707E+02 0.29178840848E+02
 0.28497400977E+02 0.27548594950E+02 0.26362552461E+02 0.24988844340E+02 0.23493287395E+02
 0.21747757593E+02 0.20352104870E+02 0.18960830062E+02 0.17644774256E+02 0.16455215903E+02
 0.15420071918E+02 0.14545834917E+02 0.13823179309E+02 0.13233788004E+02 0.12756470854E+02
 0.12371535013E+02 0.12063176540E+02 0.11820189017E+02 0.11635526938E+02 0.11505294905E+02
 0.11427633552E+02 0.11401807043E+02 0.11427633552E+02 0.11505294905E+02 0.11635526938E+02
 0.11820189017E+02 0.12063176540E+02 0.12371535013E+02 0.12756470854E+02 0.13233788004E+02
 0.13823179309E+02 0.14545834917E+02 0.15420071918E+02 0.16455215903E+02 0.17644774256E+02
 0.18960830062E+02 0.20352104870E+02 0.21747757593E+02 0.23493287395E+02 0.24988844340E+02
 0.26362552461E+02 0.27548594950E+02 0.28497400977E+02 0.29178840848E+02 0.29586291707E+02
 0.22912133407E+02 0.22848086348E+02 0.22652505225E+02 0.22316277430E+02 0.21833744738E+02
 0.20918691518E+02 0.20287516169E+02 0.19522966489E+02 0.18659527039E+02 0.17743894357E+02
 0.16825823543E+02 0.15949340025E+02 0.15146705508E+02 0.14436173567E+02 0.13823179309E+02
 0.13303715114E+02 0.12868425189E+02 0.12506250200E+02 0.12206977102E+02 0.11962552023E+02
 0.11767368166E+02 0.11617913444E+02 0.11512172084E+02 0.11449067966E+02 0.11428084351E+02
 0.11449067966E+02 0.11512172084E+02 0.11617913444E+02 0.11767368166E+02 0.11962552023E+02
 0.12206977102E+02 0.12506250200E+02 0.12868425189E+02 0.13303715114E+02 0.13823179309E+02
 0.14436173567E+02 0.15146705508E+02 0.15949340025E+02 0.16825823543E+02 0.17743894357E+02
 0.18659527039E+02 0.19522966489E+02 0.20287516169E+02 0.20918691518E+02 0.21833744738E+02
 0.22316277430E+02 0.22652505225E+02 0.22848086348E+02 0.18408122127E+02 0.18388448721E+02
 0.18324235688E+02 0.18201883232E+02 0.18004609990E+02 0.17719065777E+02 0.17341032636E+02
 0.16878338290E+02 0.16350195343E+02 0.15783470086E+02 0.15207353051E+02 0.14648206975E+02
 0.14125989278E+02 0.13652860679E+02 0.13233788004E+02 0.12868425189E+02 0.12553411146E+02
 0.12284381426E+02 0.12057302229E+02 0.11869060053E+02 0.11717483012E+02 0.11601081712E+02
 0.11518775170E+02 0.11469751412E+02 0.11453473890E+02 0.11469751412E+02 0.11518775170E+02
 0.11601081712E+02 0.11717483012E+02 0.11869060053E+02 0.12057302229E+02 0.12284381426E+02
 0.12553411146E+02 0.12868425189E+02 0.13233788004E+02 0.13652860679E+02 0.14125989278E+02
 0.14648206975E+02 0.15207353051E+02 0.15783470086E+02 0.16350195343E+02 0.16878338290E+02
 0.17341032636E+02 0.17719065777E+02 0.18004609990E+02 0.18201883232E+02 0.18324235688E+02
 0.18388448721E+02 0.15759021138E+02 0.15751094440E+02 0.15723874774E+02 0.15668243527E+02
 0.15572581178E+02 0.15426819579E+02 0.15226004248E+02 0.14972250095E+02 0.14674608363E+02
 0.14347110670E+02 0.14005818215E+02 0.13665888851E+02 0.13339473317E+02 0.13034815264E+02
 0.12756470854E+02 0.12506250200E+02 0.12284381426E+02 0.12090482707E+02 0.11924121826E+02
 0.11784958795E+02 0.11672628700E+02 0.11586581403E+02 0.11526046709E+02 0.11490177720E+02
 0.11478306147E+02 0.11490177720E+02 0.11526046709E+02 0.11586581403E+02 0.11672628700E+02
 0.11784958795E+02 0.11924121826E+02 0.12090482707E+02 0.12284381426E+02 0.12506250200E+02
 0.12756470854E+02 0.13034815264E+02 0.13339473317E+02 0.13665888851E+02 0.14005818215E+02
 0.14347110670E+02 0.14674608363E+02 0.14972250095E+02 0.15226004248E+02 0.15426819579E+02
 0.15572581178E+02 0.15668243527E+02 0.15723874774E+02 0.15751094440E+02 0.13935879827E+02
 0.13935730696E+02 0.13932901087E+02 0.13920972545E+02 0.13891429584E+02 0.13836167242E+02
 0.13749768826E+02 0.13630890512E+02 0.13482445558E+02 0.13310705278E+02 0.13123760159E+02
 0.12929904749E+02 0.12736414254E+02 0.12548945571E+02 0.12371535013E+02 0.12206977102E+02
 0.12057302229E+02 0.11924121826E+02 0.11808736105E+02 0.11712041260E+02 0.11634372266E+02
 0.11575437504E+02 0.11534441978E+02 0.11510392052E+02 0.11502478728E+02 0.11510392052E+02
 0.11534441978E+02 0.11575437504E+02 0.11634372266E+02 0.11712041260E+02 0.11808736105E+02
 0.11924121826E+02 0.12057302229E+02 0.12206977102E+02 0.12371535013E+02 0.12548945571E+02
 0.12736414254E+02 0.12929904749E+02 0.13123760159E+02 0.13310705278E+02 0.13482445558E+02
 0.13630890512E+02 0.13749768826E+02 0.13836167242E+02 0.13891429584E+02 0.13920972545E+02
 0.13932901087E+02 0.13935730696E+02 0.12719688696E+02 0.12723963902E+02 0.12735084782E+02
 0.12748382011E+02 0.12757415790E+02 0.12755549647E+02 0.12737440432E+02 0.12700049410E+02
 0.12642973202E+02 0.12568129989E+02 0.12479025186E+02 0.12379900853E+02 0.12275033761E+02
 0.12168324628E+02 0.12063176540E+02 0.11962552023E+02 0.11869060053E+02 0.11784958795E+02
 0.11712041260E+02 0.11651458158E+02 0.11603585062E+02 0.11568037192E+02 0.11543878201E+02
 0.11529986194E+02 0.11525468371E+02 0.11529986194E+02 0.11543878201E+02 0.11568037192E+02
 0.11603585062E+02 0.11651458158E+02 0.11712041260E+02 0.11784958795E+02 0.11869060053E+02
 0.11962552023E+02 0.12063176540E+02 0.12168324628E+02 0.12275033761E+02 0.12379900853E+02
 0.12479025186E+02 0.12568129989E+02 0.12642973202E+02 0.12700049410E+02 0.12737440432E+02
 0.12755549647E+02 0.12757415790E+02 0.12748382011E+02 0.12735084782E+02 0.12723963902E+02
 0.11926113969E+02 0.11932457673E+02 0.11950247589E+02 0.11976034197E+02 0.12004902398E+02
 0.12031472771E+02 0.12050893865E+02 0.12059589703E+02 0.12055628641E+02 0.12038708770E+02
 0.12009862778E+02 0.11971037734E+02 0.11924693865E+02 0.11873507541E+02 0.11820189017E+02
 0.11767368166E+02 0.11717483012E+02 0.11672628700E+02 0.11634372266E+02 0.11603585062E+02
 0.11580366240E+02 0.11564116334E+02 0.11553774407E+02 0.11548173193E+02 0.11546417562E+02
 0.11548173193E+02 0.11553774407E+02 0.11564116334E+02 0.11580366240E+02 0.11603585062E+02
 0.11634372266E+02 0.11672628700E+02 0.11717483012E+02 0.11767368166E+02 0.11820189017E+02
 0.11873507541E+02 0.11924693865E+02 0.11971037734E+02 0.12009862778E+02 0.12038708770E+02
 0.12055628641E+02 0.12059589703E+02 0.12050893865E+02 0.12031472771E+02 0.12004902398E+02
 0.11976034197E+02 0.11950247589E+02 0.11932457673E+02 0.11419036799E+02 0.11426044996E+02
 0.11446156078E+02 0.11476800050E+02 0.11514217844E+02 0.11554107808E+02 0.11592298069E+02
 0.11625303557E+02 0.11650677229E+02 0.11667132787E+02 0.11674476001E+02 0.11673415588E+02
 0.11665326911E+02 0.11652019458E+02 0.11635526938E+02 0.11617913444E+02 0.11601081712E+02
 0.11586581403E+02 0.11575437504E+02 0.11568037192E+02 0.11564116334E+02 0.11562870315E+02
 0.11563182559E+02 0.11563927699E+02 0.11564277437E+02 0.11563927699E+02 0.11563182559E+02
 0.11562870315E+02 0.11564116334E+02 0.11568037192E+02 0.11575437504E+02 0.11586581403E+02
 0.11601081712E+02 0.11617913444E+02 0.11635526938E+02 0.11652019458E+02 0.11665326911E+02
 0.11673415588E+02 0.11674476001E+02 0.11667132787E+02 0.11650677229E+02 0.11625303557E+02
 0.11592298069E+02 0.11554107808E+02 0.11514217844E+02 0.11476800050E+02 0.11446156078E+02
 0.11426044996E+02 0.11108169951E+02 0.11115173264E+02 0.11135494147E+02 0.11167174451E+02
 0.11207289852E+02 0.11252381111E+02 0.11298925555E+02 0.11343762338E+02 0.11384407858E+02
 0.11419231536E+02 0.11447494481E+02 0.11469275764E+02 0.11485320163E+02 0.11496839792E+02
 0.11505294905E+02 0.11512172084E+02 0.11518775170E+02 0.11526046709E+02 0.11534441978E+02
 0.11543878201E+02 0.11553774407E+02 0.11563182559E+02 0.11570991565E+02 0.11576167455E+02
 0.11577980413E+02 0.11576167455E+02 0.11570991565E+02 0.11563182559E+02 0.11553774407E+02
 0.11543878201E+02 0.11534441978E+02 0.11526046709E+02 0.11518775170E+02 0.11512172084E+02
 0.11505294905E+02 0.11496839792E+02 0.11485320163E+02 0.11469275764E+02 0.11447494481E+02
 0.11419231536E+02 0.11384407858E+02 0.11343762338E+02 0.11298925555E+02 0.11252381111E+02
 0.11207289852E+02 0.11167174451E+02 0.11135494147E+02 0.11115173264E+02 0.10939730312E+02
 0.10946549467E+02 0.10966450617E+02 0.10997841118E+02 0.11038306926E+02 0.11084927409E+02
 0.11134635313E+02 0.11184563838E+02 0.11232331794E+02 0.11276234602E+02 0.11315327286E+02
 0.11349401513E+02 0.11378871208E+02 0.11404590492E+02 0.11427633552E+02 0.11449067966E+02
 0.11469751412E+02 0.11490177720E+02 0.11510392052E+02 0.11529986194E+02 0.11548173193E+02
 0.11563927699E+02 0.11576167455E+02 0.11583944532E+02 0.11586613172E+02 0.11583944532E+02
 0.11576167455E+02 0.11563927699E+02 0.11548173193E+02 0.11529986194E+02 0.11510392052E+02
 0.11490177720E+02 0.11469751412E+02 0.11449067966E+02 0.11427633552E+02 0.11404590492E+02
 0.11378871208E+02 0.11349401513E+02 0.11315327286E+02 0.11276234602E+02 0.11232331794E+02
 0.11184563838E+02 0.11134635313E+02 0.11084927409E+02 0.11038306926E+02 0.10997841118E+02
 0.10966450617E+02 0.10946549467E+02 0.10886335824E+02 0.10893064606E+02 0.10912738742E+02
 0.10943887594E+02 0.10984269304E+02 0.11031148662E+02 0.11081621217E+02 0.11132934354E+02
 0.11182760939E+02 0.11229392734E+02 0.11271834955E+02 0.11309797293E+02 0.11343590162E+02
 0.11373947472E+02 0.11401807043E+02 0.11428084351E+02 0.11453473890E+02 0.11478306147E+02
 0.11502478728E+02 0.11525468371E+02 0.11546417562E+02 0.11564277437E+02 0.11577980413E+02
 0.11586613172E+02 0.11589562656E+02 0.11586613172E+02 0.11577980413E+02 0.11564277437E+02
 0.11546417562E+02 0.11525468371E+02 0.11502478728E+02 0.11478306147E+02 0.11453473890E+02
 0.11428084351E+02 0.11401807043E+02 0.11373947472E+02 0.11343590162E+02 0.11309797293E+02
 0.11271834955E+02 0.11229392734E+02 0.11182760939E+02 0.11132934354E+02 0.11081621217E+02
 0.11031148662E+02 0.10984269304E+02 0.10943887594E+02 0.10912738742E+02 0.10893064606E+02
 0.10939730312E+02 0.10946549467E+02 0.10966450617E+02 0.10997841118E+02 0.11038306926E+02
 0.11084927409E+02 0.11134635313E+02 0.11184563838E+02 0.11232331794E+02 0.11276234602E+02
 0.11315327286E+02 0.11349401513E+02 0.11378871208E+02 0.11404590492E+02 0.11427633552E+02
 0.11449067966E+02 0.11469751412E+02 0.11490177720E+02 0.11510392052E+02 0.11529986194E+02
 0.11548173193E+02 0.11563927699E+02 0.11576167455E+02 0.11583944532E+02 0.11586613172E+02
 0.11583944532E+02 0.11576167455E+02 0.11563927699E+02 0.11548173193E+02 0.11529986194E+02
 0.11510392052E+02 0.11490177720E+02 0.11469751412E+02 0.11449067966E+02 0.11427633552E+02
 0.11404590492E+02 0.11378871208E+02 0.11349401513E+02 0.11315327286E+02 0.11276234602E+02
 0.11232331794E+02 0.11184563838E+02 0.11134635313E+02 0.11084927409E+02 0.11038306926E+02
 0.10997841118E+02 0.10966450617E+02 0.10946549467E+02 0.11108169951E+02 0.11115173264E+02
 0.11135494147E+02 0.11167174451E+02 0.11207289852E+02 0.11252381111E+02 0.11298925555E+02
 0.11343762338E+02 0.11384407858E+02 0.11419231536E+02 0.11447494481E+02 0.11469275764E+02
 0.11485320163E+02 0.11496839792E+02 0.11505294905E+02 0.11512172084E+02 0.11518775170E+02
 0.11526046709E+02 0.11534441978E+02 0.11543878201E+02 0.11553774407E+02 0.11563182559E+02
 0.11570991565E+02 0.11576167455E+02 0.11577980413E+02 0.11576167455E+02 0.11570991565E+02
 0.11563182559E+02 0.11553774407E+02 0.11543878201E+02 0.11534441978E+02 0.11526046709E+02
 0.11518775170E+02 0.11512172084E+02 0.11505294905E+02 0.11496839792E+02 0.11485320163E+02
 0.11469275764E+02 0.11447494481E+02 0.11419231536E+02 0.11384407858E+02 0.11343762338E+02
 0.11298925555E+02 0.11252381111E+02 0.11207289852E+02 0.11167174451E+02 0.11135494147E+02
 0.11115173264E+02 0.11419036799E+02 0.11426044996E+02 0.11446156078E+02 0.11476800050E+02
 0.11514217844E+02 0.11554107808E+02 0.11592298069E+02 0.11625303557E+02 0.11650677229E+02
 0.11667132787E+02 0.11674476001E+02 0.11673415588E+02 0.11665326911E+02 0.11652019458E+02
 0.11635526938E+02 0.11617913444E+02 0.11601081712E+02 0.11586581403E+02 0.11575437504E+02
 0.11568037192E+02 0.11564116334E+02 0.11562870315E+02 0.11563182559E+02 0.11563927699E+02
 0.11564277437E+02 0.11563927699E+02 0.11563182559E+02 0.11562870315E+02 0.11564116334E+02
 0.11568037192E+02 0.11575437504E+02 0.11586581403E+02 0.11601081712E+02 0.11617913444E+02
 0.11635526938E+02 0.11652019458E+02 0.11665326911E+02 0.11673415588E+02 0.11674476001E+02
 0.11667132787E+02 0.11650677229E+02 0.11625303557E+02 0.11592298069E+02 0.11554107808E+02
 0.11514217844E+02 0.11476800050E+02 0.11446156078E+02 0.11426044996E+02 0.11926113969E+02
 0.11932457673E+02 0.11950247589E+02 0.11976034197E+02 0.12004902398E+02 0.12031472771E+02
 0.12050893865E+02 0.12059589703E+02 0.12055628641E+02 0.12038708770E+02 0.12009862778E+02
 0.11971037734E+02 0.11924693865E+02 0.11873507541E+02 0.11820189017E+02 0.11767368166E+02
 0.11717483012E+02 0.11672628700E+02 0.11634372266E+02 0.11603585062E+02 0.11580366240E+02
 0.11564116334E+02 0.11553774407E+02 0.11548173193E+02 0.11546417562E+02 0.11548173193E+02
 0.11553774407E+02 0.11564116334E+02 0.11580366240E+02 0.11603585062E+02 0.11634372266E+02
 0.11672628700E+02 0.11717483012E+02 0.11767368166E+02 0.11820189017E+02 0.11873507541E+02
 0.11924693865E+02 0.11971037734E+02 0.12009862778E+02 0.12038708770E+02 0.12055628641E+02
 0.12059589703E+02 0.12050893865E+02 0.12031472771E+02 0.12004902398E+02 0.11976034197E+02
 0.11950247589E+02 0.11932457673E+02 0.12719688696E+02 0.12723963902E+02 0.12735084782E+02
 0.12748382011E+02 0.12757415790E+02 0.12755549647E+02 0.12737440432E+02 0.12700049410E+02
 0.12642973202E+02 0.12568129989E+02 0.12479025186E+02 0.12379900853E+02 0.12275033761E+02
 0.12168324628E+02 0.12063176540E+02 0.11962552023E+02 0.11869060053E+02 0.11784958795E+02
 0.11712041260E+02 0.11651458158E+02 0.11603585062E+02 0.11568037192E+02 0.11543878201E+02
 0.11529986194E+02 0.11525468371E+02 0.11529986194E+02 0.11543878201E+02 0.11568037192E+02
 0.11603585062E+02 0.11651458158E+02 0.11712041260E+02 0.11784958795E+02 0.11869060053E+02
 0.11962552023E+02 0.12063176540E+02 0.12168324628E+02 0.12275033761E+02 0.12379900853E+02
 0.12479025186E+02 0.12568129989E+02 0.12642973202E+02 0.12700049410E+02 0.12737440432E+02
 0.12755549647E+02 0.12757415790E+02 0.12748382011E+02 0.12735084782E+02 0.12723963902E+02
 0.13935879827E+02 0.13935730696E+02 0.13932901087E+02 0.13920972545E+02 0.13891429584E+02
 0.13836167242E+02 0.13749768826E+02 0.13630890512E+02 0.13482445558E+02 0.13310705278E+02
 0.13123760159E+02 0.12929904749E+02 0.12736414254E+02 0.12548945571E+02 0.12371535013E+02
 0.12206977102E+02 0.12057302229E+02 0.11924121826E+02 0.11808736105E+02 0.11712041260E+02
 0.11634372266E+02 0.11575437504E+02 0.11534441978E+02 0.11510392052E+02 0.11502478728E+02
 0.11510392052E+02 0.11534441978E+02 0.11575437504E+02 0.11634372266E+02 0.11712041260E+02
 0.11808736105E+02 0.11924121826E+02 0.12057302229E+02 0.12206977102E+02 0.12371535013E+02
 0.12548945571E+02 0.12736414254E+02 0.12929904749E+02 0.13123760159E+02 0.13310705278E+02
 0.13482445558E+02 0.13630890512E+02 0.13749768826E+02 0.13836167242E+02 0.13891429584E+02
 0.13920972545E+02 0.13932901087E+02 0.13935730696E+02 0.15759021138E+02 0.15751094440E+02
 0.15723874774E+02 0.15668243527E+02 0.15572581178E+02 0.15426819579E+02 0.15226004248E+02
 0.14972250095E+02 0.14674608363E+02 0.14347110670E+02 0.14005818215E+02 0.13665888851E+02
 0.13339473317E+02 0.13034815264E+02 0.12756470854E+02 0.12506250200E+02 0.12284381426E+02
 0.12090482707E+02 0.11924121826E+02 0.11784958795E+02 0.11672628700E+02 0.11586581403E+02
 0.11526046709E+02 0.11490177720E+02 0.11478306147E+02 0.11490177720E+02 0.11526046709E+02
 0.11586581403E+02 0.11672628700E+02 0.11784958795E+02 0.11924121826E+02 0.12090482707E+02
 0.12284381426E+02 0.12506250200E+02 0.12756470854E+02 0.13034815264E+02 0.13339473317E+02
 0.13665888851E+02 0.14005818215E+02 0.14347110670E+02 0.14674608363E+02 0.14972250095E+02
 0.15226004248E+02 0.15426819579E+02 0.15572581178E+02 0.15668243527E+02 0.15723874774E+02
 0.15751094440E+02 0.18408122127E+02 0.18388448721E+02 0.18324235688E+02 0.18201883232E+02
 0.18004609990E+02 0.17719065777E+02 0.17341032636E+02 0.16878338290E+02 0.16350195343E+02
 0.15783470086E+02 0.15207353051E+02 0.14648206975E+02 0.14125989278E+02 0.13652860679E+02
 0.13233788004E+02 0.12868425189E+02 0.12553411146E+02 0.12284381426E+02 0.12057302229E+02
 0.11869060053E+02 0.11717483012E+02 0.11601081712E+02 0.11518775170E+02 0.11469751412E+02
 0.11453473890E+02 0.11469751412E+02 0.11518775170E+02 0.11601081712E+02 0.11717483012E+02
 0.11869060053E+02 0.12057302229E+02 0.12284381426E+02 0.12553411146E+02 0.12868425189E+02
 0.13233788004E+02 0.13652860679E+02 0.14125989278E+02 0.14648206975E+02 0.15207353051E+02
 0.15783470086E+02 0.16350195343E+02 0.16878338290E+02 0.17341032636E+02 0.17719065777E+02
 0.18004609990E+02 0.18201883232E+02 0.18324235688E+02 0.18388448721E+02 0.22912133407E+02
 0.22848086348E+02 0.22652505225E+02 0.22316277430E+02 0.21833744738E+02 0.20918691518E+02
 0.20287516169E+02 0.19522966489E+02 0.18659527039E+02 0.17743894357E+02 0.16825823543E+02
 0.15949340025E+02 0.15146705508E+02 0.14436173567E+02 0.13823179309E+02 0.13303715114E+02
 0.12868425189E+02 0.12506250200E+02 0.12206977102E+02 0.11962552023E+02 0.11767368166E+02
 0.11617913444E+02 0.11512172084E+02 0.11449067966E+02 0.11428084351E+02 0.11449067966E+02
 0.11512172084E+02 0.11617913444E+02 0.11767368166E+02 0.11962552023E+02 0.12206977102E+02
 0.12506250200E+02 0.12868425189E+02 0.13303715114E+02 0.13823179309E+02 0.14436173567E+02
 0.15146705508E+02 0.15949340025E+02 0.16825823543E+02 0.17743894357E+02 0.18659527039E+02