unknown system                          
   1.00000000000000     
     0.000000    2.908477    0.000000
     0.000000    0.000000   -2.908477
    -5.415985    0.000000    0.000000
   Fe
     4
Direct
  0.000000  0.000000  0.506828
  0.500000  0.500000  0.743172
  0.000000  0.000000  0.006828
  0.500000  0.500000  0.243172
 
   48   48   80
 0.46037158259E+04 0.31451065029E+04 0.63571371728E+03 0.58176590264E+03 0.87547030918E+03
 0.87274489190E+03 0.69584457902E+03 0.49588443448E+03 0.33460959354E+03 0.22090781419E+03
 0.14560517158E+03 0.97156566105E+02 0.66265441018E+02 0.46548123027E+02 0.33816743760E+02
 0.25508629111E+02 0.19697606291E+02 0.16175322942E+02 0.13633394408E+02 0.11832829128E+02
 0.10588291275E+02 0.97298186996E+01 0.91780763403E+01 0.88619072994E+01 0.87639392134E+01
 0.88619072994E+01 0.91780763403E+01 0.97298186996E+01 0.10588291275E+02 0.11832829128E+02
 0.13633394408E+02 0.16175322942E+02 0.19697606291E+02 0.25508629111E+02 0.33816743760E+02
 0.46548123027E+02 0.66265441018E+02 0.97156566105E+02 0.14560517158E+03 0.22090781419E+03
 0.33460959354E+03 0.49588443448E+03 0.69584457902E+03 0.87274489190E+03 0.87547030918E+03
 0.58176590264E+03 0.63571371728E+03 0.31451065029E+04 0.31451065029E+04 0.17412062098E+04
 0.48788077347E+03 0.64186695477E+03 0.89104759696E+03 0.85983445715E+03 0.67879623254E+03
 0.48285329871E+03 0.32619888854E+03 0.21584334942E+03 0.14264582087E+03 0.95436945158E+02
 0.65261781895E+02 0.45955718112E+02 0.33461159614E+02 0.25291388439E+02 0.19577978619E+02
 0.16092901882E+02 0.13580363082E+02 0.11798825318E+02 0.10567268596E+02 0.97165790711E+01
 0.91700452334E+01 0.88563577587E+01 0.87594559917E+01 0.88563577587E+01 0.91700452334E+01
 0.97165790711E+01 0.10567268596E+02 0.11798825318E+02 0.13580363082E+02 0.16092901882E+02
 0.19577978619E+02 0.25291388439E+02 0.33461159614E+02 0.45955718112E+02 0.65261781895E+02
 0.95436945158E+02 0.14264582087E+03 0.21584334942E+03 0.32619888854E+03 0.48285329871E+03
 0.67879623254E+03 0.85983445715E+03 0.89104759696E+03 0.64186695477E+03 0.48788077347E+03
 0.17412062098E+04 0.63571371728E+03 0.48788077347E+03 0.52265500242E+03 0.79057083562E+03
 0.90840479599E+03 0.81492240577E+03 0.62890554264E+03 0.44583440034E+03 0.30243056356E+03
 0.20151544369E+03 0.13422781966E+03 0.90524624380E+02 0.62382281271E+02 0.44245089277E+02
 0.32433418033E+02 0.24658737281E+02 0.19227558394E+02 0.15851053591E+02 0.13425706296E+02
 0.11698897891E+02 0.10506339631E+02 0.96773789469E+01 0.91472272345E+01 0.88397833052E+01
 0.87471084861E+01 0.88397833052E+01 0.91472272345E+01 0.96773789469E+01 0.10506339631E+02
 0.11698897891E+02 0.13425706296E+02 0.15851053591E+02 0.19227558394E+02 0.24658737281E+02
 0.32433418033E+02 0.44245089277E+02 0.62382281271E+02 0.90524624380E+02 0.13422781966E+03
 0.20151544369E+03 0.30243056356E+03 0.44583440034E+03 0.62890554264E+03 0.81492240577E+03
 0.90840479599E+03 0.79057083562E+03 0.52265500242E+03 0.48788077347E+03 0.58176590264E+03
 0.64186695477E+03 0.79057083562E+03 0.90131372887E+03 0.87274480282E+03 0.73030249232E+03
 0.55158256693E+03 0.39078934075E+03 0.26729878171E+03 0.18021823123E+03 0.12161143904E+03
 0.83086716753E+02 0.57981599114E+02 0.41609635259E+02 0.30837710335E+02 0.23666706683E+02
 0.18666769783E+02 0.15468981887E+02 0.13178986418E+02 0.11541735884E+02 0.10408867382E+02
 0.96168360826E+01 0.91109278590E+01 0.88154723652E+01 0.87276678915E+01 0.88154723652E+01
 0.91109278590E+01 0.96168360826E+01 0.10408867382E+02 0.11541735884E+02 0.13178986418E+02
 0.15468981887E+02 0.18666769783E+02 0.23666706683E+02 0.30837710335E+02 0.41609635259E+02
 0.57981599114E+02 0.83086716753E+02 0.12161143904E+03 0.18021823123E+03 0.26729878171E+03
 0.39078934075E+03 0.55158256693E+03 0.73030249232E+03 0.87274480282E+03 0.90131372887E+03
 0.79057083562E+03 0.64186695477E+03 0.87547030918E+03 0.89104759696E+03 0.90840479599E+03
 0.87274480282E+03 0.76478539481E+03 0.61280928749E+03 0.45784464399E+03 0.32622085219E+03
 0.22615215557E+03 0.15504038941E+03 0.10648950219E+03 0.74045654582E+02 0.52560662650E+02
 0.38317784916E+02 0.28823921667E+02 0.22400114876E+02 0.17929337640E+02 0.14974175891E+02
 0.12856855179E+02 0.11339035880E+02 0.10281757335E+02 0.95402546644E+01 0.90646176812E+01
 0.87867330453E+01 0.87037985549E+01 0.87867330453E+01 0.90646176812E+01 0.95402546644E+01
 0.10281757335E+02 0.11339035880E+02 0.12856855179E+02 0.14974175891E+02 0.17929337640E+02
 0.22400114876E+02 0.28823921667E+02 0.38317784916E+02 0.52560662650E+02 0.74045654582E+02
 0.10648950219E+03 0.15504038941E+03 0.22615215557E+03 0.32622085219E+03 0.45784464399E+03
 0.61280928749E+03 0.76478539481E+03 0.87274480282E+03 0.90840479599E+03 0.89104759696E+03
 0.87274489190E+03 0.85983445715E+03 0.81492240577E+03 0.73030249232E+03 0.61280928749E+03
 0.48286510100E+03 0.36146218371E+03 0.26090076970E+03 0.18427084290E+03 0.12902198193E+03
 0.90586508396E+02 0.64360930703E+02 0.46648968878E+02 0.34672636119E+02 0.26559041927E+02
 0.20614059156E+02 0.17059154691E+02 0.14401031366E+02 0.12479168450E+02 0.11105874865E+02
 0.10132743790E+02 0.94555312102E+01 0.90119021878E+01 0.87590787111E+01 0.86780388687E+01
 0.87590787111E+01 0.90119021878E+01 0.94555312102E+01 0.10132743790E+02 0.11105874865E+02
 0.12479168450E+02 0.14401031366E+02 0.17059154691E+02 0.20614059156E+02 0.26559041927E+02
 0.34672636119E+02 0.46648968878E+02 0.64360930703E+02 0.90586508396E+02 0.12902198193E+03
 0.18427084290E+03 0.26090076970E+03 0.36146218371E+03 0.48286510100E+03 0.61280928749E+03
 0.73030249232E+03 0.81492240577E+03 0.85983445715E+03 0.69584457902E+03 0.67879623254E+03
 0.62890554264E+03 0.55158256693E+03 0.45784464399E+03 0.36146218371E+03 0.27393606391E+03
 0.20155578071E+03 0.14568033058E+03 0.10457889624E+03 0.75304898222E+02 0.54857190868E+02
 0.40721403345E+02 0.30953838884E+02 0.24197094798E+02 0.19276522893E+02 0.16115083864E+02
 0.13780352065E+02 0.12072521109E+02 0.10854240123E+02 0.99745179053E+01 0.93674338560E+01
 0.89604320682E+01 0.87349052629E+01 0.86567925629E+01 0.87349052629E+01 0.89604320682E+01
 0.93674338560E+01 0.99745179053E+01 0.10854240123E+02 0.12072521109E+02 0.13780352065E+02
 0.16115083864E+02 0.19276522893E+02 0.24197094798E+02 0.30953838884E+02 0.40721403345E+02
 0.54857190868E+02 0.75304898222E+02 0.10457889624E+03 0.14568033058E+03 0.20155578071E+03
 0.27393606391E+03 0.36146218371E+03 0.45784464399E+03 0.55158256693E+03 0.62890554264E+03
 0.67879623254E+03 0.49588443448E+03 0.48285329871E+03 0.44583440034E+03 0.39078934075E+03
 0.32622085219E+03 0.26090076970E+03 0.20155578071E+03 0.15186138469E+03 0.11269534933E+03
 0.83173754403E+02 0.61589601399E+02 0.46119126159E+02 0.35136654772E+02 0.27385529814E+02
 0.21874916875E+02 0.17884117012E+02 0.15156814562E+02 0.13141986871E+02 0.11662826083E+02
 0.10595617651E+02 0.98200771435E+01 0.92808880128E+01 0.89185115905E+01 0.87168011261E+01
 0.86471020216E+01 0.87168011261E+01 0.89185115905E+01 0.92808880128E+01 0.98200771435E+01
 0.10595617651E+02 0.11662826083E+02 0.13141986871E+02 0.15156814562E+02 0.17884117012E+02
 0.21874916875E+02 0.27385529814E+02 0.35136654772E+02 0.46119126159E+02 0.61589601399E+02
 0.83173754403E+02 0.11269534933E+03 0.15186138469E+03 0.20155578071E+03 0.26090076970E+03
 0.32622085219E+03 0.39078934075E+03 0.44583440034E+03 0.48285329871E+03 0.33460959354E+03
 0.32619888854E+03 0.30243056356E+03 0.26729878171E+03 0.22615215557E+03 0.18427084290E+03
 0.14568033058E+03 0.11269534933E+03 0.86050602248E+02 0.65418948385E+02 0.49898419631E+02
 0.38468304029E+02 0.30133589484E+02 0.24101308597E+02 0.19516548388E+02 0.16509620200E+02
 0.14227873453E+02 0.12518165448E+02 0.11268655535E+02 0.10343994690E+02 0.96788377600E+01
 0.92027739926E+01 0.88917817693E+01 0.87090813350E+01 0.86536462403E+01 0.87090813350E+01
 0.88917817693E+01 0.92027739926E+01 0.96788377600E+01 0.10343994690E+02 0.11268655535E+02
 0.12518165448E+02 0.14227873453E+02 0.16509620200E+02 0.19516548388E+02 0.24101308597E+02
 0.30133589484E+02 0.38468304029E+02 0.49898419631E+02 0.65418948385E+02 0.86050602248E+02
 0.11269534933E+03 0.14568033058E+03 0.18427084290E+03 0.22615215557E+03 0.26729878171E+03
 0.30243056356E+03 0.32619888854E+03 0.22090781419E+03 0.21584334942E+03 0.20151544369E+03
 0.18021823123E+03 0.15504038941E+03 0.12902198193E+03 0.10457889624E+03 0.83173754403E+02
 0.65418948385E+02 0.51263670508E+02 0.40326333811E+02 0.32021335789E+02 0.25819765337E+02
 0.20836626471E+02 0.17700877050E+02 0.15232401245E+02 0.13351690297E+02 0.11943731484E+02
 0.10896305936E+02 0.10119178613E+02 0.95511295546E+01 0.91469629349E+01 0.88780182066E+01
 0.87233010205E+01 0.86734408948E+01 0.87233010205E+01 0.88780182066E+01 0.91469629349E+01
 0.95511295546E+01 0.10119178613E+02 0.10896305936E+02 0.11943731484E+02 0.13351690297E+02
 0.15232401245E+02 0.17700877050E+02 0.20836626471E+02 0.25819765337E+02 0.32021335789E+02
 0.40326333811E+02 0.51263670508E+02 0.65418948385E+02 0.83173754403E+02 0.10457889624E+03
 0.12902198193E+03 0.15504038941E+03 0.18021823123E+03 0.20151544369E+03 0.21584334942E+03
 0.14560517158E+03 0.14264582087E+03 0.13422781966E+03 0.12161143904E+03 0.10648950219E+03
 0.90586508396E+02 0.75304898222E+02 0.61589601399E+02 0.49898419631E+02 0.40326333811E+02
 0.32695582771E+02 0.26759037937E+02 0.22183944694E+02 0.18586598811E+02 0.16053021105E+02
 0.14078669900E+02 0.12565035005E+02 0.11426007208E+02 0.10564738136E+02 0.99238778164E+01
 0.94491332016E+01 0.91132042473E+01 0.88859737850E+01 0.87580053246E+01 0.87142902653E+01
 0.87580053246E+01 0.88859737850E+01 0.91132042473E+01 0.94491332016E+01 0.99238778164E+01
 0.10564738136E+02 0.11426007208E+02 0.12565035005E+02 0.14078669900E+02 0.16053021105E+02
 0.18586598811E+02 0.22183944694E+02 0.26759037937E+02 0.32695582771E+02 0.40326333811E+02
 0.49898419631E+02 0.61589601399E+02 0.75304898222E+02 0.90586508396E+02 0.10648950219E+03
 0.12161143904E+03 0.13422781966E+03 0.14264582087E+03 0.97156566105E+02 0.95436945158E+02
 0.90524624380E+02 0.83086716753E+02 0.74045654582E+02 0.64360930703E+02 0.54857190868E+02
 0.46119126159E+02 0.38468304029E+02 0.32021335789E+02 0.26759037937E+02 0.22535146506E+02
 0.19058147473E+02 0.16592178811E+02 0.14618259151E+02 0.13069557788E+02 0.11882699980E+02
 0.10972699671E+02 0.10283377401E+02 0.97622564985E+01 0.93792145632E+01 0.91033396509E+01
 0.89205608199E+01 0.88139153467E+01 0.87805897045E+01 0.88139153467E+01 0.89205608199E+01
 0.91033396509E+01 0.93792145632E+01 0.97622564985E+01 0.10283377401E+02 0.10972699671E+02
 0.11882699980E+02 0.13069557788E+02 0.14618259151E+02 0.16592178811E+02 0.19058147473E+02
 0.22535146506E+02 0.26759037937E+02 0.32021335789E+02 0.38468304029E+02 0.46119126159E+02
 0.54857190868E+02 0.64360930703E+02 0.74045654582E+02 0.83086716753E+02 0.90524624380E+02
 0.95436945158E+02 0.66265441018E+02 0.65261781895E+02 0.62382281271E+02 0.57981599114E+02
 0.52560662650E+02 0.46648968878E+02 0.40721403345E+02 0.35136654772E+02 0.30133589484E+02
 0.25819765337E+02 0.22183944694E+02 0.19058147473E+02 0.16780219091E+02 0.14906136636E+02
 0.13399335945E+02 0.12219386632E+02 0.11300870723E+02 0.10593447244E+02 0.10051002312E+02
 0.96426947293E+01 0.93393874807E+01 0.91236733718E+01 0.89784999472E+01 0.88962133654E+01
 0.88686691907E+01 0.88962133654E+01 0.89784999472E+01 0.91236733718E+01 0.93393874807E+01
 0.96426947293E+01 0.10051002312E+02 0.10593447244E+02 0.11300870723E+02 0.12219386632E+02
 0.13399335945E+02 0.14906136636E+02 0.16780219091E+02 0.19058147473E+02 0.22183944694E+02
 0.25819765337E+02 0.30133589484E+02 0.35136654772E+02 0.40721403345E+02 0.46648968878E+02
 0.52560662650E+02 0.57981599114E+02 0.62382281271E+02 0.65261781895E+02 0.46548123027E+02
 0.45955718112E+02 0.44245089277E+02 0.41609635259E+02 0.38317784916E+02 0.34672636119E+02
 0.30953838884E+02 0.27385529814E+02 0.24101308597E+02 0.20836626471E+02 0.18586598811E+02
 0.16592178811E+02 0.14906136636E+02 0.13514064130E+02 0.12398321982E+02 0.11513781812E+02
 0.10821387462E+02 0.10283595871E+02 0.98724477236E+01 0.95617923931E+01 0.93335632195E+01
 0.91709240969E+01 0.90634414186E+01 0.90016815360E+01 0.89820228567E+01 0.90016815360E+01
 0.90634414186E+01 0.91709240969E+01 0.93335632195E+01 0.95617923931E+01 0.98724477236E+01
 0.10283595871E+02 0.10821387462E+02 0.11513781812E+02 0.12398321982E+02 0.13514064130E+02
 0.14906136636E+02 0.16592178811E+02 0.18586598811E+02 0.20836626471E+02 0.24101308597E+02
 0.27385529814E+02 0.30953838884E+02 0.34672636119E+02 0.38317784916E+02 0.41609635259E+02
 0.44245089277E+02 0.45955718112E+02 0.33816743760E+02 0.33461159614E+02 0.32433418033E+02
 0.30837710335E+02 0.28823921667E+02 0.26559041927E+02 0.24197094798E+02 0.21874916875E+02
 0.19516548388E+02 0.17700877050E+02 0.16053021105E+02 0.14618259151E+02 0.13399335945E+02
 0.12398321982E+02 0.11587569837E+02 0.10942155671E+02 0.10434403752E+02 0.10041977817E+02
 0.97429346221E+01 0.95205896146E+01 0.93587535389E+01 0.92458560148E+01 0.91716139611E+01
 0.91300532178E+01 0.91164124865E+01 0.91300532178E+01 0.91716139611E+01 0.92458560148E+01
 0.93587535389E+01 0.95205896146E+01 0.97429346221E+01 0.10041977817E+02 0.10434403752E+02
 0.10942155671E+02 0.11587569837E+02 0.12398321982E+02 0.13399335945E+02 0.14618259151E+02
 0.16053021105E+02 0.17700877050E+02 0.19516548388E+02 0.21874916875E+02 0.24197094798E+02
 0.26559041927E+02 0.28823921667E+02 0.30837710335E+02 0.32433418033E+02 0.33461159614E+02
 0.25508629111E+02 0.25291388439E+02 0.24658737281E+02 0.23666706683E+02 0.22400114876E+02
 0.20614059156E+02 0.19276522893E+02 0.17884117012E+02 0.16509620200E+02 0.15232401245E+02
 0.14078669900E+02 0.13069557788E+02 0.12219386632E+02 0.11513781812E+02 0.10942155671E+02
 0.10486627834E+02 0.10131894563E+02 0.98610474986E+01 0.96601067120E+01 0.95142216922E+01
 0.94120708874E+01 0.93431935409E+01 0.93001847817E+01 0.92766078832E+01 0.92693209173E+01
 0.92766078832E+01 0.93001847817E+01 0.93431935409E+01 0.94120708874E+01 0.95142216922E+01
 0.96601067120E+01 0.98610474986E+01 0.10131894563E+02 0.10486627834E+02 0.10942155671E+02
 0.11513781812E+02 0.12219386632E+02 0.13069557788E+02 0.14078669900E+02 0.15232401245E+02
 0.16509620200E+02 0.17884117012E+02 0.19276522893E+02 0.20614059156E+02 0.22400114876E+02
 0.23666706683E+02 0.24658737281E+02 0.25291388439E+02 0.19697606291E+02 0.19577978619E+02
 0.19227558394E+02 0.18666769783E+02 0.17929337640E+02 0.17059154691E+02 0.16115083864E+02
 0.15156814562E+02 0.14227873453E+02 0.13351690297E+02 0.12565035005E+02 0.11882699980E+02
 0.11300870723E+02 0.10821387462E+02 0.10434403752E+02 0.10131894563E+02 0.99020444764E+01
 0.97344488976E+01 0.96162920438E+01 0.95375673618E+01 0.94882179669E+01 0.94599672410E+01
 0.94450652413E+01 0.94384772121E+01 0.94365299312E+01 0.94384772121E+01 0.94450652413E+01
 0.94599672410E+01 0.94882179669E+01 0.95375673618E+01 0.96162920438E+01 0.97344488976E+01
 0.99020444764E+01 0.10131894563E+02 0.10434403752E+02 0.10821387462E+02 0.11300870723E+02
 0.11882699980E+02 0.12565035005E+02 0.13351690297E+02 0.14227873453E+02 0.15156814562E+02
 0.16115083864E+02 0.17059154691E+02 0.17929337640E+02 0.18666769783E+02 0.19227558394E+02
 0.19577978619E+02 0.16175322942E+02 0.16092901882E+02 0.15851053591E+02 0.15468981887E+02
 0.14974175891E+02 0.14401031366E+02 0.13780352065E+02 0.13141986871E+02 0.12518165448E+02
 0.11943731484E+02 0.11426007208E+02 0.10972699671E+02 0.10593447244E+02 0.10283595871E+02
 0.10041977817E+02 0.98610474986E+01 0.97344488976E+01 0.96518186719E+01 0.96049481488E+01
 0.95847049727E+01 0.95824408530E+01 0.95896327045E+01 0.95998762249E+01 0.96079662173E+01
 0.96110884745E+01 0.96079662173E+01 0.95998762249E+01 0.95896327045E+01 0.95824408530E+01
 0.95847049727E+01 0.96049481488E+01 0.96518186719E+01 0.97344488976E+01 0.98610474986E+01
 0.10041977817E+02 0.10283595871E+02 0.10593447244E+02 0.10972699671E+02 0.11426007208E+02
 0.11943731484E+02 0.12518165448E+02 0.13141986871E+02 0.13780352065E+02 0.14401031366E+02
 0.14974175891E+02 0.15468981887E+02 0.15851053591E+02 0.16092901882E+02 0.13633394408E+02
 0.13580363082E+02 0.13425706296E+02 0.13178986418E+02 0.12856855179E+02 0.12479168450E+02
 0.12072521109E+02 0.11662826083E+02 0.11268655535E+02 0.10896305936E+02 0.10564738136E+02
 0.10283377401E+02 0.10051002312E+02 0.98724477236E+01 0.97429346221E+01 0.96601067120E+01
 0.96162920438E+01 0.96049481488E+01 0.96184782292E+01 0.96484966367E+01 0.96862254669E+01
 0.97242892918E+01 0.97562943410E+01 0.97775758358E+01 0.97849824897E+01 0.97775758358E+01
 0.97562943410E+01 0.97242892918E+01 0.96862254669E+01 0.96484966367E+01 0.96184782292E+01
 0.96049481488E+01 0.96162920438E+01 0.96601067120E+01 0.97429346221E+01 0.98724477236E+01
 0.10051002312E+02 0.10283377401E+02 0.10564738136E+02 0.10896305936E+02 0.11268655535E+02
 0.11662826083E+02 0.12072521109E+02 0.12479168450E+02 0.12856855179E+02 0.13178986418E+02
 0.13425706296E+02 0.13580363082E+02 0.11832829128E+02 0.11798825318E+02 0.11698897891E+02
 0.11541735884E+02 0.11339035880E+02 0.11105874865E+02 0.10854240123E+02 0.10595617651E+02
 0.10343994690E+02 0.10119178613E+02 0.99238778164E+01 0.97622564985E+01 0.96426947293E+01
 0.95617923931E+01 0.95205896146E+01 0.95142216922E+01 0.95375673618E+01 0.95847049727E+01
 0.96484966367E+01 0.97201129024E+01 0.97917185052E+01 0.98560426501E+01 0.99070546216E+01
 0.99397307389E+01 0.99510234920E+01 0.99397307389E+01 0.99070546216E+01 0.98560426501E+01
 0.97917185052E+01 0.97201129024E+01 0.96484966367E+01 0.95847049727E+01 0.95375673618E+01
 0.95142216922E+01 0.95205896146E+01 0.95617923931E+01 0.96426947293E+01 0.97622564985E+01
 0.99238778164E+01 0.10119178613E+02 0.10343994690E+02 0.10595617651E+02 0.10854240123E+02
 0.11105874865E+02 0.11339035880E+02 0.11541735884E+02 0.11698897891E+02 0.11798825318E+02
 0.10588291275E+02 0.10567268596E+02 0.10506339631E+02 0.10408867382E+02 0.10281757335E+02
 0.10132743790E+02 0.99745179053E+01 0.98200771435E+01 0.96788377600E+01 0.95511295546E+01
 0.94491332016E+01 0.93792145632E+01 0.93393874807E+01 0.93335632195E+01 0.93587535389E+01
 0.94120708874E+01 0.94882179669E+01 0.95824408530E+01 0.96862254669E+01 0.97917185052E+01
 0.98911120771E+01 0.99776144230E+01 0.10044558407E+02 0.10087019742E+02 0.10101484503E+02
 0.10087019742E+02 0.10044558407E+02 0.99776144230E+01 0.98911120771E+01 0.97917185052E+01
 0.96862254669E+01 0.95824408530E+01 0.94882179669E+01 0.94120708874E+01 0.93587535389E+01
 0.93335632195E+01 0.93393874807E+01 0.93792145632E+01 0.94491332016E+01 0.95511295546E+01
 0.96788377600E+01 0.98200771435E+01 0.99745179053E+01 0.10132743790E+02 0.10281757335E+02
 0.10408867382E+02 0.10506339631E+02 0.10567268596E+02 0.97298186996E+01 0.97165790711E+01
 0.96773789469E+01 0.96168360826E+01 0.95402546644E+01 0.94555312102E+01 0.93674338560E+01
 0.92808880128E+01 0.92027739926E+01 0.91469629349E+01 0.91132042473E+01 0.91033396509E+01
 0.91236733718E+01 0.91709240969E+01 0.92458560148E+01 0.93431935409E+01 0.94599672410E+01
 0.95896327045E+01 0.97242892918E+01 0.98560426501E+01 0.99776144230E+01 0.10081590195E+02
 0.10161329214E+02 0.10211432670E+02 0.10228536413E+02 0.10211432670E+02 0.10161329214E+02
 0.10081590195E+02 0.99776144230E+01 0.98560426501E+01 0.97242892918E+01 0.95896327045E+01
 0.94599672410E+01 0.93431935409E+01 0.92458560148E+01 0.91709240969E+01 0.91236733718E+01
 0.91033396509E+01 0.91132042473E+01 0.91469629349E+01 0.92027739926E+01 0.92808880128E+01
 0.93674338560E+01 0.94555312102E+01 0.95402546644E+01 0.96168360826E+01 0.96773789469E+01
 0.97165790711E+01 0.91780763403E+01 0.91700452334E+01 0.91472272345E+01 0.91109278590E+01
 0.90646176812E+01 0.90119021878E+01 0.89604320682E+01 0.89185115905E+01 0.88917817693E+01
 0.88780182066E+01 0.88859737850E+01 0.89205608199E+01 0.89784999472E+01 0.90634414186E+01
 0.91716139611E+01 0.93001847817E+01 0.94450652413E+01 0.95998762249E+01 0.97562943410E+01
 0.99070546216E+01 0.10044558407E+02 0.10161329214E+02 0.10250283058E+02 0.10306013046E+02
 0.10324959080E+02 0.10306013046E+02 0.10250283058E+02 0.10161329214E+02 0.10044558407E+02
 0.99070546216E+01 0.97562943410E+01 0.95998762249E+01 0.94450652413E+01 0.93001847817E+01
 0.91716139611E+01 0.90634414186E+01 0.89784999472E+01 0.89205608199E+01 0.88859737850E+01
 0.88780182066E+01 0.88917817693E+01 0.89185115905E+01 0.89604320682E+01 0.90119021878E+01
 0.90646176812E+01 0.91109278590E+01 0.91472272345E+01 0.91700452334E+01 0.88619072994E+01
 0.88563577587E+01 0.88397833052E+01 0.88154723652E+01 0.87867330453E+01 0.87590787111E+01
 0.87349052629E+01 0.87168011261E+01 0.87090813350E+01 0.87233010205E+01 0.87580053246E+01
 0.88139153467E+01 0.88962133654E+01 0.90016815360E+01 0.91300532178E+01 0.92766078832E+01
 0.94384772121E+01 0.96079662173E+01 0.97775758358E+01 0.99397307389E+01 0.10087019742E+02
 0.10211432670E+02 0.10306013046E+02 0.10365058597E+02 0.10385179259E+02 0.10365058597E+02
 0.10306013046E+02 0.10211432670E+02 0.10087019742E+02 0.99397307389E+01 0.97775758358E+01
 0.96079662173E+01 0.94384772121E+01 0.92766078832E+01 0.91300532178E+01 0.90016815360E+01
 0.88962133654E+01 0.88139153467E+01 0.87580053246E+01 0.87233010205E+01 0.87090813350E+01
 0.87168011261E+01 0.87349052629E+01 0.87590787111E+01 0.87867330453E+01 0.88154723652E+01
 0.88397833052E+01 0.88563577587E+01 0.87639392134E+01 0.87594559917E+01 0.87471084861E+01
 0.87276678915E+01 0.87037985549E+01 0.86780388687E+01 0.86567925629E+01 0.86471020216E+01
 0.86536462403E+01 0.86734408948E+01 0.87142902653E+01 0.87805897045E+01 0.88686691907E+01
 0.89820228567E+01 0.91164124865E+01 0.92693209173E+01 0.94365299312E+01 0.96110884745E+01
 0.97849824897E+01 0.99510234920E+01 0.10101484503E+02 0.10228536413E+02 0.10324959080E+02
 0.10385179259E+02 0.10405646776E+02 0.10385179259E+02 0.10324959080E+02 0.10228536413E+02
 0.10101484503E+02 0.99510234920E+01 0.97849824897E+01 0.96110884745E+01 0.94365299312E+01
 0.92693209173E+01 0.91164124865E+01 0.89820228567E+01 0.88686691907E+01 0.87805897045E+01
 0.87142902653E+01 0.86734408948E+01 0.86536462403E+01 0.86471020216E+01 0.86567925629E+01
 0.86780388687E+01 0.87037985549E+01 0.87276678915E+01 0.87471084861E+01 0.87594559917E+01
 0.88619072994E+01 0.88563577587E+01 0.88397833052E+01 0.88154723652E+01 0.87867330453E+01
 0.87590787111E+01 0.87349052629E+01 0.87168011261E+01 0.87090813350E+01 0.87233010205E+01
 0.87580053246E+01 0.88139153467E+01 0.88962133654E+01 0.90016815360E+01 0.91300532178E+01
 0.92766078832E+01 0.94384772121E+01 0.96079662173E+01 0.97775758358E+01 0.99397307389E+01
 0.10087019742E+02 0.10211432670E+02 0.10306013046E+02 0.10365058597E+02 0.10385179259E+02
 0.10365058597E+02 0.10306013046E+02 0.10211432670E+02 0.10087019742E+02 0.99397307389E+01
 0.97775758358E+01 0.96079662173E+01 0.94384772121E+01 0.92766078832E+01 0.91300532178E+01
 0.90016815360E+01 0.88962133654E+01 0.88139153467E+01 0.87580053246E+01 0.87233010205E+01
 0.87090813350E+01 0.87168011261E+01 0.87349052629E+01 0.87590787111E+01 0.87867330453E+01
 0.88154723652E+01 0.88397833052E+01 0.88563577587E+01 0.91780763403E+01 0.91700452334E+01
 0.91472272345E+01 0.91109278590E+01 0.90646176812E+01 0.90119021878E+01 0.89604320682E+01
 0.89185115905E+01 0.88917817693E+01 0.88780182066E+01 0.88859737850E+01 0.89205608199E+01
 0.89784999472E+01 0.90634414186E+01 0.91716139611E+01 0.93001847817E+01 0.94450652413E+01
 0.95998762249E+01 0.97562943410E+01 0.99070546216E+01 0.10044558407E+02 0.10161329214E+02
 0.10250283058E+02 0.10306013046E+02 0.10324959080E+02 0.10306013046E+02 0.10250283058E+02
 0.10161329214E+02 0.10044558407E+02 0.99070546216E+01 0.97562943410E+01 0.95998762249E+01
 0.94450652413E+01 0.93001847817E+01 0.91716139611E+01 0.90634414186E+01 0.89784999472E+01
 0.89205608199E+01 0.88859737850E+01 0.88780182066E+01 0.88917817693E+01 0.89185115905E+01
 0.89604320682E+01 0.90119021878E+01 0.90646176812E+01 0.91109278590E+01 0.91472272345E+01
 0.91700452334E+01 0.97298186996E+01 0.97165790711E+01 0.96773789469E+01 0.96168360826E+01
 0.95402546644E+01 0.94555312102E+01 0.93674338560E+01 0.92808880128E+01 0.92027739926E+01
 0.91469629349E+01 0.91132042473E+01 0.91033396509E+01 0.91236733718E+01 0.91709240969E+01
 0.92458560148E+01 0.93431935409E+01 0.94599672410E+01 0.95896327045E+01 0.97242892918E+01
 0.98560426501E+01 0.99776144230E+01 0.10081590195E+02 0.10161329214E+02 0.10211432670E+02
 0.10228536413E+02 0.10211432670E+02 0.10161329214E+02 0.10081590195E+02 0.99776144230E+01
 0.98560426501E+01 0.97242892918E+01 0.95896327045E+01 0.94599672410E+01 0.93431935409E+01
 0.92458560148E+01 0.91709240969E+01 0.91236733718E+01 0.91033396509E+01 0.91132042473E+01
 0.91469629349E+01 0.92027739926E+01 0.92808880128E+01 0.93674338560E+01 0.94555312102E+01
 0.95402546644E+01 0.96168360826E+01 0.96773789469E+01 0.97165790711E+01 0.10588291275E+02
 0.10567268596E+02 0.10506339631E+02 0.10408867382E+02 0.10281757335E+02 0.10132743790E+02
 0.99745179053E+01 0.98200771435E+01 0.96788377600E+01 0.95511295546E+01 0.94491332016E+01
 0.93792145632E+01 0.93393874807E+01 0.93335632195E+01 0.93587535389E+01 0.94120708874E+01
 0.94882179669E+01 0.95824408530E+01 0.96862254669E+01 0.97917185052E+01 0.98911120771E+01
 0.99776144230E+01 0.10044558407E+02 0.10087019742E+02 0.10101484503E+02 0.10087019742E+02
 0.10044558407E+02 0.99776144230E+01 0.98911120771E+01 0.97917185052E+01 0.96862254669E+01
 0.95824408530E+01 0.94882179669E+01 0.94120708874E+01 0.93587535389E+01 0.93335632195E+01
 0.93393874807E+01 0.93792145632E+01 0.94491332016E+01 0.95511295546E+01 0.96788377600E+01
 0.98200771435E+01 0.99745179053E+01 0.10132743790E+02 0.10281757335E+02 0.10408867382E+02
 0.10506339631E+02 0.10567268596E+02 0.11832829128E+02 0.11798825318E+02 0.11698897891E+02
 0.11541735884E+02 0.11339035880E+02 0.11105874865E+02 0.10854240123E+02 0.10595617651E+02
 0.10343994690E+02 0.10119178613E+02 0.99238778164E+01 0.97622564985E+01 0.96426947293E+01
 0.95617923931E+01 0.95205896146E+01 0.95142216922E+01 0.95375673618E+01 0.95847049727E+01
 0.96484966367E+01 0.97201129024E+01 0.97917185052E+01 0.98560426501E+01 0.99070546216E+01
 0.99397307389E+01 0.99510234920E+01 0.99397307389E+01 0.99070546216E+01 0.98560426501E+01
 0.97917185052E+01 0.97201129024E+01 0.96484966367E+01 0.95847049727E+01 0.95375673618E+01
 0.95142216922E+01 0.95205896146E+01 0.95617923931E+01 0.96426947293E+01 0.97622564985E+01
 0.99238778164E+01 0.10119178613E+02 0.10343994690E+02 0.10595617651E+02 0.10854240123E+02
 0.11105874865E+02 0.11339035880E+02 0.11541735884E+02 0.11698897891E+02 0.11798825318E+02
 0.13633394408E+02 0.13580363082E+02 0.13425706296E+02 0.13178986418E+02 0.12856855179E+02
 0.12479168450E+02 0.12072521109E+02 0.11662826083E+02 0.11268655535E+02 0.10896305936E+02
 0.10564738136E+02 0.10283377401E+02 0.10051002312E+02 0.98724477236E+01 0.97429346221E+01
 0.96601067120E+01 0.96162920438E+01 0.96049481488E+01 0.96184782292E+01 0.96484966367E+01
 0.96862254669E+01 0.97242892918E+01 0.97562943410E+01 0.97775758358E+01 0.97849824897E+01
 0.97775758358E+01 0.97562943410E+01 0.97242892918E+01 0.96862254669E+01 0.96484966367E+01
 0.96184782292E+01 0.96049481488E+01 0.96162920438E+01 0.96601067120E+01 0.97429346221E+01
 0.98724477236E+01 0.10051002312E+02 0.10283377401E+02 0.10564738136E+02 0.10896305936E+02
 0.11268655535E+02 0.11662826083E+02 0.12072521109E+02 0.12479168450E+02 0.12856855179E+02
 0.13178986418E+02 0.13425706296E+02 0.13580363082E+02 0.16175322942E+02 0.16092901882E+02
 0.15851053591E+02 0.15468981887E+02 0.14974175891E+02 0.14401031366E+02 0.13780352065E+02
 0.13141986871E+02 0.12518165448E+02 0.11943731484E+02 0.11426007208E+02 0.10972699671E+02
 0.10593447244E+02 0.10283595871E+02 0.10041977817E+02 0.98610474986E+01 0.97344488976E+01
 0.96518186719E+01 0.96049481488E+01 0.95847049727E+01 0.95824408530E+01 0.95896327045E+01
 0.95998762249E+01 0.96079662173E+01 0.96110884745E+01 0.96079662173E+01 0.95998762249E+01
 0.95896327045E+01 0.95824408530E+01 0.95847049727E+01 0.96049481488E+01 0.96518186719E+01
 0.97344488976E+01 0.98610474986E+01 0.10041977817E+02 0.10283595871E+02 0.10593447244E+02
 0.10972699671E+02 0.11426007208E+02 0.11943731484E+02 0.12518165448E+02 0.13141986871E+02
 0.13780352065E+02 0.14401031366E+02 0.14974175891E+02 0.15468981887E+02 0.15851053591E+02
 0.16092901882E+02 0.19697606291E+02 0.19577978619E+02 0.19227558394E+02 0.18666769783E+02
 0.17929337640E+02 0.17059154691E+02 0.16115083864E+02 0.15156814562E+02 0.14227873453E+02
 0.13351690297E+02 0.12565035005E+02 0.11882699980E+02 0.11300870723E+02 0.10821387462E+02
 0.10434403752E+02 0.10131894563E+02 0.99020444764E+01 0.97344488976E+01 0.96162920438E+01
 0.95375673618E+01 0.94882179669E+01 0.94599672410E+01 0.94450652413E+01 0.94384772121E+01
 0.94365299312E+01 0.94384772121E+01 0.94450652413E+01 0.94599672410E+01 0.94882179669E+01
 0.95375673618E+01 0.96162920438E+01 0.97344488976E+01 0.99020444764E+01 0.10131894563E+02
 0.10434403752E+02 0.10821387462E+02 0.11300870723E+02 0.11882699980E+02 0.12565035005E+02
 0.13351690297E+02 0.14227873453E+02 0.15156814562E+02 0.16115083864E+02 0.17059154691E+02
 0.17929337640E+02 0.18666769783E+02 0.19227558394E+02 0.19577978619E+02 0.25508629111E+02
 0.25291388439E+02 0.24658737281E+02 0.23666706683E+02 0.22400114876E+02 0.20614059156E+02
 0.19276522893E+02 0.17884117012E+02 0.16509620200E+02 0.15232401245E+02 0.14078669900E+02
 0.13069557788E+02 0.12219386632E+02 0.11513781812E+02 0.10942155671E+02 0.10486627834E+02
 0.10131894563E+02 0.98610474986E+01 0.96601067120E+01 0.95142216922E+01 0.94120708874E+01
 0.93431935409E+01 0.93001847817E+01 0.92766078832E+01 0.92693209173E+01 0.92766078832E+01
 0.93001847817E+01 0.93431935409E+01 0.94120708874E+01 0.95142216922E+01 0.96601067120E+01
 0.98610474986E+01 0.10131894563E+02 0.10486627834E+02 0.10942155671E+02 0.11513781812E+02
 0.12219386632E+02 0.13069557788E+02 0.14078669900E+02 0.15232401245E+02 0.16509620200E+02