=========================================
SLURM_JOB_ID = 63459739
SLURM_JOB_NODELIST = lnode15
SLURM_GPUS = 
SLURM_CPUS_ON_NODE = 16
SLURM_JOB_PARTITION = lenovo
SLURM_TASK_PID = 455618
CUDA_VISIBLE_DEVICES = 
==========================================
 running on   16 total cores
 distrk:  each k-point on   16 cores,    1 groups
 distr:  one band on    4 cores,    4 groups
 using from now: INCAR     
 vasp.5.4.4.18Apr17-6-g9f103f2a35 (build Apr 28 2018 00:24:27) complex          
  
 POSCAR found type information on POSCAR  Eu
 POSCAR found :  1 types and       4 ions
 scaLAPACK will be used

 ----------------------------------------------------------------------------- 
|                                                                             |
|  ADVICE TO THIS USER RUNNING 'VASP/VAMP'   (HEAR YOUR MASTER'S VOICE ...):  |
|                                                                             |
|      You have a (more or less) 'small supercell' and for smaller cells      |
|      it is recommended  to use the reciprocal-space projection scheme!      |
|      The real space optimization is not  efficient for small cells and it   |
|      is also less accurate ...                                              |
|      Therefore set LREAL=.FALSE. in the  INCAR file                         |
|                                                                             |
 ----------------------------------------------------------------------------- 

 LDA part: xc-table for Pade appr. of Perdew
 POSCAR, INCAR and KPOINTS ok, starting setup
 FFT: planning ...
 WAVECAR not read
 entering main loop
       N       E                     dE             d eps       ncg     rms          rms(c)
DAV:   1     0.828199779323E+03    0.82820E+03   -0.24983E+04 16640   0.342E+03
DAV:   2     0.205348300754E+03   -0.62285E+03   -0.59810E+03 25192   0.495E+02
DAV:   3    -0.908893148191E+01   -0.21444E+03   -0.21254E+03 28312   0.356E+02
DAV:   4    -0.264876929779E+02   -0.17399E+02   -0.16822E+02 29368   0.106E+02
DAV:   5    -0.292577271352E+02   -0.27700E+01   -0.27303E+01 32608   0.433E+01    0.237E+01
DAV:   6    -0.302634394559E+02   -0.10057E+01   -0.10824E+02 24208   0.138E+02    0.315E+01
DAV:   7    -0.384510241802E+02   -0.81876E+01   -0.31989E+01 23952   0.489E+01    0.133E+01
DAV:   8    -0.392877337405E+02   -0.83671E+00   -0.12407E+01 23352   0.310E+01    0.388E+00
DAV:   9    -0.406545856805E+02   -0.13669E+01   -0.46066E+00 27368   0.201E+01    0.456E+00
DAV:  10    -0.409943961476E+02   -0.33981E+00   -0.96005E-01 29552   0.919E+00    0.231E+00
DAV:  11    -0.409501273977E+02    0.44269E-01   -0.41429E-01 24640   0.309E+00    0.164E+00
DAV:  12    -0.410290857650E+02   -0.78958E-01   -0.16311E-01 27416   0.204E+00    0.105E+00
DAV:  13    -0.411135673233E+02   -0.84482E-01   -0.29266E-01 23056   0.179E+00    0.109E+00
DAV:  14    -0.411250028404E+02   -0.11436E-01   -0.68741E-02 28488   0.201E+00    0.536E-01
DAV:  15    -0.411309147941E+02   -0.59120E-02   -0.18271E-02 29808   0.580E-01    0.418E-01
DAV:  16    -0.411388815727E+02   -0.79668E-02   -0.39615E-02 24112   0.972E-01    0.216E-01
DAV:  17    -0.411412951057E+02   -0.24135E-02   -0.90667E-03 32000   0.443E-01    0.179E-01
DAV:  18    -0.411431064391E+02   -0.18113E-02   -0.88682E-03 24928   0.472E-01    0.954E-02
DAV:  19    -0.411441293737E+02   -0.10229E-02   -0.12196E-02 23696   0.295E-01    0.516E-02
DAV:  20    -0.411442589985E+02   -0.12962E-03   -0.14298E-03 31696   0.183E-01    0.278E-02
DAV:  21    -0.411443528255E+02   -0.93827E-04   -0.21996E-04 29672   0.734E-02    0.177E-02
DAV:  22    -0.411443667354E+02   -0.13910E-04   -0.37878E-04 22408   0.540E-02    0.101E-02
DAV:  23    -0.411443588971E+02    0.78383E-05   -0.46048E-05 31912   0.295E-02    0.865E-03
DAV:  24    -0.411443605115E+02   -0.16144E-05   -0.28032E-05 25032   0.172E-02    0.665E-03
DAV:  25    -0.411443742559E+02   -0.13744E-04   -0.18731E-05 29168   0.183E-02    0.196E-03
DAV:  26    -0.411443738018E+02    0.45413E-06   -0.27407E-06 26608   0.824E-03    0.171E-03
DAV:  27    -0.411443747666E+02   -0.96478E-06   -0.44130E-07 16864   0.512E-03    0.752E-04
DAV:  28    -0.411443771777E+02   -0.24111E-05   -0.41733E-07 15096   0.422E-03    0.367E-04
DAV:  29    -0.411443775130E+02   -0.33536E-06   -0.54708E-08 12952   0.374E-03    0.197E-04
DAV:  30    -0.411443774548E+02    0.58271E-07   -0.27779E-08 13056   0.292E-03
   1 F= -.41144377E+02 E0= -.41144377E+02  d E =0.000000E+00  mag=     0.0000
