=========================================
SLURM_JOB_ID = 63457166
SLURM_JOB_NODELIST = lnode52
SLURM_GPUS = 
SLURM_CPUS_ON_NODE = 16
SLURM_JOB_PARTITION = lenovo
SLURM_TASK_PID = 2658107
CUDA_VISIBLE_DEVICES = 
==========================================
 running on   16 total cores
 distrk:  each k-point on   16 cores,    1 groups
 distr:  one band on    4 cores,    4 groups
 using from now: INCAR     
 vasp.5.4.4.18Apr17-6-g9f103f2a35 (build Apr 28 2018 00:24:27) complex          
  
 POSCAR found type information on POSCAR  Eu S 
 POSCAR found :  2 types and       2 ions
 scaLAPACK will be used

 ----------------------------------------------------------------------------- 
|                                                                             |
|  ADVICE TO THIS USER RUNNING 'VASP/VAMP'   (HEAR YOUR MASTER'S VOICE ...):  |
|                                                                             |
|      You have a (more or less) 'small supercell' and for smaller cells      |
|      it is recommended  to use the reciprocal-space projection scheme!      |
|      The real space optimization is not  efficient for small cells and it   |
|      is also less accurate ...                                              |
|      Therefore set LREAL=.FALSE. in the  INCAR file                         |
|                                                                             |
 ----------------------------------------------------------------------------- 

 LDA part: xc-table for Pade appr. of Perdew
 POSCAR, INCAR and KPOINTS ok, starting setup
 FFT: planning ...
 WAVECAR not read
 entering main loop
       N       E                     dE             d eps       ncg     rms          rms(c)
DAV:   1     0.156406614054E+03    0.15641E+03   -0.99500E+03 33824   0.240E+03
DAV:   2     0.181788325960E+01   -0.15459E+03   -0.13740E+03 32616   0.274E+02
DAV:   3    -0.152480026362E+02   -0.17066E+02   -0.16541E+02 34196   0.997E+01
DAV:   4    -0.161676869721E+02   -0.91968E+00   -0.90559E+00 47316   0.207E+01
DAV:   5    -0.162158695989E+02   -0.48183E-01   -0.47848E-01 43280   0.384E+00    0.129E+01
DAV:   6    -0.201932422728E+02   -0.39774E+01   -0.45869E+01 43688   0.676E+01    0.176E+01
DAV:   7    -0.190885875544E+02    0.11047E+01   -0.28260E+00 35032   0.389E+01    0.653E+00
DAV:   8    -0.187629624397E+02    0.32563E+00   -0.14178E+00 50096   0.142E+01    0.250E+00
DAV:   9    -0.188364485435E+02   -0.73486E-01   -0.13639E+00 39504   0.989E+00    0.348E+00
DAV:  10    -0.187482107387E+02    0.88238E-01   -0.82173E-01 38108   0.742E+00    0.106E+00
DAV:  11    -0.187639381699E+02   -0.15727E-01   -0.21771E-02 45940   0.112E+00    0.592E-01
DAV:  12    -0.187617843514E+02    0.21538E-02   -0.61888E-03 45116   0.751E-01    0.540E-01
DAV:  13    -0.187597491208E+02    0.20352E-02   -0.43039E-03 44304   0.550E-01    0.304E-01
DAV:  14    -0.187592469763E+02    0.50214E-03   -0.15208E-03 47980   0.325E-01    0.184E-01
DAV:  15    -0.187590424381E+02    0.20454E-03   -0.25974E-03 38592   0.430E-01    0.101E-02
DAV:  16    -0.187590520040E+02   -0.95659E-05   -0.11627E-04 44572   0.555E-02    0.951E-03
DAV:  17    -0.187590523570E+02   -0.35296E-06   -0.37494E-06 45160   0.925E-03    0.988E-03
DAV:  18    -0.187590426792E+02    0.96778E-05   -0.84696E-06 36840   0.243E-02    0.145E-02
DAV:  19    -0.187590387977E+02    0.38815E-05   -0.60679E-06 44524   0.207E-02    0.270E-02
DAV:  20    -0.187590475269E+02   -0.87292E-05   -0.10733E-05 37408   0.272E-02    0.136E-02
DAV:  21    -0.187590496452E+02   -0.21183E-05   -0.11796E-06 45464   0.786E-03    0.778E-03
DAV:  22    -0.187590502539E+02   -0.60872E-06   -0.91572E-08 21572   0.243E-03    0.419E-03
DAV:  23    -0.187590499624E+02    0.29147E-06   -0.27942E-08 17464   0.166E-03    0.263E-03
DAV:  24    -0.187590500969E+02   -0.13445E-06   -0.17014E-08 16544   0.129E-03    0.146E-03
DAV:  25    -0.187590501766E+02   -0.79731E-07   -0.86859E-09 16860   0.854E-04
   1 F= -.18759050E+02 E0= -.18759050E+02  d E =0.000000E+00  mag=     6.9908
