 vasp.5.4.4.18Apr17-6-g9f103f2a35 (build Apr 28 2018 00:24:27) complex          
  
 executed on             LinuxIFC date 2021.03.19  19:37:15
 running on    8 total cores
 distrk:  each k-point on    8 cores,    1 groups
 distr:  one band on NCORES_PER_BAND=   1 cores,    8 groups


--------------------------------------------------------------------------------------------------------


 INCAR:
 POTCAR:    PAW_PBE Ni 02Aug2007                  

 ----------------------------------------------------------------------------- 
|                                                                             |
|           W    W    AA    RRRRR   N    N  II  N    N   GGGG   !!!           |
|           W    W   A  A   R    R  NN   N  II  NN   N  G    G  !!!           |
|           W    W  A    A  R    R  N N  N  II  N N  N  G       !!!           |
|           W WW W  AAAAAA  RRRRR   N  N N  II  N  N N  G  GGG   !            |
|           WW  WW  A    A  R   R   N   NN  II  N   NN  G    G                |
|           W    W  A    A  R    R  N    N  II  N    N   GGGG   !!!           |
|                                                                             |
|      For optimal performance we recommend to set                            |
|        NCORE= 4 - approx SQRT( number of cores)                             |
|      NCORE specifies how many cores store one orbital (NPAR=cpu/NCORE).     |
|      This setting can  greatly improve the performance of VASP for DFT.     |
|      The default,   NCORE=1            might be grossly inefficient         |
|      on modern multi-core architectures or massively parallel machines.     |
|      Do your own testing !!!!                                               |
|      Unfortunately you need to use the default for GW and RPA calculations. |
|      (for HF NCORE is supported but not extensively tested yet)             |
|                                                                             |
 ----------------------------------------------------------------------------- 

 POTCAR:    PAW_PBE Ni 02Aug2007                  
   SHA256 =  0534bc51ca8003dfef23f56753fef9fdd3e22eac8d719fccacb59f3e6b7a69c7 Ni
   COPYR  = (c) Copyright 02Aug2007 Georg Kresse                                
   COPYR  = This file is part of the software VASP. Any use, copying, and all ot
   COPYR  = If you do not have a valid VASP license, you may not use, copy or di
   VRHFIN =Ni:                                                                  
   LEXCH  = PE                                                                  
   EATOM  =  1077.6739 eV,   79.2068 Ry                                         
                                                                                
   TITEL  = PAW_PBE Ni 02Aug2007                                                
   LULTRA =        F    use ultrasoft PP ?                                      
   IUNSCR =        1    unscreen: 0-lin 1-nonlin 2-no                           
   RPACOR =    2.000    partial core radius                                     
   POMASS =   58.690; ZVAL   =   10.000    mass and valenz                      
   RCORE  =    2.300    outmost cutoff radius                                   
   RWIGS  =    2.430; RWIGS  =    1.286    wigner-seitz radius (au A)           
   ENMAX  =  269.532; ENMIN  =  202.149 eV                                      
   RCLOC  =    1.201    cutoff for local pot                                    
   LCOR   =        T    correct aug charges                                     
   LPAW   =        T    paw PP                                                  
   EAUG   =  544.565                                                            
   DEXC   =    0.000                                                            
   RMAX   =    2.357    core radius for proj-oper                               
   RAUG   =    1.300    factor for augmentation sphere                          
   RDEP   =    2.390    radius for radial grids                                 
   RDEPT  =    1.838    core radius for aug-charge                              
                                                                                
   Atomic configuration                                                         
    9 entries                                                                   
     n  l   j            E        occ.                                          
     1  0  0.50     -8206.4253   2.0000                                         
     2  0  0.50      -976.1748   2.0000                                         
     2  1  1.50      -839.0571   6.0000                                         
     3  0  0.50      -105.9991   2.0000                                         
     3  1  1.50       -66.4603   6.0000                                         
     3  2  2.50        -4.6458   9.0000                                         
     4  0  0.50        -4.4926   1.0000                                         
     4  1  1.50        -4.0817   0.0000                                         
     4  3  2.50        -1.3606   0.0000                                         
   Description                                                                  
     l       E           TYP  RCUT    TYP  RCUT                                 
     2     -4.6457903     23  2.300                                             
     2     -6.0063729     23  2.300                                             
     0     -4.4925590     23  2.300                                             
     0      5.0102601     23  2.300                                             
     1     -2.7211652     23  2.300                                             
     1     16.5183231     23  2.300                                             
  local pseudopotential read in
  partial core-charges read in
  partial kinetic energy density read in
  atomic valenz-charges read in
  non local Contribution for L=           2  read in
    real space projection operators read in
  non local Contribution for L=           2  read in
    real space projection operators read in
  non local Contribution for L=           0  read in
    real space projection operators read in
  non local Contribution for L=           0  read in
    real space projection operators read in
  non local Contribution for L=           1  read in
    real space projection operators read in
  non local Contribution for L=           1  read in
    real space projection operators read in
    PAW grid and wavefunctions read in
 
   number of l-projection  operators is LMAX  =           6
   number of lm-projection operators is LMMAX =          18
 
  PAW_PBE Ni 02Aug2007                  :
 energy of atom  1       EATOM=-1077.6739
 kinetic energy error for atom=    0.0030 (will be added to EATOM!!)
 
 
 POSCAR: Ni1 str #: 10                           
  positions in direct lattice
  No initial velocities read in
 exchange correlation table for  LEXCH =        8
   RHO(1)=    0.500       N(1)  =     2000
   RHO(2)=  100.500       N(2)  =     4000
 


--------------------------------------------------------------------------------------------------------


 ion  position               nearest neighbor table
   1  0.000  0.000  0.000-   2 2.48   6 2.48   4 2.48   4 2.48   3 2.48   5 2.48   6 2.48   2 2.48
                             3 2.48   5 2.48
   2  0.333  0.333  0.167-   1 2.48   3 2.48   5 2.48   5 2.48   4 2.48   1 2.48   3 2.48   6 2.48
                             4 2.48   6 2.48
   3  0.667  0.667  0.333-   4 2.48   2 2.48   6 2.48   6 2.48   1 2.48   2 2.48   4 2.48   5 2.48
                             1 2.48   5 2.48
   4  0.000  0.000  0.500-   3 2.48   5 2.48   1 2.48   1 2.48   6 2.48   2 2.48   3 2.48   5 2.48
                             2 2.48   6 2.48
   5  0.333  0.333  0.667-   4 2.48   6 2.48   2 2.48   2 2.48   1 2.48   4 2.48   6 2.48   3 2.48
                             1 2.48   3 2.48
   6  0.667  0.667  0.833-   1 2.48   5 2.48   3 2.48   3 2.48   4 2.48   5 2.48   1 2.48   2 2.48
                             4 2.48   2 2.48
 
  LATTYP: Found a base centered monoclinic cell.
 ALAT       =    10.7956852406
 B/A-ratio  =     0.2294157383
 C/A-ratio  =     1.1920791102
 COS(beta)  =    -0.9036961113
  
  Lattice vectors:
  
 A1 = (  -1.2383502000,   3.5748086600,   4.0444342000)
 A2 = (   1.2383499000,   3.5748086600,   4.0444342000)
 A3 = (   0.0000003000,  -4.2897703800, -12.1333026000)


Analysis of symmetry for initial positions (statically):
=====================================================================
 Subroutine PRICEL returns following result:
 
  LATTYP: Found a face centered cubic cell.
 ALAT       =     3.5025828313
  
  Lattice vectors:
  
 A1 = (  -1.2383500975,   0.7149617343,   2.0222171000)
 A2 = (  -1.2383500975,   2.1448852043,   0.0000000000)
 A3 = (  -2.4767000963,   0.0000000064,   0.0000000000)
 
   6 primitive cells build up your supercell.
 

 Routine SETGRP: Setting up the symmetry group for a 
 base centered monoclinic supercell.


 Subroutine GETGRP returns: Found  4 space group operations
 (whereof  4 operations were pure point group operations)
 out of a pool of  4 trial point group operations.


The static configuration has the point symmetry C_2h.


Analysis of symmetry for dynamics (positions and initial velocities):
=====================================================================
 Subroutine PRICEL returns following result:
 
  LATTYP: Found a face centered cubic cell.
 ALAT       =     3.5025828313
  
  Lattice vectors:
  
 A1 = (  -1.2383500975,   0.7149617343,   2.0222171000)
 A2 = (  -1.2383500975,   2.1448852043,   0.0000000000)
 A3 = (  -2.4767000963,   0.0000000064,   0.0000000000)
 
   6 primitive cells build up your supercell.
 

 Routine SETGRP: Setting up the symmetry group for a 
 base centered monoclinic supercell.


 Subroutine GETGRP returns: Found  4 space group operations
 (whereof  4 operations were pure point group operations)
 out of a pool of  4 trial point group operations.


The dynamic configuration has the point symmetry C_2h.


Analysis of structural, dynamic, and magnetic symmetry:
=====================================================================
 Subroutine PRICEL returns following result:
 
  LATTYP: Found a body centered tetragonal cell.
 ALAT       =     2.4767001000
 C/A-ratio  =     4.2426406338
  
  Lattice vectors:
  
 A1 = (  -1.2383502000,   3.5748086600,   4.0444342000)
 A2 = (   1.2383499000,   5.0047321300,   2.0222171000)
 A3 = (  -1.2383499000,  -3.5748086600,  -4.0444342000)
 
   2 primitive cells build up your supercell.
 

 Routine SETGRP: Setting up the symmetry group for a 
 base centered monoclinic supercell.


 Subroutine GETGRP returns: Found  4 space group operations
 (whereof  2 operations were pure point group operations)
 out of a pool of  4 trial point group operations.


The magnetic configuration has the point symmetry C_1h.
 The point group associated with its full space group is C_2h.


 Subroutine INISYM returns: Found  4 space group operations
 (whereof  2 operations are pure point group operations),
 and found     2 'primitive' translations

 
 
 KPOINTS: k-points                                

Automatic generation of k-mesh.
Space group operators:
 irot       det(A)        alpha          n_x          n_y          n_z        tau_x        tau_y        tau_z
    1     1.000000     0.000000     1.000000     0.000000     0.000000     0.000000     0.000000     0.000000
    2    -1.000000   180.000000     1.000000     0.000000     0.000000     0.000000     0.000000     0.000000
    3    -1.000000     0.000000     1.000000     0.000000     0.000000    -0.333333     0.666667    -0.166667
    4     1.000000   180.000000     1.000000     0.000000     0.000000    -0.333333     0.666667    -0.166667
 
 Subroutine IBZKPT returns following result:
 ===========================================
 
 Found    366 irreducible k-points:
 
 Following reciprocal coordinates:
            Coordinates               Weight
  0.000000  0.000000  0.000000      1.000000
  0.090909  0.000000  0.000000      4.000000
  0.181818  0.000000  0.000000      4.000000
  0.272727  0.000000  0.000000      4.000000
  0.363636  0.000000  0.000000      4.000000
  0.454545  0.000000  0.000000      4.000000
  0.000000  0.090909 -0.000000      2.000000
  0.181818  0.090909  0.000000      2.000000
  0.272727  0.090909  0.000000      4.000000
  0.363636  0.090909  0.000000      4.000000
  0.454545  0.090909  0.000000      4.000000
 -0.454545  0.090909 -0.000000      4.000000
 -0.363636  0.090909 -0.000000      4.000000
 -0.272727  0.090909 -0.000000      4.000000
 -0.181818  0.090909 -0.000000      4.000000
 -0.090909  0.090909  0.000000      4.000000
  0.000000  0.181818 -0.000000      2.000000
  0.363636  0.181818  0.000000      2.000000
  0.454545  0.181818  0.000000      4.000000
 -0.454545  0.181818 -0.000000      4.000000
 -0.363636  0.181818 -0.000000      4.000000
 -0.272727  0.181818 -0.000000      4.000000
 -0.181818  0.181818  0.000000      4.000000
 -0.090909  0.181818 -0.000000      4.000000
  0.000000  0.272727 -0.000000      2.000000
 -0.454545  0.272727 -0.000000      2.000000
 -0.363636  0.272727 -0.000000      4.000000
 -0.272727  0.272727 -0.000000      4.000000
 -0.181818  0.272727 -0.000000      4.000000
 -0.090909  0.272727 -0.000000      4.000000
  0.000000  0.363636 -0.000000      2.000000
 -0.272727  0.363636 -0.000000      2.000000
 -0.181818  0.363636 -0.000000      4.000000
 -0.090909  0.363636 -0.000000      4.000000
  0.000000  0.454545 -0.000000      2.000000
 -0.090909  0.454545 -0.000000      2.000000
  0.000000 -0.000000  0.090909      2.000000
  0.090909 -0.000000  0.090909      4.000000
  0.181818 -0.000000  0.090909      4.000000
  0.272727 -0.000000  0.090909      4.000000
  0.363636 -0.000000  0.090909      4.000000
  0.454545  0.000000  0.090909      4.000000
 -0.454545 -0.000000  0.090909      4.000000
 -0.363636  0.000000  0.090909      4.000000
 -0.272727  0.000000  0.090909      4.000000
 -0.181818  0.000000  0.090909      4.000000
 -0.090909  0.000000  0.090909      4.000000
  0.000000  0.090909  0.090909      2.000000
  0.181818  0.090909  0.090909      4.000000
  0.272727  0.090909  0.090909      4.000000
  0.363636  0.090909  0.090909      4.000000
  0.454545  0.090909  0.090909      4.000000
 -0.454545  0.090909  0.090909      4.000000
 -0.363636  0.090909  0.090909      4.000000
 -0.272727  0.090909  0.090909      4.000000
 -0.181818  0.090909  0.090909      4.000000
 -0.090909  0.090909  0.090909      4.000000
  0.000000  0.181818  0.090909      2.000000
  0.272727  0.181818  0.090909      4.000000
  0.363636  0.181818  0.090909      4.000000
  0.454545  0.181818  0.090909      4.000000
 -0.454545  0.181818  0.090909      4.000000
 -0.363636  0.181818  0.090909      4.000000
 -0.272727  0.181818  0.090909      4.000000
 -0.181818  0.181818  0.090909      4.000000
 -0.090909  0.181818  0.090909      4.000000
  0.000000  0.272727  0.090909      2.000000
  0.363636  0.272727  0.090909      4.000000
  0.454545  0.272727  0.090909      4.000000
 -0.454545  0.272727  0.090909      4.000000
 -0.363636  0.272727  0.090909      4.000000
 -0.272727  0.272727  0.090909      4.000000
 -0.181818  0.272727  0.090909      4.000000
 -0.090909  0.272727  0.090909      4.000000
  0.000000  0.363636  0.090909      2.000000
  0.454545  0.363636  0.090909      4.000000
 -0.454545  0.363636  0.090909      4.000000
 -0.363636  0.363636  0.090909      4.000000
 -0.272727  0.363636  0.090909      4.000000
 -0.181818  0.363636  0.090909      4.000000
 -0.090909  0.363636  0.090909      4.000000
  0.000000  0.454545  0.090909      2.000000
 -0.454545  0.454545  0.090909      4.000000
 -0.363636  0.454545  0.090909      4.000000
 -0.272727  0.454545  0.090909      4.000000
 -0.181818  0.454545  0.090909      4.000000
 -0.090909  0.454545  0.090909      4.000000
  0.000000 -0.454545  0.090909      2.000000
 -0.363636 -0.454545  0.090909      4.000000
 -0.272727 -0.454545  0.090909      4.000000
 -0.181818 -0.454545  0.090909      4.000000
 -0.090909 -0.454545  0.090909      4.000000
  0.000000 -0.363636  0.090909      2.000000
 -0.272727 -0.363636  0.090909      4.000000
 -0.181818 -0.363636  0.090909      4.000000
 -0.090909 -0.363636  0.090909      4.000000
  0.000000 -0.272727  0.090909      2.000000
 -0.181818 -0.272727  0.090909      4.000000
 -0.090909 -0.272727  0.090909      4.000000
  0.000000 -0.181818  0.090909      2.000000
 -0.090909 -0.181818  0.090909      4.000000
  0.000000 -0.090909  0.090909      2.000000
  0.000000 -0.000000  0.181818      2.000000
  0.090909  0.000000  0.181818      4.000000
  0.181818 -0.000000  0.181818      4.000000
  0.272727  0.000000  0.181818      4.000000
  0.363636 -0.000000  0.181818      4.000000
  0.454545  0.000000  0.181818      4.000000
 -0.454545 -0.000000  0.181818      4.000000
 -0.363636  0.000000  0.181818      4.000000
 -0.272727 -0.000000  0.181818      4.000000
 -0.181818  0.000000  0.181818      4.000000
 -0.090909 -0.000000  0.181818      4.000000
  0.000000  0.090909  0.181818      2.000000
  0.181818  0.090909  0.181818      4.000000
  0.272727  0.090909  0.181818      4.000000
  0.363636  0.090909  0.181818      4.000000
  0.454545  0.090909  0.181818      4.000000
 -0.454545  0.090909  0.181818      4.000000
 -0.363636  0.090909  0.181818      4.000000
 -0.272727  0.090909  0.181818      4.000000
 -0.181818  0.090909  0.181818      4.000000
 -0.090909  0.090909  0.181818      4.000000
  0.000000  0.181818  0.181818      2.000000
  0.272727  0.181818  0.181818      4.000000
  0.363636  0.181818  0.181818      4.000000
  0.454545  0.181818  0.181818      4.000000
 -0.454545  0.181818  0.181818      4.000000
 -0.363636  0.181818  0.181818      4.000000
 -0.272727  0.181818  0.181818      4.000000
 -0.181818  0.181818  0.181818      4.000000
 -0.090909  0.181818  0.181818      4.000000
  0.000000  0.272727  0.181818      2.000000
  0.363636  0.272727  0.181818      4.000000
  0.454545  0.272727  0.181818      4.000000
 -0.454545  0.272727  0.181818      4.000000
 -0.363636  0.272727  0.181818      4.000000
 -0.272727  0.272727  0.181818      4.000000
 -0.181818  0.272727  0.181818      4.000000
 -0.090909  0.272727  0.181818      4.000000
  0.000000  0.363636  0.181818      2.000000
  0.454545  0.363636  0.181818      4.000000
 -0.454545  0.363636  0.181818      4.000000
 -0.363636  0.363636  0.181818      4.000000
 -0.272727  0.363636  0.181818      4.000000
 -0.181818  0.363636  0.181818      4.000000
 -0.090909  0.363636  0.181818      4.000000
  0.000000  0.454545  0.181818      2.000000
 -0.454545  0.454545  0.181818      4.000000
 -0.363636  0.454545  0.181818      4.000000
 -0.272727  0.454545  0.181818      4.000000
 -0.181818  0.454545  0.181818      4.000000
 -0.090909  0.454545  0.181818      4.000000
  0.000000 -0.454545  0.181818      2.000000
 -0.363636 -0.454545  0.181818      4.000000
 -0.272727 -0.454545  0.181818      4.000000
 -0.181818 -0.454545  0.181818      4.000000
 -0.090909 -0.454545  0.181818      4.000000
  0.000000 -0.363636  0.181818      2.000000
 -0.272727 -0.363636  0.181818      4.000000
 -0.181818 -0.363636  0.181818      4.000000
 -0.090909 -0.363636  0.181818      4.000000
  0.000000 -0.272727  0.181818      2.000000
 -0.181818 -0.272727  0.181818      4.000000
 -0.090909 -0.272727  0.181818      4.000000
  0.000000 -0.181818  0.181818      2.000000
 -0.090909 -0.181818  0.181818      4.000000
  0.000000 -0.090909  0.181818      2.000000
  0.000000  0.000000  0.272727      2.000000
  0.090909 -0.000000  0.272727      4.000000
  0.181818  0.000000  0.272727      4.000000
  0.272727 -0.000000  0.272727      4.000000
  0.363636  0.000000  0.272727      4.000000
  0.454545  0.000000  0.272727      4.000000
 -0.454545 -0.000000  0.272727      4.000000
 -0.363636 -0.000000  0.272727      4.000000
 -0.272727  0.000000  0.272727      4.000000
 -0.181818  0.000000  0.272727      4.000000
 -0.090909  0.000000  0.272727      4.000000
  0.000000  0.090909  0.272727      2.000000
  0.181818  0.090909  0.272727      4.000000
  0.272727  0.090909  0.272727      4.000000
  0.363636  0.090909  0.272727      4.000000
  0.454545  0.090909  0.272727      4.000000
 -0.454545  0.090909  0.272727      4.000000
 -0.363636  0.090909  0.272727      4.000000
 -0.272727  0.090909  0.272727      4.000000
 -0.181818  0.090909  0.272727      4.000000
 -0.090909  0.090909  0.272727      4.000000
  0.000000  0.181818  0.272727      2.000000
  0.272727  0.181818  0.272727      4.000000
  0.363636  0.181818  0.272727      4.000000
  0.454545  0.181818  0.272727      4.000000
 -0.454545  0.181818  0.272727      4.000000
 -0.363636  0.181818  0.272727      4.000000
 -0.272727  0.181818  0.272727      4.000000
 -0.181818  0.181818  0.272727      4.000000
 -0.090909  0.181818  0.272727      4.000000
  0.000000  0.272727  0.272727      2.000000
  0.363636  0.272727  0.272727      4.000000
  0.454545  0.272727  0.272727      4.000000
 -0.454545  0.272727  0.272727      4.000000
 -0.363636  0.272727  0.272727      4.000000
 -0.272727  0.272727  0.272727      4.000000
 -0.181818  0.272727  0.272727      4.000000
 -0.090909  0.272727  0.272727      4.000000
  0.000000  0.363636  0.272727      2.000000
  0.454545  0.363636  0.272727      4.000000
 -0.454545  0.363636  0.272727      4.000000
 -0.363636  0.363636  0.272727      4.000000
 -0.272727  0.363636  0.272727      4.000000
 -0.181818  0.363636  0.272727      4.000000
 -0.090909  0.363636  0.272727      4.000000
  0.000000  0.454545  0.272727      2.000000
 -0.454545  0.454545  0.272727      4.000000
 -0.363636  0.454545  0.272727      4.000000
 -0.272727  0.454545  0.272727      4.000000
 -0.181818  0.454545  0.272727      4.000000
 -0.090909  0.454545  0.272727      4.000000
  0.000000 -0.454545  0.272727      2.000000
 -0.363636 -0.454545  0.272727      4.000000
 -0.272727 -0.454545  0.272727      4.000000
 -0.181818 -0.454545  0.272727      4.000000
 -0.090909 -0.454545  0.272727      4.000000
  0.000000 -0.363636  0.272727      2.000000
 -0.272727 -0.363636  0.272727      4.000000
 -0.181818 -0.363636  0.272727      4.000000
 -0.090909 -0.363636  0.272727      4.000000
  0.000000 -0.272727  0.272727      2.000000
 -0.181818 -0.272727  0.272727      4.000000
 -0.090909 -0.272727  0.272727      4.000000
  0.000000 -0.181818  0.272727      2.000000
 -0.090909 -0.181818  0.272727      4.000000
  0.000000 -0.090909  0.272727      2.000000
  0.000000 -0.000000  0.363636      2.000000
  0.090909 -0.000000  0.363636      4.000000
  0.181818  0.000000  0.363636      4.000000
  0.272727 -0.000000  0.363636      4.000000
  0.363636 -0.000000  0.363636      4.000000
  0.454545  0.000000  0.363636      4.000000
 -0.454545 -0.000000  0.363636      4.000000
 -0.363636  0.000000  0.363636      4.000000
 -0.272727 -0.000000  0.363636      4.000000
 -0.181818 -0.000000  0.363636      4.000000
 -0.090909 -0.000000  0.363636      4.000000
  0.000000  0.090909  0.363636      2.000000
  0.181818  0.090909  0.363636      4.000000
  0.272727  0.090909  0.363636      4.000000
  0.363636  0.090909  0.363636      4.000000
  0.454545  0.090909  0.363636      4.000000
 -0.454545  0.090909  0.363636      4.000000
 -0.363636  0.090909  0.363636      4.000000
 -0.272727  0.090909  0.363636      4.000000
 -0.181818  0.090909  0.363636      4.000000
 -0.090909  0.090909  0.363636      4.000000
  0.000000  0.181818  0.363636      2.000000
  0.272727  0.181818  0.363636      4.000000
  0.363636  0.181818  0.363636      4.000000
  0.454545  0.181818  0.363636      4.000000
 -0.454545  0.181818  0.363636      4.000000
 -0.363636  0.181818  0.363636      4.000000
 -0.272727  0.181818  0.363636      4.000000
 -0.181818  0.181818  0.363636      4.000000
 -0.090909  0.181818  0.363636      4.000000
  0.000000  0.272727  0.363636      2.000000
  0.363636  0.272727  0.363636      4.000000
  0.454545  0.272727  0.363636      4.000000
 -0.454545  0.272727  0.363636      4.000000
 -0.363636  0.272727  0.363636      4.000000
 -0.272727  0.272727  0.363636      4.000000
 -0.181818  0.272727  0.363636      4.000000
 -0.090909  0.272727  0.363636      4.000000
  0.000000  0.363636  0.363636      2.000000
  0.454545  0.363636  0.363636      4.000000
 -0.454545  0.363636  0.363636      4.000000
 -0.363636  0.363636  0.363636      4.000000
 -0.272727  0.363636  0.363636      4.000000
 -0.181818  0.363636  0.363636      4.000000
 -0.090909  0.363636  0.363636      4.000000
  0.000000  0.454545  0.363636      2.000000
 -0.454545  0.454545  0.363636      4.000000
 -0.363636  0.454545  0.363636      4.000000
 -0.272727  0.454545  0.363636      4.000000
 -0.181818  0.454545  0.363636      4.000000
 -0.090909  0.454545  0.363636      4.000000
  0.000000 -0.454545  0.363636      2.000000
 -0.363636 -0.454545  0.363636      4.000000
 -0.272727 -0.454545  0.363636      4.000000
 -0.181818 -0.454545  0.363636      4.000000
 -0.090909 -0.454545  0.363636      4.000000
  0.000000 -0.363636  0.363636      2.000000
 -0.272727 -0.363636  0.363636      4.000000
 -0.181818 -0.363636  0.363636      4.000000
 -0.090909 -0.363636  0.363636      4.000000
  0.000000 -0.272727  0.363636      2.000000
 -0.181818 -0.272727  0.363636      4.000000
 -0.090909 -0.272727  0.363636      4.000000
  0.000000 -0.181818  0.363636      2.000000
 -0.090909 -0.181818  0.363636      4.000000
  0.000000 -0.090909  0.363636      2.000000
  0.000000 -0.000000  0.454545      2.000000
  0.090909  0.000000  0.454545      4.000000
  0.181818 -0.000000  0.454545      4.000000
  0.272727  0.000000  0.454545      4.000000
  0.363636 -0.000000  0.454545      4.000000
  0.454545 -0.000000  0.454545      4.000000
 -0.454545 -0.000000  0.454545      4.000000
 -0.363636  0.000000  0.454545      4.000000
 -0.272727 -0.000000  0.454545      4.000000
 -0.181818  0.000000  0.454545      4.000000
 -0.090909 -0.000000  0.454545      4.000000
  0.000000  0.090909  0.454545      2.000000
  0.181818  0.090909  0.454545      4.000000
  0.272727  0.090909  0.454545      4.000000
  0.363636  0.090909  0.454545      4.000000
  0.454545  0.090909  0.454545      4.000000
 -0.454545  0.090909  0.454545      4.000000
 -0.363636  0.090909  0.454545      4.000000
 -0.272727  0.090909  0.454545      4.000000
 -0.181818  0.090909  0.454545      4.000000
 -0.090909  0.090909  0.454545      4.000000
  0.000000  0.181818  0.454545      2.000000
  0.272727  0.181818  0.454545      4.000000
  0.363636  0.181818  0.454545      4.000000
  0.454545  0.181818  0.454545      4.000000
 -0.454545  0.181818  0.454545      4.000000
 -0.363636  0.181818  0.454545      4.000000
 -0.272727  0.181818  0.454545      4.000000
 -0.181818  0.181818  0.454545      4.000000
 -0.090909  0.181818  0.454545      4.000000
  0.000000  0.272727  0.454545      2.000000
  0.363636  0.272727  0.454545      4.000000
  0.454545  0.272727  0.454545      4.000000
 -0.454545  0.272727  0.454545      4.000000
 -0.363636  0.272727  0.454545      4.000000
 -0.272727  0.272727  0.454545      4.000000
 -0.181818  0.272727  0.454545      4.000000
 -0.090909  0.272727  0.454545      4.000000
  0.000000  0.363636  0.454545      2.000000
  0.454545  0.363636  0.454545      4.000000
 -0.454545  0.363636  0.454545      4.000000
 -0.363636  0.363636  0.454545      4.000000
 -0.272727  0.363636  0.454545      4.000000
 -0.181818  0.363636  0.454545      4.000000
 -0.090909  0.363636  0.454545      4.000000
  0.000000  0.454545  0.454545      2.000000
 -0.454545  0.454545  0.454545      4.000000
 -0.363636  0.454545  0.454545      4.000000
 -0.272727  0.454545  0.454545      4.000000
 -0.181818  0.454545  0.454545      4.000000
 -0.090909  0.454545  0.454545      4.000000
  0.000000 -0.454545  0.454545      2.000000
 -0.363636 -0.454545  0.454545      4.000000
 -0.272727 -0.454545  0.454545      4.000000
 -0.181818 -0.454545  0.454545      4.000000
 -0.090909 -0.454545  0.454545      4.000000
  0.000000 -0.363636  0.454545      2.000000
 -0.272727 -0.363636  0.454545      4.000000
 -0.181818 -0.363636  0.454545      4.000000
 -0.090909 -0.363636  0.454545      4.000000
  0.000000 -0.272727  0.454545      2.000000
 -0.181818 -0.272727  0.454545      4.000000
 -0.090909 -0.272727  0.454545      4.000000
  0.000000 -0.181818  0.454545      2.000000
 -0.090909 -0.181818  0.454545      4.000000
  0.000000 -0.090909  0.454545      2.000000
 
 Following cartesian coordinates:
            Coordinates               Weight
  0.000000  0.000000  0.000000      1.000000
  0.036706 -0.007064 -0.004995      4.000000
  0.073411 -0.014128 -0.009990      4.000000
  0.110117 -0.021192 -0.014985      4.000000
  0.146823 -0.028256 -0.019980      4.000000
  0.183529 -0.035320 -0.024975      4.000000
  0.000000  0.014128  0.009990      2.000000
  0.073411  0.000000  0.000000      2.000000
  0.110117 -0.007064 -0.004995      4.000000
  0.146823 -0.014128 -0.009990      4.000000
  0.183529 -0.021192 -0.014985      4.000000
 -0.183529  0.049448  0.034965      4.000000
 -0.146823  0.042384  0.029970      4.000000
 -0.110117  0.035320  0.024975      4.000000
 -0.073411  0.028256  0.019980      4.000000
 -0.036706  0.021192  0.014985      4.000000
  0.000000  0.028256  0.019980      2.000000
  0.146823  0.000000  0.000000      2.000000
  0.183529 -0.007064 -0.004995      4.000000
 -0.183529  0.063576  0.044955      4.000000
 -0.146823  0.056512  0.039960      4.000000
 -0.110117  0.049448  0.034965      4.000000
 -0.073411  0.042384  0.029970      4.000000
 -0.036706  0.035320  0.024975      4.000000
  0.000000  0.042384  0.029970      2.000000
 -0.183529  0.077704  0.054945      2.000000
 -0.146823  0.070640  0.049950      4.000000
 -0.110117  0.063576  0.044955      4.000000
 -0.073411  0.056512  0.039960      4.000000
 -0.036706  0.049448  0.034965      4.000000
  0.000000  0.056512  0.039960      2.000000
 -0.110117  0.077704  0.054945      2.000000
 -0.073411  0.070640  0.049950      4.000000
 -0.036706  0.063576  0.044955      4.000000
  0.000000  0.070640  0.049950      2.000000
 -0.036706  0.077704  0.054945      2.000000
  0.000000 -0.014128  0.012488      2.000000
  0.036706 -0.021192  0.007493      4.000000
  0.073411 -0.028256  0.002498      4.000000
  0.110117 -0.035320 -0.002498      4.000000
  0.146823 -0.042384 -0.007493      4.000000
  0.183529 -0.049448 -0.012488      4.000000
 -0.183529  0.021192  0.037463      4.000000
 -0.146823  0.014128  0.032468      4.000000
 -0.110117  0.007064  0.027473      4.000000
 -0.073411 -0.000000  0.022478      4.000000
 -0.036706 -0.007064  0.017483      4.000000
  0.000000  0.000000  0.022478      2.000000
  0.073411 -0.014128  0.012488      4.000000
  0.110117 -0.021192  0.007493      4.000000
  0.146823 -0.028256  0.002498      4.000000
  0.183529 -0.035320 -0.002498      4.000000
 -0.183529  0.035320  0.047453      4.000000
 -0.146823  0.028256  0.042458      4.000000
 -0.110117  0.021192  0.037463      4.000000
 -0.073411  0.014128  0.032468      4.000000
 -0.036706  0.007064  0.027473      4.000000
  0.000000  0.014128  0.032468      2.000000
  0.110117 -0.007064  0.017483      4.000000
  0.146823 -0.014128  0.012488      4.000000
  0.183529 -0.021192  0.007493      4.000000
 -0.183529  0.049448  0.057443      4.000000
 -0.146823  0.042384  0.052448      4.000000
 -0.110117  0.035320  0.047453      4.000000
 -0.073411  0.028256  0.042458      4.000000
 -0.036706  0.021192  0.037463      4.000000
  0.000000  0.028256  0.042458      2.000000
  0.146823  0.000000  0.022478      4.000000
  0.183529 -0.007064  0.017483      4.000000
 -0.183529  0.063576  0.067433      4.000000
 -0.146823  0.056512  0.062438      4.000000
 -0.110117  0.049448  0.057443      4.000000
 -0.073411  0.042384  0.052448      4.000000
 -0.036706  0.035320  0.047453      4.000000
  0.000000  0.042384  0.052448      2.000000
  0.183529  0.007064  0.027473      4.000000
 -0.183529  0.077704  0.077423      4.000000
 -0.146823  0.070640  0.072428      4.000000
 -0.110117  0.063576  0.067433      4.000000
 -0.073411  0.056512  0.062438      4.000000
 -0.036706  0.049448  0.057443      4.000000
  0.000000  0.056512  0.062438      2.000000
 -0.183529  0.091832  0.087413      4.000000
 -0.146823  0.084768  0.082418      4.000000
 -0.110117  0.077704  0.077423      4.000000
 -0.073411  0.070640  0.072428      4.000000
 -0.036706  0.063576  0.067433      4.000000
  0.000000 -0.084768 -0.037463      2.000000
 -0.146823 -0.056512 -0.017483      4.000000
 -0.110117 -0.063576 -0.022478      4.000000
 -0.073411 -0.070640 -0.027473      4.000000
 -0.036706 -0.077704 -0.032468      4.000000
  0.000000 -0.070640 -0.027473      2.000000
 -0.110117 -0.049448 -0.012488      4.000000
 -0.073411 -0.056512 -0.017483      4.000000
 -0.036706 -0.063576 -0.022478      4.000000
  0.000000 -0.056512 -0.017483      2.000000
 -0.073411 -0.042384 -0.007493      4.000000
 -0.036706 -0.049448 -0.012488      4.000000
  0.000000 -0.042384 -0.007493      2.000000
 -0.036706 -0.035320 -0.002498      4.000000
  0.000000 -0.028256  0.002498      2.000000
  0.000000 -0.028256  0.024975      2.000000
  0.036706 -0.035320  0.019980      4.000000
  0.073411 -0.042384  0.014985      4.000000
  0.110117 -0.049448  0.009990      4.000000
  0.146823 -0.056512  0.004995      4.000000
  0.183529 -0.063576  0.000000      4.000000
 -0.183529  0.007064  0.049950      4.000000
 -0.146823 -0.000000  0.044955      4.000000
 -0.110117 -0.007064  0.039960      4.000000
 -0.073411 -0.014128  0.034965      4.000000
 -0.036706 -0.021192  0.029970      4.000000
  0.000000 -0.014128  0.034965      2.000000
  0.073411 -0.028256  0.024975      4.000000
  0.110117 -0.035320  0.019980      4.000000
  0.146823 -0.042384  0.014985      4.000000
  0.183529 -0.049448  0.009990      4.000000
 -0.183529  0.021192  0.059940      4.000000
 -0.146823  0.014128  0.054945      4.000000
 -0.110117  0.007064  0.049950      4.000000
 -0.073411 -0.000000  0.044955      4.000000
 -0.036706 -0.007064  0.039960      4.000000
  0.000000  0.000000  0.044955      2.000000
  0.110117 -0.021192  0.029970      4.000000
  0.146823 -0.028256  0.024975      4.000000
  0.183529 -0.035320  0.019980      4.000000
 -0.183529  0.035320  0.069930      4.000000
 -0.146823  0.028256  0.064935      4.000000
 -0.110117  0.021192  0.059940      4.000000
 -0.073411  0.014128  0.054945      4.000000
 -0.036706  0.007064  0.049950      4.000000
  0.000000  0.014128  0.054945      2.000000
  0.146823 -0.014128  0.034965      4.000000
  0.183529 -0.021192  0.029970      4.000000
 -0.183529  0.049448  0.079920      4.000000
 -0.146823  0.042384  0.074925      4.000000
 -0.110117  0.035320  0.069930      4.000000
 -0.073411  0.028256  0.064935      4.000000
 -0.036706  0.021192  0.059940      4.000000
  0.000000  0.028256  0.064935      2.000000
  0.183529 -0.007064  0.039960      4.000000
 -0.183529  0.063576  0.089910      4.000000
 -0.146823  0.056512  0.084915      4.000000
 -0.110117  0.049448  0.079920      4.000000
 -0.073411  0.042384  0.074925      4.000000
 -0.036706  0.035320  0.069930      4.000000
  0.000000  0.042384  0.074925      2.000000
 -0.183529  0.077704  0.099900      4.000000
 -0.146823  0.070640  0.094905      4.000000
 -0.110117  0.063576  0.089910      4.000000
 -0.073411  0.056512  0.084915      4.000000
 -0.036706  0.049448  0.079920      4.000000
  0.000000 -0.098896 -0.024975      2.000000
 -0.146823 -0.070640 -0.004995      4.000000
 -0.110117 -0.077704 -0.009990      4.000000
 -0.073411 -0.084768 -0.014985      4.000000
 -0.036706 -0.091832 -0.019980      4.000000
  0.000000 -0.084768 -0.014985      2.000000
 -0.110117 -0.063576 -0.000000      4.000000
 -0.073411 -0.070640 -0.004995      4.000000
 -0.036706 -0.077704 -0.009990      4.000000
  0.000000 -0.070640 -0.004995      2.000000
 -0.073411 -0.056512  0.004995      4.000000
 -0.036706 -0.063576 -0.000000      4.000000
  0.000000 -0.056512  0.004995      2.000000
 -0.036706 -0.049448  0.009990      4.000000
  0.000000 -0.042384  0.014985      2.000000
  0.000000 -0.042384  0.037463      2.000000
  0.036706 -0.049448  0.032468      4.000000
  0.073411 -0.056512  0.027473      4.000000
  0.110117 -0.063576  0.022478      4.000000
  0.146823 -0.070640  0.017483      4.000000
  0.183529 -0.077704  0.012488      4.000000
 -0.183529 -0.007064  0.062438      4.000000
 -0.146823 -0.014128  0.057443      4.000000
 -0.110117 -0.021192  0.052448      4.000000
 -0.073411 -0.028256  0.047453      4.000000
 -0.036706 -0.035320  0.042458      4.000000
  0.000000 -0.028256  0.047453      2.000000
  0.073411 -0.042384  0.037463      4.000000
  0.110117 -0.049448  0.032468      4.000000
  0.146823 -0.056512  0.027473      4.000000
  0.183529 -0.063576  0.022478      4.000000
 -0.183529  0.007064  0.072428      4.000000
 -0.146823 -0.000000  0.067433      4.000000
 -0.110117 -0.007064  0.062438      4.000000
 -0.073411 -0.014128  0.057443      4.000000
 -0.036706 -0.021192  0.052448      4.000000
  0.000000 -0.014128  0.057443      2.000000
  0.110117 -0.035320  0.042458      4.000000
  0.146823 -0.042384  0.037463      4.000000
  0.183529 -0.049448  0.032468      4.000000
 -0.183529  0.021192  0.082418      4.000000
 -0.146823  0.014128  0.077423      4.000000
 -0.110117  0.007064  0.072428      4.000000
 -0.073411 -0.000000  0.067433      4.000000
 -0.036706 -0.007064  0.062438      4.000000
  0.000000  0.000000  0.067433      2.000000
  0.146823 -0.028256  0.047453      4.000000
  0.183529 -0.035320  0.042458      4.000000
 -0.183529  0.035320  0.092408      4.000000
 -0.146823  0.028256  0.087413      4.000000
 -0.110117  0.021192  0.082418      4.000000
 -0.073411  0.014128  0.077423      4.000000
 -0.036706  0.007064  0.072428      4.000000
  0.000000  0.014128  0.077423      2.000000
  0.183529 -0.021192  0.052448      4.000000
 -0.183529  0.049448  0.102398      4.000000
 -0.146823  0.042384  0.097403      4.000000
 -0.110117  0.035320  0.092408      4.000000
 -0.073411  0.028256  0.087413      4.000000
 -0.036706  0.021192  0.082418      4.000000
  0.000000  0.028256  0.087413      2.000000
 -0.183529  0.063576  0.112388      4.000000
 -0.146823  0.056512  0.107393      4.000000
 -0.110117  0.049448  0.102398      4.000000
 -0.073411  0.042384  0.097403      4.000000
 -0.036706  0.035320  0.092408      4.000000
  0.000000 -0.113024 -0.012488      2.000000
 -0.146823 -0.084768  0.007493      4.000000
 -0.110117 -0.091832  0.002498      4.000000
 -0.073411 -0.098896 -0.002498      4.000000
 -0.036706 -0.105960 -0.007493      4.000000
  0.000000 -0.098896 -0.002498      2.000000
 -0.110117 -0.077704  0.012488      4.000000
 -0.073411 -0.084768  0.007493      4.000000
 -0.036706 -0.091832  0.002498      4.000000
  0.000000 -0.084768  0.007493      2.000000
 -0.073411 -0.070640  0.017483      4.000000
 -0.036706 -0.077704  0.012488      4.000000
  0.000000 -0.070640  0.017483      2.000000
 -0.036706 -0.063576  0.022478      4.000000
  0.000000 -0.056512  0.027473      2.000000
  0.000000 -0.056512  0.049950      2.000000
  0.036706 -0.063576  0.044955      4.000000
  0.073411 -0.070640  0.039960      4.000000
  0.110117 -0.077704  0.034965      4.000000
  0.146823 -0.084768  0.029970      4.000000
  0.183529 -0.091832  0.024975      4.000000
 -0.183529 -0.021192  0.074925      4.000000
 -0.146823 -0.028256  0.069930      4.000000
 -0.110117 -0.035320  0.064935      4.000000
 -0.073411 -0.042384  0.059940      4.000000
 -0.036706 -0.049448  0.054945      4.000000
  0.000000 -0.042384  0.059940      2.000000
  0.073411 -0.056512  0.049950      4.000000
  0.110117 -0.063576  0.044955      4.000000
  0.146823 -0.070640  0.039960      4.000000
  0.183529 -0.077704  0.034965      4.000000
 -0.183529 -0.007064  0.084915      4.000000
 -0.146823 -0.014128  0.079920      4.000000
 -0.110117 -0.021192  0.074925      4.000000
 -0.073411 -0.028256  0.069930      4.000000
 -0.036706 -0.035320  0.064935      4.000000
  0.000000 -0.028256  0.069930      2.000000
  0.110117 -0.049448  0.054945      4.000000
  0.146823 -0.056512  0.049950      4.000000
  0.183529 -0.063576  0.044955      4.000000
 -0.183529  0.007064  0.094905      4.000000
 -0.146823 -0.000000  0.089910      4.000000
 -0.110117 -0.007064  0.084915      4.000000
 -0.073411 -0.014128  0.079920      4.000000
 -0.036706 -0.021192  0.074925      4.000000
  0.000000 -0.014128  0.079920      2.000000
  0.146823 -0.042384  0.059940      4.000000
  0.183529 -0.049448  0.054945      4.000000
 -0.183529  0.021192  0.104895      4.000000
 -0.146823  0.014128  0.099900      4.000000
 -0.110117  0.007064  0.094905      4.000000
 -0.073411 -0.000000  0.089910      4.000000
 -0.036706 -0.007064  0.084915      4.000000
  0.000000  0.000000  0.089910      2.000000
  0.183529 -0.035320  0.064935      4.000000
 -0.183529  0.035320  0.114885      4.000000
 -0.146823  0.028256  0.109890      4.000000
 -0.110117  0.021192  0.104895      4.000000
 -0.073411  0.014128  0.099900      4.000000
 -0.036706  0.007064  0.094905      4.000000
  0.000000  0.014128  0.099900      2.000000
 -0.183529  0.049448  0.124875      4.000000
 -0.146823  0.042384  0.119880      4.000000
 -0.110117  0.035320  0.114885      4.000000
 -0.073411  0.028256  0.109890      4.000000
 -0.036706  0.021192  0.104895      4.000000
  0.000000 -0.127152 -0.000000      2.000000
 -0.146823 -0.098896  0.019980      4.000000
 -0.110117 -0.105960  0.014985      4.000000
 -0.073411 -0.113024  0.009990      4.000000
 -0.036706 -0.120088  0.004995      4.000000
  0.000000 -0.113024  0.009990      2.000000
 -0.110117 -0.091832  0.024975      4.000000
 -0.073411 -0.098896  0.019980      4.000000
 -0.036706 -0.105960  0.014985      4.000000
  0.000000 -0.098896  0.019980      2.000000
 -0.073411 -0.084768  0.029970      4.000000
 -0.036706 -0.091832  0.024975      4.000000
  0.000000 -0.084768  0.029970      2.000000
 -0.036706 -0.077704  0.034965      4.000000
  0.000000 -0.070640  0.039960      2.000000
  0.000000 -0.070640  0.062438      2.000000
  0.036706 -0.077704  0.057443      4.000000
  0.073411 -0.084768  0.052448      4.000000
  0.110117 -0.091832  0.047453      4.000000
  0.146823 -0.098896  0.042458      4.000000
  0.183529 -0.105960  0.037463      4.000000
 -0.183529 -0.035320  0.087413      4.000000
 -0.146823 -0.042384  0.082418      4.000000
 -0.110117 -0.049448  0.077423      4.000000
 -0.073411 -0.056512  0.072428      4.000000
 -0.036706 -0.063576  0.067433      4.000000
  0.000000 -0.056512  0.072428      2.000000
  0.073411 -0.070640  0.062438      4.000000
  0.110117 -0.077704  0.057443      4.000000
  0.146823 -0.084768  0.052448      4.000000
  0.183529 -0.091832  0.047453      4.000000
 -0.183529 -0.021192  0.097403      4.000000
 -0.146823 -0.028256  0.092408      4.000000
 -0.110117 -0.035320  0.087413      4.000000
 -0.073411 -0.042384  0.082418      4.000000
 -0.036706 -0.049448  0.077423      4.000000
  0.000000 -0.042384  0.082418      2.000000
  0.110117 -0.063576  0.067433      4.000000
  0.146823 -0.070640  0.062438      4.000000
  0.183529 -0.077704  0.057443      4.000000
 -0.183529 -0.007064  0.107393      4.000000
 -0.146823 -0.014128  0.102398      4.000000
 -0.110117 -0.021192  0.097403      4.000000
 -0.073411 -0.028256  0.092408      4.000000
 -0.036706 -0.035320  0.087413      4.000000
  0.000000 -0.028256  0.092408      2.000000
  0.146823 -0.056512  0.072428      4.000000
  0.183529 -0.063576  0.067433      4.000000
 -0.183529  0.007064  0.117383      4.000000
 -0.146823 -0.000000  0.112388      4.000000
 -0.110117 -0.007064  0.107393      4.000000
 -0.073411 -0.014128  0.102398      4.000000
 -0.036706 -0.021192  0.097403      4.000000
  0.000000 -0.014128  0.102398      2.000000
  0.183529 -0.049448  0.077423      4.000000
 -0.183529  0.021192  0.127373      4.000000
 -0.146823  0.014128  0.122378      4.000000
 -0.110117  0.007064  0.117383      4.000000
 -0.073411 -0.000000  0.112388      4.000000
 -0.036706 -0.007064  0.107393      4.000000
  0.000000  0.000000  0.112388      2.000000
 -0.183529  0.035320  0.137363      4.000000
 -0.146823  0.028256  0.132368      4.000000
 -0.110117  0.021192  0.127373      4.000000
 -0.073411  0.014128  0.122378      4.000000
 -0.036706  0.007064  0.117383      4.000000
  0.000000 -0.141280  0.012488      2.000000
 -0.146823 -0.113024  0.032468      4.000000
 -0.110117 -0.120088  0.027473      4.000000
 -0.073411 -0.127152  0.022478      4.000000
 -0.036706 -0.134216  0.017483      4.000000
  0.000000 -0.127152  0.022478      2.000000
 -0.110117 -0.105960  0.037463      4.000000
 -0.073411 -0.113024  0.032468      4.000000
 -0.036706 -0.120088  0.027473      4.000000
  0.000000 -0.113024  0.032468      2.000000
 -0.073411 -0.098896  0.042458      4.000000
 -0.036706 -0.105960  0.037463      4.000000
  0.000000 -0.098896  0.042458      2.000000
 -0.036706 -0.091832  0.047453      4.000000
  0.000000 -0.084768  0.052448      2.000000
 


--------------------------------------------------------------------------------------------------------




 Dimension of arrays:
   k-points           NKPTS =    366   k-points in BZ     NKDIM =    366   number of bands    NBANDS=     40
   number of dos      NEDOS =    301   number of ions     NIONS =      6
   non local maximal  LDIM  =      6   non local SUM 2l+1 LMDIM =     18
   total plane-waves  NPLWV =  30240
   max r-space proj   IRMAX =      1   max aug-charges    IRDMAX=  15406
   dimension x,y,z NGX =    18 NGY =   42 NGZ =   40
   dimension x,y,z NGXF=    36 NGYF=   84 NGZF=   80
   support grid    NGXF=    36 NGYF=   84 NGZF=   80
   ions per type =               6
   NGX,Y,Z   is equivalent  to a cutoff of  12.08, 12.61, 13.42 a.u.
   NGXF,Y,Z  is equivalent  to a cutoff of  24.16, 25.22, 26.85 a.u.

 SYSTEM =  unknown system                          
 POSCAR =  Ni1 str #: 10                           

 Startparameter for this run:
   NWRITE =      2    write-flag & timer
   PREC   = accura    normal or accurate (medium, high low for compatibility)
   ISTART =      0    job   : 0-new  1-cont  2-samecut
   ICHARG =      2    charge: 1-file 2-atom 10-const
   ISPIN  =      2    spin polarized calculation?
   LNONCOLLINEAR =      F non collinear calculations
   LSORBIT =      F    spin-orbit coupling
   INIWAV =      1    electr: 0-lowe 1-rand  2-diag
   LASPH  =      T    aspherical Exc in radial PAW
   METAGGA=      F    non-selfconsistent MetaGGA calc.

 Electronic Relaxation 1
   ENCUT  =  520.0 eV  38.22 Ry    6.18 a.u.   4.61 10.30  9.21*2*pi/ulx,y,z
   ENINI  =  520.0     initial cutoff
   ENAUG  =  544.6 eV  augmentation charge cutoff
   NELM   =     60;   NELMIN=  2; NELMDL= -5     # of ELM steps 
   EDIFF  = 0.1E-05   stopping-criterion for ELM
   LREAL  =      F    real-space projection
   NLSPLINE    = F    spline interpolate recip. space projectors
   LCOMPAT=      F    compatible to vasp.4.4
   GGA_COMPAT  = T    GGA compatible to vasp.4.4-vasp.4.6
   LMAXPAW     = -100 max onsite density
   LMAXMIX     =    2 max onsite mixed and CHGCAR
   VOSKOWN=      0    Vosko Wilk Nusair interpolation
   ROPT   =    0.00000
 Ionic relaxation
   EDIFFG = 0.1E-04   stopping-criterion for IOM
   NSW    =      0    number of steps for IOM
   NBLOCK =      1;   KBLOCK =      1    inner block; outer block 
   IBRION =     -1    ionic relax: 0-MD 1-quasi-New 2-CG
   NFREE  =      1    steps in history (QN), initial steepest desc. (CG)
   ISIF   =      2    stress and relaxation
   IWAVPR =     10    prediction:  0-non 1-charg 2-wave 3-comb
   ISYM   =      2    0-nonsym 1-usesym 2-fastsym
   LCORR  =      T    Harris-Foulkes like correction to forces

   POTIM  = 0.5000    time-step for ionic-motion
   TEIN   =    0.0    initial temperature
   TEBEG  =    0.0;   TEEND  =   0.0 temperature during run
   SMASS  =  -3.00    Nose mass-parameter (am)
   estimated Nose-frequenzy (Omega)   =  0.10E-29 period in steps =****** mass=  -0.140E-27a.u.
   SCALEE = 1.0000    scale energy and forces
   NPACO  =    256;   APACO  = 16.0  distance and # of slots for P.C.
   PSTRESS=    0.0 pullay stress

  Mass of Ions in am
   POMASS =  58.69
  Ionic Valenz
   ZVAL   =  10.00
  Atomic Wigner-Seitz radii
   RWIGS  =  -1.00
  virtual crystal weights 
   VCA    =   1.00
   NELECT =      60.0000    total number of electrons
   NUPDOWN=      -1.0000    fix difference up-down

 DOS related values:
   EMIN   =  10.00;   EMAX   =-10.00  energy-range for DOS
   EFERMI =   0.00
   ISMEAR =     1;   SIGMA  =   0.20  broadening in eV -4-tet -1-fermi 0-gaus

 Electronic relaxation 2 (details)
   IALGO  =     38    algorithm
   LDIAG  =      T    sub-space diagonalisation (order eigenvalues)
   LSUBROT=      F    optimize rotation matrix (better conditioning)
   TURBO    =      0    0=normal 1=particle mesh
   IRESTART =      0    0=no restart 2=restart with 2 vectors
   NREBOOT  =      0    no. of reboots
   NMIN     =      0    reboot dimension
   EREF     =   0.00    reference energy to select bands
   IMIX   =      4    mixing-type and parameters
     AMIX     =   0.40;   BMIX     =  1.00
     AMIX_MAG =   1.60;   BMIX_MAG =  1.00
     AMIN     =   0.10
     WC   =   100.;   INIMIX=   1;  MIXPRE=   1;  MAXMIX= -45

 Intra band minimization:
   WEIMIN = 0.0000     energy-eigenvalue tresh-hold
   EBREAK =  0.62E-08  absolut break condition
   DEPER  =   0.30     relativ break condition  

   TIME   =   0.40     timestep for ELM

  volume/ion in A,a.u.               =      10.74        72.49
  Fermi-wavevector in a.u.,A,eV,Ry     =   1.598477  3.020684 34.764640  2.555129
  Thomas-Fermi vector in A             =   2.695921
 
 Write flags
   LWAVE        =      F    write WAVECAR
   LDOWNSAMPLE  =      F    k-point downsampling of WAVECAR
   LCHARG       =      F    write CHGCAR
   LVTOT        =      F    write LOCPOT, total local potential
   LVHAR        =      F    write LOCPOT, Hartree potential only
   LELF         =      F    write electronic localiz. function (ELF)
   LORBIT       =     11    0 simple, 1 ext, 2 COOP (PROOUT), +10 PAW based schemes


 Dipole corrections
   LMONO  =      F    monopole corrections only (constant potential shift)
   LDIPOL =      F    correct potential (dipole corrections)
   IDIPOL =      0    1-x, 2-y, 3-z, 4-all directions 
   EPSILON=  1.0000000 bulk dielectric constant

 Exchange correlation treatment:
   GGA     =    --    GGA type
   LEXCH   =     8    internal setting for exchange type
   VOSKOWN=      0    Vosko Wilk Nusair interpolation
   LHFCALC =     F    Hartree Fock is set to
   LHFONE  =     F    Hartree Fock one center treatment
   AEXX    =    0.0000 exact exchange contribution

 Linear response parameters
   LEPSILON=     F    determine dielectric tensor
   LRPA    =     F    only Hartree local field effects (RPA)
   LNABLA  =     F    use nabla operator in PAW spheres
   LVEL    =     F    velocity operator in full k-point grid
   LINTERFAST=   F  fast interpolation
   KINTER  =     0    interpolate to denser k-point grid
   CSHIFT  =0.1000    complex shift for real part using Kramers Kronig
   OMEGAMAX=  -1.0    maximum frequency
   DEG_THRESHOLD= 0.2000000E-02 threshold for treating states as degnerate
   RTIME   =   -0.100 relaxation time in fs
  (WPLASMAI=    0.000 imaginary part of plasma frequency in eV, 0.658/RTIME)
   DFIELD  = 0.0000000 0.0000000 0.0000000 field for delta impulse in time
 
 Orbital magnetization related:
   ORBITALMAG=     F  switch on orbital magnetization
   LCHIMAG   =     F  perturbation theory with respect to B field
   DQ        =  0.001000  dq finite difference perturbation B field
   LLRAUG    =     F  two centre corrections for induced B field



--------------------------------------------------------------------------------------------------------


 Static calculation
 charge density and potential will be updated during run
 spin polarized calculation
 Variant of blocked Davidson
 Davidson routine will perform the subspace rotation
 perform sub-space diagonalisation
    after iterative eigenvector-optimisation
 modified Broyden-mixing scheme, WC =      100.0
 initial mixing is a Kerker type mixing with AMIX =  0.4000 and BMIX =      1.0000
 Hartree-type preconditioning will be used
 using additional bands           10
 reciprocal scheme for non local part
 use partial core corrections
 calculate Harris-corrections to forces 
   (improved forces if not selfconsistent)
 use gradient corrections 
 use of overlap-Matrix (Vanderbilt PP)
 Methfessel and Paxton  Order N= 1 SIGMA  =   0.20


--------------------------------------------------------------------------------------------------------


  energy-cutoff  :      520.00
  volume of cell :       64.45
      direct lattice vectors                 reciprocal lattice vectors
     2.476700100  0.000000000  0.000000000     0.403763056 -0.077704227 -0.054945188
     1.238349900  3.574808660  4.044434200     0.000000000  0.155408473  0.109890388
     0.000000000 -2.859846940  4.044434200     0.000000000 -0.155408473  0.137362985

  length of vectors
     2.476700100  5.538069648  4.953400097     0.414827103  0.190335732  0.207413556


 
 k-points in units of 2pi/SCALE and weight: k-points                                
   0.00000000  0.00000000  0.00000000       0.001
   0.03670573 -0.00706402 -0.00499502       0.003
   0.07341146 -0.01412804 -0.00999003       0.003
   0.11011720 -0.02119206 -0.01498505       0.003
   0.14682293 -0.02825608 -0.01998007       0.003
   0.18352866 -0.03532010 -0.02497509       0.003
   0.00000000  0.01412804  0.00999004       0.002
   0.07341146  0.00000000  0.00000000       0.002
   0.11011720 -0.00706402 -0.00499502       0.003
   0.14682293 -0.01412804 -0.00999003       0.003
   0.18352866 -0.02119206 -0.01498505       0.003
  -0.18352866  0.04944815  0.03496512       0.003
  -0.14682293  0.04238413  0.02997010       0.003
  -0.11011720  0.03532010  0.02497509       0.003
  -0.07341146  0.02825608  0.01998007       0.003
  -0.03670573  0.02119206  0.01498505       0.003
   0.00000000  0.02825609  0.01998007       0.002
   0.14682293  0.00000000  0.00000000       0.002
   0.18352866 -0.00706402 -0.00499501       0.003
  -0.18352866  0.06357619  0.04495516       0.003
  -0.14682293  0.05651217  0.03996014       0.003
  -0.11011720  0.04944815  0.03496512       0.003
  -0.07341146  0.04238413  0.02997010       0.003
  -0.03670573  0.03532011  0.02497509       0.003
   0.00000000  0.04238413  0.02997011       0.002
  -0.18352866  0.07770423  0.05494519       0.002
  -0.14682293  0.07064021  0.04995017       0.003
  -0.11011720  0.06357619  0.04495516       0.003
  -0.07341146  0.05651217  0.03996014       0.003
  -0.03670573  0.04944815  0.03496512       0.003
   0.00000000  0.05651217  0.03996014       0.002
  -0.11011720  0.07770423  0.05494519       0.002
  -0.07341146  0.07064021  0.04995018       0.003
  -0.03670573  0.06357619  0.04495516       0.003
   0.00000000  0.07064021  0.04995018       0.002
  -0.03670573  0.07770424  0.05494519       0.002
   0.00000000 -0.01412804  0.01248754       0.002
   0.03670573 -0.02119206  0.00749253       0.003
   0.07341146 -0.02825608  0.00249751       0.003
   0.11011720 -0.03532010 -0.00249751       0.003
   0.14682293 -0.04238413 -0.00749252       0.003
   0.18352866 -0.04944815 -0.01248754       0.003
  -0.18352866  0.02119206  0.03746263       0.003
  -0.14682293  0.01412804  0.03246761       0.003
  -0.11011720  0.00706402  0.02747260       0.003
  -0.07341146 -0.00000000  0.02247758       0.003
  -0.03670573 -0.00706402  0.01748256       0.003
   0.00000000  0.00000000  0.02247758       0.002
   0.07341146 -0.01412804  0.01248755       0.003
   0.11011720 -0.02119206  0.00749253       0.003
   0.14682293 -0.02825608  0.00249751       0.003
   0.18352866 -0.03532010 -0.00249751       0.003
  -0.18352866  0.03532010  0.04745266       0.003
  -0.14682293  0.02825608  0.04245765       0.003
  -0.11011720  0.02119206  0.03746263       0.003
  -0.07341146  0.01412804  0.03246761       0.003
  -0.03670573  0.00706402  0.02747260       0.003
   0.00000000  0.01412804  0.03246761       0.002
   0.11011720 -0.00706402  0.01748256       0.003
   0.14682293 -0.01412804  0.01248755       0.003
   0.18352866 -0.02119206  0.00749253       0.003
  -0.18352866  0.04944815  0.05744270       0.003
  -0.14682293  0.04238413  0.05244768       0.003
  -0.11011720  0.03532010  0.04745267       0.003
  -0.07341146  0.02825608  0.04245765       0.003
  -0.03670573  0.02119206  0.03746263       0.003
   0.00000000  0.02825609  0.04245765       0.002
   0.14682293  0.00000000  0.02247758       0.003
   0.18352866 -0.00706402  0.01748256       0.003
  -0.18352866  0.06357619  0.06743274       0.003
  -0.14682293  0.05651217  0.06243772       0.003
  -0.11011720  0.04944815  0.05744270       0.003
  -0.07341146  0.04238413  0.05244768       0.003
  -0.03670573  0.03532011  0.04745267       0.003
   0.00000000  0.04238413  0.05244769       0.002
   0.18352866  0.00706403  0.02747260       0.003
  -0.18352866  0.07770423  0.07742277       0.003
  -0.14682293  0.07064021  0.07242775       0.003
  -0.11011720  0.06357619  0.06743274       0.003
  -0.07341146  0.05651217  0.06243772       0.003
  -0.03670573  0.04944815  0.05744270       0.003
   0.00000000  0.05651217  0.06243772       0.002
  -0.18352866  0.09183228  0.08741281       0.003
  -0.14682293  0.08476825  0.08241779       0.003
  -0.11011720  0.07770423  0.07742277       0.003
  -0.07341146  0.07064021  0.07242775       0.003
  -0.03670573  0.06357619  0.06743274       0.003
   0.00000000 -0.08476826 -0.03746263       0.002
  -0.14682293 -0.05651218 -0.01748256       0.003
  -0.11011720 -0.06357620 -0.02247758       0.003
  -0.07341146 -0.07064022 -0.02747260       0.003
  -0.03670573 -0.07770424 -0.03246762       0.003
   0.00000000 -0.07064021 -0.02747260       0.002
  -0.11011720 -0.04944815 -0.01248755       0.003
  -0.07341146 -0.05651217 -0.01748256       0.003
  -0.03670573 -0.06357619 -0.02247758       0.003
   0.00000000 -0.05651217 -0.01748256       0.002
  -0.07341146 -0.04238413 -0.00749253       0.003
  -0.03670573 -0.04944815 -0.01248754       0.003
   0.00000000 -0.04238413 -0.00749253       0.002
  -0.03670573 -0.03532011 -0.00249751       0.003
   0.00000000 -0.02825609  0.00249751       0.002
   0.00000000 -0.02825609  0.02497509       0.002
   0.03670573 -0.03532011  0.01998007       0.003
   0.07341146 -0.04238413  0.01498505       0.003
   0.11011720 -0.04944815  0.00999004       0.003
   0.14682293 -0.05651217  0.00499502       0.003
   0.18352866 -0.06357619  0.00000000       0.003
  -0.18352866  0.00706402  0.04995017       0.003
  -0.14682293 -0.00000000  0.04495516       0.003
  -0.11011720 -0.00706402  0.03996014       0.003
  -0.07341146 -0.01412804  0.03496512       0.003
  -0.03670573 -0.02119207  0.02997011       0.003
   0.00000000 -0.01412804  0.03496512       0.002
   0.07341146 -0.02825608  0.02497509       0.003
   0.11011720 -0.03532010  0.01998007       0.003
   0.14682293 -0.04238413  0.01498506       0.003
   0.18352866 -0.04944815  0.00999004       0.003
  -0.18352866  0.02119206  0.05994021       0.003
  -0.14682293  0.01412804  0.05494519       0.003
  -0.11011720  0.00706402  0.04995017       0.003
  -0.07341146 -0.00000000  0.04495516       0.003
  -0.03670573 -0.00706402  0.03996014       0.003
   0.00000000  0.00000000  0.04495516       0.002
   0.11011720 -0.02119206  0.02997011       0.003
   0.14682293 -0.02825608  0.02497509       0.003
   0.18352866 -0.03532010  0.01998007       0.003
  -0.18352866  0.03532010  0.06993024       0.003
  -0.14682293  0.02825608  0.06493523       0.003
  -0.11011720  0.02119206  0.05994021       0.003
  -0.07341146  0.01412804  0.05494519       0.003
  -0.03670573  0.00706402  0.04995018       0.003
   0.00000000  0.01412804  0.05494519       0.002
   0.14682293 -0.01412804  0.03496513       0.003
   0.18352866 -0.02119206  0.02997011       0.003
  -0.18352866  0.04944815  0.07992028       0.003
  -0.14682293  0.04238413  0.07492526       0.003
  -0.11011720  0.03532010  0.06993025       0.003
  -0.07341146  0.02825608  0.06493523       0.003
  -0.03670573  0.02119206  0.05994021       0.003
   0.00000000  0.02825609  0.06493523       0.002
   0.18352866 -0.00706402  0.03996014       0.003
  -0.18352866  0.06357619  0.08991031       0.003
  -0.14682293  0.05651217  0.08491530       0.003
  -0.11011720  0.04944815  0.07992028       0.003
  -0.07341146  0.04238413  0.07492526       0.003
  -0.03670573  0.03532011  0.06993025       0.003
   0.00000000  0.04238413  0.07492526       0.002
  -0.18352866  0.07770423  0.09990035       0.003
  -0.14682293  0.07064021  0.09490533       0.003
  -0.11011720  0.06357619  0.08991032       0.003
  -0.07341146  0.05651217  0.08491530       0.003
  -0.03670573  0.04944815  0.07992028       0.003
   0.00000000 -0.09889630 -0.02497509       0.002
  -0.14682293 -0.07064022 -0.00499502       0.003
  -0.11011720 -0.07770424 -0.00999004       0.003
  -0.07341146 -0.08476826 -0.01498505       0.003
  -0.03670573 -0.09183228 -0.01998007       0.003
   0.00000000 -0.08476826 -0.01498505       0.002
  -0.11011720 -0.06357620 -0.00000000       0.003
  -0.07341146 -0.07064022 -0.00499502       0.003
  -0.03670573 -0.07770424 -0.00999004       0.003
   0.00000000 -0.07064021 -0.00499502       0.002
  -0.07341146 -0.05651217  0.00499502       0.003
  -0.03670573 -0.06357619 -0.00000000       0.003
   0.00000000 -0.05651217  0.00499502       0.002
  -0.03670573 -0.04944815  0.00999003       0.003
   0.00000000 -0.04238413  0.01498505       0.002
   0.00000000 -0.04238413  0.03746263       0.002
   0.03670573 -0.04944815  0.03246762       0.003
   0.07341146 -0.05651217  0.02747260       0.003
   0.11011720 -0.06357619  0.02247758       0.003
   0.14682293 -0.07064021  0.01748256       0.003
   0.18352866 -0.07770423  0.01248755       0.003
  -0.18352866 -0.00706403  0.06243772       0.003
  -0.14682293 -0.01412805  0.05744270       0.003
  -0.11011720 -0.02119207  0.05244768       0.003
  -0.07341146 -0.02825609  0.04745267       0.003
  -0.03670573 -0.03532011  0.04245765       0.003
   0.00000000 -0.02825609  0.04745267       0.002
   0.07341146 -0.04238413  0.03746263       0.003
   0.11011720 -0.04944815  0.03246762       0.003
   0.14682293 -0.05651217  0.02747260       0.003
   0.18352866 -0.06357619  0.02247758       0.003
  -0.18352866  0.00706402  0.07242775       0.003
  -0.14682293 -0.00000000  0.06743274       0.003
  -0.11011720 -0.00706402  0.06243772       0.003
  -0.07341146 -0.01412804  0.05744270       0.003
  -0.03670573 -0.02119207  0.05244768       0.003
   0.00000000 -0.01412804  0.05744270       0.002
   0.11011720 -0.03532010  0.04245765       0.003
   0.14682293 -0.04238413  0.03746263       0.003
   0.18352866 -0.04944815  0.03246762       0.003
  -0.18352866  0.02119206  0.08241779       0.003
  -0.14682293  0.01412804  0.07742277       0.003
  -0.11011720  0.00706402  0.07242775       0.003
  -0.07341146 -0.00000000  0.06743274       0.003
  -0.03670573 -0.00706402  0.06243772       0.003
   0.00000000  0.00000000  0.06743274       0.002
   0.14682293 -0.02825608  0.04745267       0.003
   0.18352866 -0.03532010  0.04245765       0.003
  -0.18352866  0.03532010  0.09240782       0.003
  -0.14682293  0.02825608  0.08741281       0.003
  -0.11011720  0.02119206  0.08241779       0.003
  -0.07341146  0.01412804  0.07742277       0.003
  -0.03670573  0.00706402  0.07242776       0.003
   0.00000000  0.01412804  0.07742277       0.002
   0.18352866 -0.02119206  0.05244769       0.003
  -0.18352866  0.04944815  0.10239786       0.003
  -0.14682293  0.04238413  0.09740284       0.003
  -0.11011720  0.03532010  0.09240782       0.003
  -0.07341146  0.02825608  0.08741281       0.003
  -0.03670573  0.02119206  0.08241779       0.003
   0.00000000  0.02825609  0.08741281       0.002
  -0.18352866  0.06357619  0.11238789       0.003
  -0.14682293  0.05651217  0.10739288       0.003
  -0.11011720  0.04944815  0.10239786       0.003
  -0.07341146  0.04238413  0.09740284       0.003
  -0.03670573  0.03532011  0.09240783       0.003
   0.00000000 -0.11302434 -0.01248754       0.002
  -0.14682293 -0.08476826  0.00749252       0.003
  -0.11011720 -0.09183228  0.00249751       0.003
  -0.07341146 -0.09889630 -0.00249751       0.003
  -0.03670573 -0.10596032 -0.00749253       0.003
   0.00000000 -0.09889630 -0.00249751       0.002
  -0.11011720 -0.07770424  0.01248754       0.003
  -0.07341146 -0.08476826  0.00749253       0.003
  -0.03670573 -0.09183228  0.00249751       0.003
   0.00000000 -0.08476826  0.00749253       0.002
  -0.07341146 -0.07064022  0.01748256       0.003
  -0.03670573 -0.07770424  0.01248754       0.003
   0.00000000 -0.07064021  0.01748256       0.002
  -0.03670573 -0.06357619  0.02247758       0.003
   0.00000000 -0.05651217  0.02747260       0.002
   0.00000000 -0.05651217  0.04995018       0.002
   0.03670573 -0.06357619  0.04495516       0.003
   0.07341146 -0.07064021  0.03996014       0.003
   0.11011720 -0.07770423  0.03496513       0.003
   0.14682293 -0.08476825  0.02997011       0.003
   0.18352866 -0.09183228  0.02497509       0.003
  -0.18352866 -0.02119207  0.07492526       0.003
  -0.14682293 -0.02825609  0.06993024       0.003
  -0.11011720 -0.03532011  0.06493523       0.003
  -0.07341146 -0.04238413  0.05994021       0.003
  -0.03670573 -0.04944815  0.05494519       0.003
   0.00000000 -0.04238413  0.05994021       0.002
   0.07341146 -0.05651217  0.04995018       0.003
   0.11011720 -0.06357619  0.04495516       0.003
   0.14682293 -0.07064021  0.03996014       0.003
   0.18352866 -0.07770423  0.03496513       0.003
  -0.18352866 -0.00706403  0.08491530       0.003
  -0.14682293 -0.01412805  0.07992028       0.003
  -0.11011720 -0.02119207  0.07492526       0.003
  -0.07341146 -0.02825609  0.06993025       0.003
  -0.03670573 -0.03532011  0.06493523       0.003
   0.00000000 -0.02825609  0.06993025       0.002
   0.11011720 -0.04944815  0.05494520       0.003
   0.14682293 -0.05651217  0.04995018       0.003
   0.18352866 -0.06357619  0.04495516       0.003
  -0.18352866  0.00706402  0.09490533       0.003
  -0.14682293 -0.00000000  0.08991032       0.003
  -0.11011720 -0.00706402  0.08491530       0.003
  -0.07341146 -0.01412804  0.07992028       0.003
  -0.03670573 -0.02119207  0.07492526       0.003
   0.00000000 -0.01412804  0.07992028       0.002
   0.14682293 -0.04238413  0.05994021       0.003
   0.18352866 -0.04944815  0.05494520       0.003
  -0.18352866  0.02119206  0.10489537       0.003
  -0.14682293  0.01412804  0.09990035       0.003
  -0.11011720  0.00706402  0.09490533       0.003
  -0.07341146 -0.00000000  0.08991032       0.003
  -0.03670573 -0.00706402  0.08491530       0.003
   0.00000000  0.00000000  0.08991032       0.002
   0.18352866 -0.03532010  0.06493523       0.003
  -0.18352866  0.03532010  0.11488540       0.003
  -0.14682293  0.02825608  0.10989039       0.003
  -0.11011720  0.02119206  0.10489537       0.003
  -0.07341146  0.01412804  0.09990035       0.003
  -0.03670573  0.00706402  0.09490533       0.003
   0.00000000  0.01412804  0.09990035       0.002
  -0.18352866  0.04944815  0.12487544       0.003
  -0.14682293  0.04238413  0.11988042       0.003
  -0.11011720  0.03532010  0.11488540       0.003
  -0.07341146  0.02825608  0.10989039       0.003
  -0.03670573  0.02119206  0.10489537       0.003
   0.00000000 -0.12715239 -0.00000000       0.002
  -0.14682293 -0.09889630  0.01998007       0.003
  -0.11011720 -0.10596032  0.01498505       0.003
  -0.07341146 -0.11302435  0.00999003       0.003
  -0.03670573 -0.12008837  0.00499502       0.003
   0.00000000 -0.11302434  0.00999004       0.002
  -0.11011720 -0.09183228  0.02497509       0.003
  -0.07341146 -0.09889630  0.01998007       0.003
  -0.03670573 -0.10596032  0.01498505       0.003
   0.00000000 -0.09889630  0.01998007       0.002
  -0.07341146 -0.08476826  0.02997010       0.003
  -0.03670573 -0.09183228  0.02497509       0.003
   0.00000000 -0.08476826  0.02997011       0.002
  -0.03670573 -0.07770424  0.03496512       0.003
   0.00000000 -0.07064021  0.03996014       0.002
   0.00000000 -0.07064021  0.06243772       0.002
   0.03670573 -0.07770424  0.05744270       0.003
   0.07341146 -0.08476826  0.05244769       0.003
   0.11011720 -0.09183228  0.04745267       0.003
   0.14682293 -0.09889630  0.04245765       0.003
   0.18352866 -0.10596032  0.03746264       0.003
  -0.18352866 -0.03532011  0.08741281       0.003
  -0.14682293 -0.04238413  0.08241779       0.003
  -0.11011720 -0.04944815  0.07742277       0.003
  -0.07341146 -0.05651217  0.07242775       0.003
  -0.03670573 -0.06357619  0.06743274       0.003
   0.00000000 -0.05651217  0.07242776       0.002
   0.07341146 -0.07064021  0.06243772       0.003
   0.11011720 -0.07770423  0.05744270       0.003
   0.14682293 -0.08476825  0.05244769       0.003
   0.18352866 -0.09183228  0.04745267       0.003
  -0.18352866 -0.02119207  0.09740284       0.003
  -0.14682293 -0.02825609  0.09240782       0.003
  -0.11011720 -0.03532011  0.08741281       0.003
  -0.07341146 -0.04238413  0.08241779       0.003
  -0.03670573 -0.04944815  0.07742277       0.003
   0.00000000 -0.04238413  0.08241779       0.002
   0.11011720 -0.06357619  0.06743274       0.003
   0.14682293 -0.07064021  0.06243772       0.003
   0.18352866 -0.07770423  0.05744271       0.003
  -0.18352866 -0.00706403  0.10739288       0.003
  -0.14682293 -0.01412805  0.10239786       0.003
  -0.11011720 -0.02119207  0.09740284       0.003
  -0.07341146 -0.02825609  0.09240783       0.003
  -0.03670573 -0.03532011  0.08741281       0.003
   0.00000000 -0.02825609  0.09240783       0.002
   0.14682293 -0.05651217  0.07242776       0.003
   0.18352866 -0.06357619  0.06743274       0.003
  -0.18352866  0.00706402  0.11738291       0.003
  -0.14682293 -0.00000000  0.11238789       0.003
  -0.11011720 -0.00706402  0.10739288       0.003
  -0.07341146 -0.01412804  0.10239786       0.003
  -0.03670573 -0.02119207  0.09740284       0.003
   0.00000000 -0.01412804  0.10239786       0.002
   0.18352866 -0.04944815  0.07742278       0.003
  -0.18352866  0.02119206  0.12737295       0.003
  -0.14682293  0.01412804  0.12237793       0.003
  -0.11011720  0.00706402  0.11738291       0.003
  -0.07341146 -0.00000000  0.11238790       0.003
  -0.03670573 -0.00706402  0.10739288       0.003
   0.00000000  0.00000000  0.11238790       0.002
  -0.18352866  0.03532010  0.13736298       0.003
  -0.14682293  0.02825608  0.13236797       0.003
  -0.11011720  0.02119206  0.12737295       0.003
  -0.07341146  0.01412804  0.12237793       0.003
  -0.03670573  0.00706402  0.11738291       0.003
   0.00000000 -0.14128043  0.01248754       0.002
  -0.14682293 -0.11302435  0.03246761       0.003
  -0.11011720 -0.12008837  0.02747260       0.003
  -0.07341146 -0.12715239  0.02247758       0.003
  -0.03670573 -0.13421641  0.01748256       0.003
   0.00000000 -0.12715239  0.02247758       0.002
  -0.11011720 -0.10596032  0.03746263       0.003
  -0.07341146 -0.11302435  0.03246761       0.003
  -0.03670573 -0.12008837  0.02747260       0.003
   0.00000000 -0.11302434  0.03246761       0.002
  -0.07341146 -0.09889630  0.04245765       0.003
  -0.03670573 -0.10596032  0.03746263       0.003
   0.00000000 -0.09889630  0.04245765       0.002
  -0.03670573 -0.09183228  0.04745267       0.003
   0.00000000 -0.08476826  0.05244769       0.002
 
 k-points in reciprocal lattice and weights: k-points                                
   0.00000000  0.00000000  0.00000000       0.001
   0.09090909  0.00000000  0.00000000       0.003
   0.18181818  0.00000000  0.00000000       0.003
   0.27272727  0.00000000  0.00000000       0.003
   0.36363636  0.00000000  0.00000000       0.003
   0.45454545  0.00000000  0.00000000       0.003
   0.00000000  0.09090909 -0.00000000       0.002
   0.18181818  0.09090909  0.00000000       0.002
   0.27272727  0.09090909  0.00000000       0.003
   0.36363636  0.09090909  0.00000000       0.003
   0.45454545  0.09090909  0.00000000       0.003
  -0.45454545  0.09090909 -0.00000000       0.003
  -0.36363636  0.09090909 -0.00000000       0.003
  -0.27272727  0.09090909 -0.00000000       0.003
  -0.18181818  0.09090909 -0.00000000       0.003
  -0.09090909  0.09090909  0.00000000       0.003
   0.00000000  0.18181818 -0.00000000       0.002
   0.36363636  0.18181818  0.00000000       0.002
   0.45454545  0.18181818  0.00000000       0.003
  -0.45454545  0.18181818 -0.00000000       0.003
  -0.36363636  0.18181818 -0.00000000       0.003
  -0.27272727  0.18181818 -0.00000000       0.003
  -0.18181818  0.18181818  0.00000000       0.003
  -0.09090909  0.18181818 -0.00000000       0.003
   0.00000000  0.27272727 -0.00000000       0.002
  -0.45454545  0.27272727 -0.00000000       0.002
  -0.36363636  0.27272727 -0.00000000       0.003
  -0.27272727  0.27272727 -0.00000000       0.003
  -0.18181818  0.27272727 -0.00000000       0.003
  -0.09090909  0.27272727 -0.00000000       0.003
   0.00000000  0.36363636 -0.00000000       0.002
  -0.27272727  0.36363636 -0.00000000       0.002
  -0.18181818  0.36363636 -0.00000000       0.003
  -0.09090909  0.36363636 -0.00000000       0.003
   0.00000000  0.45454545 -0.00000000       0.002
  -0.09090909  0.45454545 -0.00000000       0.002
   0.00000000 -0.00000000  0.09090909       0.002
   0.09090909 -0.00000000  0.09090909       0.003
   0.18181818 -0.00000000  0.09090909       0.003
   0.27272727 -0.00000000  0.09090909       0.003
   0.36363636 -0.00000000  0.09090909       0.003
   0.45454545  0.00000000  0.09090909       0.003
  -0.45454545 -0.00000000  0.09090909       0.003
  -0.36363636  0.00000000  0.09090909       0.003
  -0.27272727  0.00000000  0.09090909       0.003
  -0.18181818  0.00000000  0.09090909       0.003
  -0.09090909  0.00000000  0.09090909       0.003
   0.00000000  0.09090909  0.09090909       0.002
   0.18181818  0.09090909  0.09090909       0.003
   0.27272727  0.09090909  0.09090909       0.003
   0.36363636  0.09090909  0.09090909       0.003
   0.45454545  0.09090909  0.09090909       0.003
  -0.45454545  0.09090909  0.09090909       0.003
  -0.36363636  0.09090909  0.09090909       0.003
  -0.27272727  0.09090909  0.09090909       0.003
  -0.18181818  0.09090909  0.09090909       0.003
  -0.09090909  0.09090909  0.09090909       0.003
   0.00000000  0.18181818  0.09090909       0.002
   0.27272727  0.18181818  0.09090909       0.003
   0.36363636  0.18181818  0.09090909       0.003
   0.45454545  0.18181818  0.09090909       0.003
  -0.45454545  0.18181818  0.09090909       0.003
  -0.36363636  0.18181818  0.09090909       0.003
  -0.27272727  0.18181818  0.09090909       0.003
  -0.18181818  0.18181818  0.09090909       0.003
  -0.09090909  0.18181818  0.09090909       0.003
   0.00000000  0.27272727  0.09090909       0.002
   0.36363636  0.27272727  0.09090909       0.003
   0.45454545  0.27272727  0.09090909       0.003
  -0.45454545  0.27272727  0.09090909       0.003
  -0.36363636  0.27272727  0.09090909       0.003
  -0.27272727  0.27272727  0.09090909       0.003
  -0.18181818  0.27272727  0.09090909       0.003
  -0.09090909  0.27272727  0.09090909       0.003
   0.00000000  0.36363636  0.09090909       0.002
   0.45454545  0.36363636  0.09090909       0.003
  -0.45454545  0.36363636  0.09090909       0.003
  -0.36363636  0.36363636  0.09090909       0.003
  -0.27272727  0.36363636  0.09090909       0.003
  -0.18181818  0.36363636  0.09090909       0.003
  -0.09090909  0.36363636  0.09090909       0.003
   0.00000000  0.45454545  0.09090909       0.002
  -0.45454545  0.45454545  0.09090909       0.003
  -0.36363636  0.45454545  0.09090909       0.003
  -0.27272727  0.45454545  0.09090909       0.003
  -0.18181818  0.45454545  0.09090909       0.003
  -0.09090909  0.45454545  0.09090909       0.003
   0.00000000 -0.45454545  0.09090909       0.002
  -0.36363636 -0.45454545  0.09090909       0.003
  -0.27272727 -0.45454545  0.09090909       0.003
  -0.18181818 -0.45454545  0.09090909       0.003
  -0.09090909 -0.45454545  0.09090909       0.003
   0.00000000 -0.36363636  0.09090909       0.002
  -0.27272727 -0.36363636  0.09090909       0.003
  -0.18181818 -0.36363636  0.09090909       0.003
  -0.09090909 -0.36363636  0.09090909       0.003
   0.00000000 -0.27272727  0.09090909       0.002
  -0.18181818 -0.27272727  0.09090909       0.003
  -0.09090909 -0.27272727  0.09090909       0.003
   0.00000000 -0.18181818  0.09090909       0.002
  -0.09090909 -0.18181818  0.09090909       0.003
   0.00000000 -0.09090909  0.09090909       0.002
   0.00000000 -0.00000000  0.18181818       0.002
   0.09090909  0.00000000  0.18181818       0.003
   0.18181818 -0.00000000  0.18181818       0.003
   0.27272727  0.00000000  0.18181818       0.003
   0.36363636 -0.00000000  0.18181818       0.003
   0.45454545  0.00000000  0.18181818       0.003
  -0.45454545 -0.00000000  0.18181818       0.003
  -0.36363636  0.00000000  0.18181818       0.003
  -0.27272727 -0.00000000  0.18181818       0.003
  -0.18181818  0.00000000  0.18181818       0.003
  -0.09090909 -0.00000000  0.18181818       0.003
   0.00000000  0.09090909  0.18181818       0.002
   0.18181818  0.09090909  0.18181818       0.003
   0.27272727  0.09090909  0.18181818       0.003
   0.36363636  0.09090909  0.18181818       0.003
   0.45454545  0.09090909  0.18181818       0.003
  -0.45454545  0.09090909  0.18181818       0.003
  -0.36363636  0.09090909  0.18181818       0.003
  -0.27272727  0.09090909  0.18181818       0.003
  -0.18181818  0.09090909  0.18181818       0.003
  -0.09090909  0.09090909  0.18181818       0.003
   0.00000000  0.18181818  0.18181818       0.002
   0.27272727  0.18181818  0.18181818       0.003
   0.36363636  0.18181818  0.18181818       0.003
   0.45454545  0.18181818  0.18181818       0.003
  -0.45454545  0.18181818  0.18181818       0.003
  -0.36363636  0.18181818  0.18181818       0.003
  -0.27272727  0.18181818  0.18181818       0.003
  -0.18181818  0.18181818  0.18181818       0.003
  -0.09090909  0.18181818  0.18181818       0.003
   0.00000000  0.27272727  0.18181818       0.002
   0.36363636  0.27272727  0.18181818       0.003
   0.45454545  0.27272727  0.18181818       0.003
  -0.45454545  0.27272727  0.18181818       0.003
  -0.36363636  0.27272727  0.18181818       0.003
  -0.27272727  0.27272727  0.18181818       0.003
  -0.18181818  0.27272727  0.18181818       0.003
  -0.09090909  0.27272727  0.18181818       0.003
   0.00000000  0.36363636  0.18181818       0.002
   0.45454545  0.36363636  0.18181818       0.003
  -0.45454545  0.36363636  0.18181818       0.003
  -0.36363636  0.36363636  0.18181818       0.003
  -0.27272727  0.36363636  0.18181818       0.003
  -0.18181818  0.36363636  0.18181818       0.003
  -0.09090909  0.36363636  0.18181818       0.003
   0.00000000  0.45454545  0.18181818       0.002
  -0.45454545  0.45454545  0.18181818       0.003
  -0.36363636  0.45454545  0.18181818       0.003
  -0.27272727  0.45454545  0.18181818       0.003
  -0.18181818  0.45454545  0.18181818       0.003
  -0.09090909  0.45454545  0.18181818       0.003
   0.00000000 -0.45454545  0.18181818       0.002
  -0.36363636 -0.45454545  0.18181818       0.003
  -0.27272727 -0.45454545  0.18181818       0.003
  -0.18181818 -0.45454545  0.18181818       0.003
  -0.09090909 -0.45454545  0.18181818       0.003
   0.00000000 -0.36363636  0.18181818       0.002
  -0.27272727 -0.36363636  0.18181818       0.003
  -0.18181818 -0.36363636  0.18181818       0.003
  -0.09090909 -0.36363636  0.18181818       0.003
   0.00000000 -0.27272727  0.18181818       0.002
[...]
      2       2.3085      1.00000
      3       4.0229      1.00000
      4       5.2694      1.00000
      5       5.5141      1.00000
      6       5.6568      1.00000
      7       6.0667      1.00000
      8       6.5247      1.00000
      9       6.6911      1.00000
     10       6.8510      1.00000
     11       7.0281      1.00000
     12       7.1288      1.00000
     13       7.3554      1.00000
     14       7.3733      1.00000
     15       7.4967      1.00000
     16       7.6982      1.00000
     17       7.7010      1.00000
     18       7.7043      1.00000
     19       7.7709      1.00000
     20       7.8496      1.00000
     21       7.8649      1.00000
     22       7.9952      1.00000
     23       8.1243      1.00000
     24       8.2874      1.00000
     25       8.5810      1.00000
     26       8.6578      1.00000
     27       8.6736      1.00001
     28       8.8989      1.00267
     29       9.0667      1.02923
     30       9.1364      1.03332
     31       9.3807      0.41061
     32       9.3825      0.40321
     33       9.3997      0.33349
     34      10.6757     -0.00000
     35      11.4588     -0.00000
     36      13.5129     -0.00000
     37      17.9420      0.00000
     38      18.2138      0.00000
     39      18.4690      0.00000
     40      21.3657      0.00000

 k-point   365 :      -0.0909   -0.1818    0.4545
  band No.  band energies     occupation 
      1       2.2784      1.00000
      2       2.4889      1.00000
      3       4.4261      1.00000
      4       5.5406      1.00000
      5       5.5407      1.00000
      6       5.7490      1.00000
      7       6.1711      1.00000
      8       6.6127      1.00000
      9       6.6129      1.00000
     10       6.7779      1.00000
     11       6.9080      1.00000
     12       7.0263      1.00000
     13       7.2035      1.00000
     14       7.2036      1.00000
     15       7.3694      1.00000
     16       7.4798      1.00000
     17       7.7333      1.00000
     18       7.7338      1.00000
     19       7.7962      1.00000
     20       7.9783      1.00000
     21       7.9803      1.00000
     22       8.1507      1.00000
     23       8.1508      1.00000
     24       8.2817      1.00000
     25       8.4346      1.00000
     26       8.6538      1.00000
     27       8.7865      1.00019
     28       8.7902      1.00021
     29       8.9115      1.00342
     30       9.2383      0.92265
     31       9.2384      0.92244
     32       9.3649      0.47699
     33       9.7036     -0.01764
     34      11.3554     -0.00000
     35      11.3554     -0.00000
     36      13.3045     -0.00000
     37      18.3522      0.00000
     38      18.3523      0.00000
     39      18.5644      0.00000
     40      21.5468      0.00000

 k-point   366 :       0.0000   -0.0909    0.4545
  band No.  band energies     occupation 
      1       1.9743      1.00000
      2       2.3085      1.00000
      3       4.4880      1.00000
      4       5.2694      1.00000
      5       5.5141      1.00000
      6       5.6322      1.00000
      7       6.1421      1.00000
      8       6.5247      1.00000
      9       6.6911      1.00000
     10       6.7325      1.00000
     11       7.0281      1.00000
     12       7.1373      1.00000
     13       7.3555      1.00000
     14       7.3732      1.00000
     15       7.4124      1.00000
     16       7.6441      1.00000
     17       7.6982      1.00000
     18       7.7015      1.00000
     19       7.7228      1.00000
     20       7.8649      1.00000
     21       7.9431      1.00000
     22       7.9952      1.00000
     23       8.1242      1.00000
     24       8.2875      1.00000
     25       8.4734      1.00000
     26       8.5401      1.00000
     27       8.7000      1.00002
     28       8.8989      1.00267
     29       9.2366      0.92622
     30       9.3807      0.41082
     31       9.3997      0.33329
     32       9.4095      0.29536
     33       9.4268      0.23216
     34      10.6756     -0.00000
     35      11.4589     -0.00000
     36      12.5611     -0.00000
     37      17.9420      0.00000
     38      18.4691      0.00000
     39      18.5604      0.00000
     40      21.0238      0.00000


--------------------------------------------------------------------------------------------------------


 soft charge-density along one line, spin component           1
         0         1         2         3         4         5         6         7         8         9
 total charge-density along one line
 
 soft charge-density along one line, spin component           2
         0         1         2         3         4         5         6         7         8         9
 total charge-density along one line
 
 pseudopotential strength for first ion, spin component:           1
 -0.134   0.000   0.000  -0.014  -0.000  -0.831   0.000   0.000
  0.000  -0.125  -0.000   0.000  -0.013   0.000  -0.823  -0.000
  0.000  -0.000  -0.144   0.000  -0.001   0.000  -0.000  -0.841
 -0.014   0.000   0.000  -0.124  -0.000  -0.013   0.000   0.000
 -0.000  -0.013  -0.001  -0.000  -0.133  -0.000  -0.013  -0.001
 -0.831   0.000   0.000  -0.013  -0.000  -1.457   0.000   0.000
  0.000  -0.823  -0.000   0.000  -0.013   0.000  -1.449  -0.000
  0.000  -0.000  -0.841   0.000  -0.001   0.000  -0.000  -1.466
 -0.013   0.000   0.000  -0.822  -0.000  -0.013   0.000   0.000
 -0.000  -0.013  -0.001  -0.000  -0.831  -0.000  -0.012  -0.001
  0.000   0.000   0.000  -0.000  -0.000   0.000   0.000   0.000
  0.000   0.000   0.000   0.000  -0.000   0.000   0.000   0.000
 -0.000  -0.000   0.000  -0.000   0.000  -0.000  -0.000   0.000
 -0.000  -0.000  -0.000   0.000  -0.000  -0.000  -0.000  -0.000
 -0.000  -0.000  -0.000  -0.000   0.000  -0.000  -0.000   0.000
  0.000  -0.000   0.000  -0.000   0.000   0.000  -0.000   0.000
 -0.000  -0.000  -0.000   0.000  -0.000  -0.000  -0.000  -0.000
 -0.000  -0.000  -0.000  -0.000   0.000  -0.000  -0.000  -0.000
 pseudopotential strength for first ion, spin component:           2
 -0.134   0.000   0.000  -0.014  -0.000  -0.831   0.000   0.000
  0.000  -0.125  -0.000   0.000  -0.013   0.000  -0.823  -0.000
  0.000  -0.000  -0.144   0.000  -0.001   0.000  -0.000  -0.841
 -0.014   0.000   0.000  -0.124  -0.000  -0.013   0.000   0.000
 -0.000  -0.013  -0.001  -0.000  -0.133  -0.000  -0.013  -0.001
 -0.831   0.000   0.000  -0.013  -0.000  -1.457   0.000   0.000
  0.000  -0.823  -0.000   0.000  -0.013   0.000  -1.449  -0.000
  0.000  -0.000  -0.841   0.000  -0.001   0.000  -0.000  -1.466
 -0.013   0.000   0.000  -0.822  -0.000  -0.013   0.000   0.000
 -0.000  -0.013  -0.001  -0.000  -0.831  -0.000  -0.012  -0.001
  0.000   0.000   0.000  -0.000  -0.000   0.000   0.000   0.000
  0.000   0.000   0.000   0.000  -0.000   0.000   0.000   0.000
 -0.000  -0.000   0.000  -0.000   0.000  -0.000  -0.000   0.000
 -0.000  -0.000  -0.000   0.000  -0.000  -0.000  -0.000  -0.000
 -0.000  -0.000  -0.000  -0.000   0.000  -0.000  -0.000  -0.000
  0.000  -0.000   0.000  -0.000   0.000   0.000  -0.000   0.000
 -0.000  -0.000  -0.000   0.000  -0.000  -0.000  -0.000  -0.000
 -0.000  -0.000  -0.000  -0.000   0.000  -0.000  -0.000  -0.000
 total augmentation occupancy for first ion, spin component:           1
  2.937  -0.000   0.000  -0.402   0.000  -1.336   0.000  -0.000   0.188  -0.000   0.000   0.000  -0.000   0.000   0.000   0.000
 -0.000   3.227  -0.001  -0.000  -0.403   0.000  -1.472   0.000   0.000   0.188  -0.002  -0.000  -0.000   0.000  -0.000  -0.000
  0.000  -0.001   2.662  -0.000  -0.008  -0.000   0.000  -1.209   0.000   0.005  -0.003  -0.000  -0.000   0.000   0.000   0.000
 -0.402  -0.000  -0.000   3.221  -0.000   0.188   0.000   0.000  -1.469   0.000   0.000   0.000   0.000  -0.000   0.000   0.000
  0.000  -0.403  -0.008  -0.000   2.956  -0.000   0.188   0.005   0.000  -1.348   0.006   0.000  -0.000   0.000  -0.000   0.000
 -1.336   0.000  -0.000   0.188  -0.000   1.485  -0.000   0.000  -0.031   0.000  -0.000  -0.000  -0.000  -0.000   0.000   0.000
  0.000  -1.472   0.000   0.000   0.188  -0.000   1.509  -0.000  -0.000  -0.032   0.001   0.000   0.000   0.000  -0.000  -0.000
 -0.000   0.000  -1.209   0.000   0.005   0.000  -0.000   1.466  -0.000  -0.003   0.002   0.000   0.000  -0.000   0.000  -0.000
  0.188   0.000   0.000  -1.469   0.000  -0.031  -0.000  -0.000   1.507  -0.000  -0.000  -0.000  -0.000  -0.000   0.000   0.000
 -0.000   0.188   0.005   0.000  -1.348   0.000  -0.032  -0.003  -0.000   1.492  -0.003  -0.000  -0.000  -0.000   0.000   0.000
  0.000  -0.002  -0.003   0.000   0.006  -0.000   0.001   0.002  -0.000  -0.003   2.335  -0.329  -0.000  -0.000   0.000   0.000
  0.000  -0.000  -0.000   0.000   0.000  -0.000   0.000   0.000  -0.000  -0.000  -0.329   0.053   0.000   0.000  -0.000  -0.000
 -0.000  -0.000  -0.000   0.000  -0.000  -0.000   0.000   0.000  -0.000  -0.000  -0.000   0.000   0.309  -0.000  -0.000  -0.034
  0.000   0.000   0.000  -0.000   0.000  -0.000   0.000  -0.000  -0.000  -0.000  -0.000   0.000  -0.000   0.309  -0.000   0.000
  0.000  -0.000   0.000   0.000  -0.000   0.000  -0.000   0.000   0.000   0.000   0.000  -0.000  -0.000  -0.000   0.310   0.000
  0.000  -0.000   0.000   0.000   0.000   0.000  -0.000  -0.000   0.000   0.000   0.000  -0.000  -0.034   0.000   0.000   0.004
  0.000  -0.000  -0.000   0.000  -0.000   0.000  -0.000  -0.000   0.000   0.000   0.000  -0.000   0.000  -0.034   0.000  -0.000
 -0.000   0.000  -0.000  -0.000   0.000  -0.000   0.000   0.000  -0.000  -0.000  -0.000   0.000   0.000   0.000  -0.034  -0.000
 total augmentation occupancy for first ion, spin component:           2
 -0.000   0.000  -0.000  -0.000   0.000   0.000  -0.000   0.000   0.000  -0.000  -0.000   0.000  -0.000  -0.000   0.000   0.000
  0.000   0.000   0.000  -0.000   0.000  -0.000  -0.000  -0.000   0.000  -0.000   0.000  -0.000  -0.000   0.000   0.000   0.000
 -0.000   0.000  -0.000   0.000   0.000   0.000  -0.000   0.000  -0.000  -0.000  -0.000  -0.000  -0.000  -0.000   0.000   0.000
 -0.000  -0.000   0.000   0.000  -0.000   0.000   0.000  -0.000  -0.000   0.000  -0.000   0.000   0.000   0.000   0.000  -0.000
  0.000   0.000   0.000  -0.000   0.000  -0.000  -0.000  -0.000   0.000  -0.000  -0.000   0.000  -0.000  -0.000  -0.000   0.000
  0.000  -0.000   0.000   0.000  -0.000  -0.000   0.000  -0.000  -0.000   0.000   0.000  -0.000   0.000   0.000  -0.000  -0.000
 -0.000  -0.000  -0.000   0.000  -0.000   0.000   0.000  -0.000   0.000   0.000  -0.000   0.000   0.000   0.000  -0.000   0.000
  0.000  -0.000   0.000  -0.000  -0.000  -0.000  -0.000  -0.000   0.000   0.000   0.000   0.000   0.000   0.000  -0.000  -0.000
  0.000   0.000  -0.000  -0.000   0.000  -0.000   0.000   0.000   0.000  -0.000   0.000  -0.000  -0.000  -0.000  -0.000   0.000
 -0.000  -0.000  -0.000   0.000  -0.000   0.000   0.000   0.000  -0.000  -0.000   0.000  -0.000   0.000   0.000   0.000   0.000
 -0.000   0.000  -0.000  -0.000  -0.000   0.000  -0.000   0.000   0.000   0.000   0.000   0.000   0.000   0.000  -0.000  -0.000
  0.000  -0.000  -0.000   0.000   0.000  -0.000   0.000   0.000  -0.000  -0.000   0.000  -0.000  -0.000  -0.000   0.000   0.000
 -0.000  -0.000  -0.000   0.000  -0.000   0.000   0.000   0.000  -0.000   0.000   0.000  -0.000  -0.000   0.000   0.000   0.000
 -0.000   0.000  -0.000   0.000  -0.000   0.000   0.000   0.000  -0.000   0.000   0.000  -0.000   0.000  -0.000   0.000   0.000
  0.000   0.000   0.000   0.000  -0.000  -0.000  -0.000  -0.000  -0.000   0.000  -0.000   0.000   0.000   0.000  -0.000  -0.000
  0.000   0.000   0.000  -0.000   0.000  -0.000   0.000  -0.000   0.000   0.000  -0.000   0.000   0.000   0.000  -0.000  -0.000
  0.000   0.000   0.000  -0.000   0.000   0.000  -0.000  -0.000   0.000  -0.000  -0.000   0.000  -0.000   0.000  -0.000  -0.000
 -0.000  -0.000  -0.000  -0.000  -0.000   0.000   0.000   0.000   0.000  -0.000   0.000  -0.000  -0.000  -0.000  -0.000   0.000


------------------------ aborting loop because EDIFF is reached ----------------------------------------


 


 total charge     
 
# of ion       s       p       d       tot
------------------------------------------
    1        0.500   0.504   8.330   9.334
    2        0.500   0.504   8.331   9.335
    3        0.500   0.504   8.330   9.334
    4        0.500   0.504   8.330   9.334
    5        0.500   0.504   8.331   9.335
    6        0.500   0.504   8.330   9.334
--------------------------------------------------
tot          2.998   3.027  49.983  56.008
 


 magnetization (x)
 
# of ion       s       p       d       tot
------------------------------------------
    1       -0.000   0.000   0.000   0.000
    2       -0.000   0.000   0.000   0.000
    3       -0.000   0.000   0.000   0.000
    4        0.000  -0.000  -0.000  -0.000
    5        0.000  -0.000  -0.000  -0.000
    6        0.000  -0.000  -0.000  -0.000
--------------------------------------------------
tot          0.000  -0.000  -0.000  -0.000
 
    CHARGE:  cpu time    1.5444: real time    1.5481
    FORLOC:  cpu time    0.0013: real time    0.0013
    FORNL :  cpu time    4.7293: real time    4.7405
    STRESS:  cpu time    6.3746: real time    6.3896
    FORCOR:  cpu time    0.0359: real time    0.0360
    FORHAR:  cpu time    0.0040: real time    0.0040
    MIXING:  cpu time    0.0013: real time    0.0013
    OFIELD:  cpu time    0.0000: real time    0.0000

  FORCE on cell =-STRESS in cart. coord.  units (eV):
  Direction    XX          YY          ZZ          XY          YZ          ZX
  --------------------------------------------------------------------------------------
  Alpha Z   284.84662   284.84662   284.84662
  Ewald   -1884.92330 -1884.92330 -1884.92323     0.00003    -0.00000     0.00002
  Hartree   445.44919   445.14663   445.15339     0.00001    -0.02586     0.00001
  E(xc)    -330.14907  -330.14192  -330.14254     0.00000     0.00113     0.00000
  Local       6.31293     7.18459     7.14367     0.00006     0.10060     0.00007
  n-local   -46.67537   -47.00293   -46.98252    -0.13564    -0.04575    -0.43738
  augment  1056.08755  1055.84928  1055.86286    -0.00053    -0.02887    -0.00036
  Kinetic   469.75152   469.62415   469.64650     0.13137    -0.02421     0.28672
  Fock        0.00000     0.00000     0.00000     0.00000     0.00000     0.00000
  -------------------------------------------------------------------------------------
  Total       0.70008     0.58312     0.60475    -0.00000    -0.02297    -0.00000
  in kB      17.40206    14.49490    15.03247    -0.00000    -0.57100    -0.00000
  external pressure =       15.64 kB  Pullay stress =        0.00 kB


 VOLUME and BASIS-vectors are now :
 -----------------------------------------------------------------------------
  energy-cutoff  :      520.00
  volume of cell :       64.45
      direct lattice vectors                 reciprocal lattice vectors
     2.476700100  0.000000000  0.000000000     0.403763056 -0.077704227 -0.054945188
     1.238349900  3.574808660  4.044434200     0.000000000  0.155408473  0.109890388
     0.000000000 -2.859846940  4.044434200     0.000000000 -0.155408473  0.137362985

  length of vectors
     2.476700100  5.538069648  4.953400097     0.414827103  0.190335732  0.207413556


 FORCES acting on ions
    electron-ion (+dipol)            ewald-force                    non-local-force                 convergence-correction
 -----------------------------------------------------------------------------------------------
   0.290E-09 0.201E-01 0.145E-01   -.175E-13 0.000E+00 -.284E-13   0.701E-10 -.197E-02 -.147E-02   0.221E-08 -.176E-01 -.128E-01
   0.140E-05 -.413E-04 0.111E-04   0.248E-06 0.198E-05 0.110E-05   0.127E-20 -.136E-19 0.000E+00   -.749E-08 0.104E-05 0.710E-06
   -.140E-05 -.201E-01 -.145E-01   -.248E-06 -.198E-05 -.110E-05   -.701E-10 0.197E-02 0.147E-02   0.723E-08 0.176E-01 0.128E-01
   0.290E-09 0.201E-01 0.145E-01   -.455E-14 0.000E+00 0.124E-13   0.701E-10 -.197E-02 -.147E-02   0.221E-08 -.176E-01 -.128E-01
   0.140E-05 -.413E-04 0.111E-04   0.248E-06 0.198E-05 0.110E-05   -.424E-21 0.102E-19 0.678E-20   -.749E-08 0.104E-05 0.710E-06
   -.140E-05 -.201E-01 -.145E-01   -.248E-06 -.198E-05 -.110E-05   -.701E-10 0.197E-02 0.147E-02   0.723E-08 0.176E-01 0.128E-01
 -----------------------------------------------------------------------------------------------
   0.541E-09 0.384E-07 0.133E-06   -.289E-13 0.106E-14 -.769E-14   0.847E-21 0.434E-18 0.000E+00   0.390E-08 -.340E-08 0.341E-08
 
 
 POSITION                                       TOTAL-FORCE (eV/Angst)
 -----------------------------------------------------------------------------------
      0.00000      0.00000      0.00000        -0.000000      0.000568      0.000226
      1.23835      0.71496      2.02222         0.000000     -0.000000      0.000000
      2.47670      1.42992      4.04443         0.000000     -0.000568     -0.000226
      0.00000     -1.42992      2.02222        -0.000000      0.000568      0.000226
      1.23835     -0.71496      4.04443        -0.000000     -0.000000      0.000000
      2.47670     -0.00000      6.06665         0.000000     -0.000568     -0.000226
 -----------------------------------------------------------------------------------
    total drift:                                0.000000      0.000000      0.000000


--------------------------------------------------------------------------------------------------------



  FREE ENERGIE OF THE ION-ELECTRON SYSTEM (eV)
  ---------------------------------------------------
  free  energy   TOTEN  =       -32.49271330 eV

  energy  without entropy=      -32.41816440  energy(sigma->0) =      -32.46786367
 


--------------------------------------------------------------------------------------------------------


    POTLOK:  cpu time    0.5176: real time    0.5190


--------------------------------------------------------------------------------------------------------


     LOOP+:  cpu time  301.0045: real time  301.7735
    4ORBIT:  cpu time    0.0000: real time    0.0000
 


 total charge     
 
# of ion       s       p       d       tot
------------------------------------------
    1        0.500   0.504   8.330   9.334
    2        0.500   0.504   8.331   9.335
    3        0.500   0.504   8.330   9.334
    4        0.500   0.504   8.330   9.334
    5        0.500   0.504   8.331   9.335
    6        0.500   0.504   8.330   9.334
--------------------------------------------------
tot          2.998   3.027  49.983  56.008
 


 magnetization (x)
 
# of ion       s       p       d       tot
------------------------------------------
    1       -0.000   0.000   0.000   0.000
    2       -0.000   0.000   0.000   0.000
    3       -0.000   0.000   0.000   0.000
    4        0.000  -0.000  -0.000  -0.000
    5        0.000  -0.000  -0.000  -0.000
    6        0.000  -0.000  -0.000  -0.000
--------------------------------------------------
tot          0.000  -0.000  -0.000  -0.000
 

 total amount of memory used by VASP MPI-rank0   238902. kBytes
=======================================================================

   base      :      30000. kBytes
   nonl-proj :      92928. kBytes
   fftplans  :       1255. kBytes
   grid      :       4909. kBytes
   one-center:        186. kBytes
   wavefun   :     109624. kBytes
 
  
  
 General timing and accounting informations for this job:
 ========================================================
  
                  Total CPU time used (sec):      308.381
                            User time (sec):      306.773
                          System time (sec):        1.608
                         Elapsed time (sec):      310.027
  
                   Maximum memory used (kb):      309640.
                   Average memory used (kb):           0.
  
                          Minor page faults:        31674
                          Major page faults:            0
                 Voluntary context switches:         1428
