       N       E                     dE             d eps       ncg     rms          rms(c)
DAV:   1     0.170733212876E+03    0.17073E+03   -0.12001E+04  8428   0.321E+03
DAV:   2    -0.585919059614E+00   -0.17132E+03   -0.14887E+03  7592   0.324E+02
DAV:   3    -0.194925882103E+02   -0.18907E+02   -0.18160E+02  7680   0.116E+02
DAV:   4    -0.204637286048E+02   -0.97114E+00   -0.93937E+00 10888   0.235E+01
DAV:   5    -0.204994384389E+02   -0.35710E-01   -0.35382E-01  9440   0.333E+00    0.185E+01
DAV:   6    -0.257380858869E+02   -0.52386E+01   -0.10097E+02 10296   0.109E+02    0.275E+01
DAV:   7    -0.209081093466E+02    0.48300E+01   -0.23805E+01  8736   0.833E+01    0.101E+01
DAV:   8    -0.209366847916E+02   -0.28575E-01   -0.13244E+00  9752   0.101E+01    0.486E+00
DAV:   9    -0.209221677657E+02    0.14517E-01   -0.16608E+00 10864   0.112E+01    0.267E+00
DAV:  10    -0.208648609509E+02    0.57307E-01   -0.21813E-01  9704   0.425E+00    0.982E-01
DAV:  11    -0.208607197485E+02    0.41412E-02   -0.14304E-02  9536   0.119E+00    0.810E-01
DAV:  12    -0.208604087732E+02    0.31098E-03   -0.25450E-02 10364   0.149E+00    0.361E-01
DAV:  13    -0.208607266684E+02   -0.31790E-03   -0.20514E-03  9696   0.293E-01    0.203E-01
DAV:  14    -0.208608325916E+02   -0.10592E-03   -0.15426E-03 10280   0.377E-01    0.831E-02
DAV:  15    -0.208607656833E+02    0.66908E-04   -0.19951E-04  9772   0.116E-01    0.433E-02
DAV:  16    -0.208607864990E+02   -0.20816E-04   -0.23157E-05 10196   0.409E-02    0.142E-02
DAV:  17    -0.208607877462E+02   -0.12472E-05   -0.29264E-06 11340   0.123E-02    0.534E-03
DAV:  18    -0.208607880790E+02   -0.33276E-06   -0.62392E-07  8440   0.574E-03    0.529E-03
DAV:  19    -0.208607864918E+02    0.15871E-05   -0.18731E-07  7064   0.475E-03    0.187E-03
DAV:  20    -0.208607877425E+02   -0.12506E-05   -0.80648E-08  4692   0.294E-03    0.464E-04
DAV:  21    -0.208607874782E+02    0.26432E-06   -0.33882E-08  3940   0.171E-03    0.262E-04
DAV:  22    -0.208607873689E+02    0.10930E-06   -0.13481E-08  3764   0.110E-03    0.258E-04
DAV:  23    -0.208607872970E+02    0.71856E-07   -0.56661E-09  3660   0.878E-04
   1 F= -.20860787E+02 E0= -.20860787E+02  d E =0.000000E+00  mag=     6.9930
