 vasp.5.4.4.18Apr17-6-g9f103f2a35 (build Apr 28 2018 00:24:27) complex          
  
 executed on             LinuxIFC date 2021.09.07  01:11:32
 running on   24 total cores
 distrk:  each k-point on   24 cores,    1 groups
 distr:  one band on NCORES_PER_BAND=   4 cores,    6 groups


--------------------------------------------------------------------------------------------------------


 INCAR:
 POTCAR:    PAW_PBE Fe_pv 02Aug2007               
 POTCAR:    PAW_PBE Fe_pv 02Aug2007               
   VRHFIN =Fe:  3pd7s1                                                          
   LEXCH  = PE                                                                  
   EATOM  =  2457.4239 eV,  180.6156 Ry                                         
                                                                                
   TITEL  = PAW_PBE Fe_pv 02Aug2007                                             
   LULTRA =        F    use ultrasoft PP ?                                      
   IUNSCR =        1    unscreen: 0-lin 1-nonlin 2-no                           
   RPACOR =    1.750    partial core radius                                     
   POMASS =   55.847; ZVAL   =   14.000    mass and valenz                      
   RCORE  =    2.200    outmost cutoff radius                                   
   RWIGS  =    2.200; RWIGS  =    1.164    wigner-seitz radius (au A)           
   ENMAX  =  293.238; ENMIN  =  219.928 eV                                      
   ICORE  =        3    local potential                                         
   LCOR   =        T    correct aug charges                                     
   LPAW   =        T    paw PP                                                  
   EAUG   =  578.342                                                            
   DEXC   =    0.000                                                            
   RMAX   =    2.249    core radius for proj-oper                               
   RAUG   =    1.300    factor for augmentation sphere                          
   RDEP   =    2.296    radius for radial grids                                 
   RDEPT  =    1.766    core radius for aug-charge                              
                                                                                
   Atomic configuration                                                         
    8 entries                                                                   
     n  l   j            E        occ.                                          
     1  0  0.50     -6993.8440   2.0000                                         
     2  0  0.50      -814.6047   2.0000                                         
     2  1  1.50      -693.3689   6.0000                                         
     3  0  0.50       -89.4732   2.0000                                         
     3  1  1.50       -55.6373   6.0000                                         
     3  2  2.50        -3.8151   7.0000                                         
     4  0  0.50        -4.2551   1.0000                                         
     4  3  2.50        -1.3606   0.0000                                         
   Description                                                                  
     l       E           TYP  RCUT    TYP  RCUT                                 
     1    -55.6372668     23  2.000                                             
     1     -5.4423304     23  2.000                                             
     2     -3.8151096     23  2.200                                             
     2     -5.1756922     23  2.200                                             
     0     -4.2550951     23  2.200                                             
     0     27.2116520     23  2.200                                             
     3     -1.3605826     23  2.200                                             
  local pseudopotential read in
  partial core-charges read in
  partial kinetic energy density read in
  atomic valenz-charges read in
  non local Contribution for L=           1  read in
    real space projection operators read in
  non local Contribution for L=           1  read in
    real space projection operators read in
  non local Contribution for L=           2  read in
    real space projection operators read in
  non local Contribution for L=           2  read in
    real space projection operators read in
  non local Contribution for L=           0  read in
    real space projection operators read in
  non local Contribution for L=           0  read in
    real space projection operators read in
    PAW grid and wavefunctions read in
 
   number of l-projection  operators is LMAX  =           6
   number of lm-projection operators is LMMAX =          18
 

 ----------------------------------------------------------------------------- 
|                                                                             |
|  ADVICE TO THIS USER RUNNING 'VASP/VAMP'   (HEAR YOUR MASTER'S VOICE ...):  |
|                                                                             |
|      You have a (more or less) 'small supercell' and for smaller cells      |
|      it is recommended  to use the reciprocal-space projection scheme!      |
|      The real space optimization is not  efficient for small cells and it   |
|      is also less accurate ...                                              |
|      Therefore set LREAL=.FALSE. in the  INCAR file                         |
|                                                                             |
 ----------------------------------------------------------------------------- 

 Optimization of the real space projectors (new method)

 maximal supplied QI-value         = 17.01
 optimisation between [QCUT,QGAM] = [ 15.14, 30.27] = [ 64.16,256.64] Ry 
 Optimized for a Real-space Cutoff    1.25 Angstroem

   l    n(q)    QCUT    max X(q) W(low)/X(q) W(high)/X(q)  e(spline) 
   1     11    15.137     4.267    0.17E-03    0.20E-03    0.46E-06
   1     11    15.137     5.750    0.25E-03    0.30E-03    0.64E-06
   2     10    15.137    53.656    0.15E-03    0.42E-04    0.34E-06
   2     10    15.137    49.521    0.15E-03    0.43E-04    0.35E-06
   0     11    15.137    31.246    0.49E-04    0.96E-05    0.45E-06
   0     11    15.137    12.201    0.40E-04    0.82E-05    0.37E-06
  PAW_PBE Fe_pv 02Aug2007               :
 energy of atom  1       EATOM=-2457.4239
 kinetic energy error for atom=    0.0011 (will be added to EATOM!!)
 
 
 POSCAR: Fe2                                     
  positions in direct lattice
  No initial velocities read in
 exchange correlation table for  LEXCH =        8
   RHO(1)=    0.500       N(1)  =     2000
   RHO(2)=  100.500       N(2)  =     4000
 


--------------------------------------------------------------------------------------------------------


 ion  position               nearest neighbor table
   1  0.000  0.000  0.000-   2 2.46   2 2.46   2 2.46   2 2.46   2 2.46   2 2.46   2 2.46   2 2.46

   2  0.500  0.500  0.500-   1 2.46   1 2.46   1 2.46   1 2.46   1 2.46   1 2.46   1 2.46   1 2.46

 
  LATTYP: Found a simple cubic cell.
 ALAT       =     2.8400520000
  
  Lattice vectors:
  
 A1 = (   2.8400520000,   0.0000000000,   0.0000000000)
 A2 = (   0.0000000000,   2.8400520000,   0.0000000000)
 A3 = (   0.0000000000,   0.0000000000,   2.8400520000)


Analysis of symmetry for initial positions (statically):
=====================================================================
 Subroutine PRICEL returns following result:
 
  LATTYP: Found a body centered cubic cell.
 ALAT       =     2.8400520000
  
  Lattice vectors:
  
 A1 = (   1.4200260000,   1.4200260000,   1.4200260000)
 A2 = (   1.4200260000,  -1.4200260000,  -1.4200260000)
 A3 = (  -1.4200260000,   1.4200260000,  -1.4200260000)
 
   2 primitive cells build up your supercell.
 

 Routine SETGRP: Setting up the symmetry group for a 
 simple cubic supercell.


 Subroutine GETGRP returns: Found 48 space group operations
 (whereof 48 operations were pure point group operations)
 out of a pool of 48 trial point group operations.


The static configuration has the point symmetry O_h .


Analysis of symmetry for dynamics (positions and initial velocities):
=====================================================================
 Subroutine PRICEL returns following result:
 
  LATTYP: Found a body centered cubic cell.
 ALAT       =     2.8400520000
  
  Lattice vectors:
  
 A1 = (   1.4200260000,   1.4200260000,   1.4200260000)
 A2 = (   1.4200260000,  -1.4200260000,  -1.4200260000)
 A3 = (  -1.4200260000,   1.4200260000,  -1.4200260000)
 
   2 primitive cells build up your supercell.
 

 Routine SETGRP: Setting up the symmetry group for a 
 simple cubic supercell.


 Subroutine GETGRP returns: Found 48 space group operations
 (whereof 48 operations were pure point group operations)
 out of a pool of 48 trial point group operations.


The dynamic configuration has the point symmetry O_h .


Analysis of structural, dynamic, and magnetic symmetry:
=====================================================================
 Subroutine PRICEL returns following result:
 
  LATTYP: Found a body centered cubic cell.
 ALAT       =     2.8400520000
  
  Lattice vectors:
  
 A1 = (   1.4200260000,   1.4200260000,   1.4200260000)
 A2 = (   1.4200260000,  -1.4200260000,  -1.4200260000)
 A3 = (  -1.4200260000,   1.4200260000,  -1.4200260000)
 
   2 primitive cells build up your supercell.
 

 Routine SETGRP: Setting up the symmetry group for a 
 simple cubic supercell.


 Subroutine GETGRP returns: Found 48 space group operations
 (whereof 48 operations were pure point group operations)
 out of a pool of 48 trial point group operations.


The magnetic configuration has the point symmetry O_h .


 Subroutine INISYM returns: Found 48 space group operations
 (whereof 48 operations are pure point group operations),
 and found     2 'primitive' translations

 
 
 KPOINTS: pymatgen with grid density = 2166 / numb

Automatic generation of k-mesh.
Space group operators:
 irot       det(A)        alpha          n_x          n_y          n_z        tau_x        tau_y        tau_z
    1     1.000000     0.000000     1.000000     0.000000     0.000000     0.000000     0.000000     0.000000
    2    -1.000000     0.000000     1.000000     0.000000     0.000000     0.000000     0.000000     0.000000
    3     1.000000   120.000000    -0.577350    -0.577350    -0.577350     0.000000     0.000000     0.000000
    4    -1.000000   120.000000    -0.577350    -0.577350    -0.577350     0.000000     0.000000     0.000000
    5     1.000000   120.000000     0.577350     0.577350     0.577350     0.000000     0.000000     0.000000
    6    -1.000000   120.000000     0.577350     0.577350     0.577350     0.000000     0.000000     0.000000
    7     1.000000    90.000000     0.000000     0.000000    -1.000000     0.000000     0.000000     0.000000
    8    -1.000000    90.000000     0.000000     0.000000    -1.000000     0.000000     0.000000     0.000000
    9     1.000000   180.000000     0.000000     0.707107     0.707107     0.000000     0.000000     0.000000
   10    -1.000000   180.000000     0.000000     0.707107     0.707107     0.000000     0.000000     0.000000
   11     1.000000    90.000000     0.000000     1.000000     0.000000     0.000000     0.000000     0.000000
   12    -1.000000    90.000000     0.000000     1.000000     0.000000     0.000000     0.000000     0.000000
   13     1.000000   180.000000     0.000000     0.000000     1.000000     0.000000     0.000000     0.000000
   14    -1.000000   180.000000     0.000000     0.000000     1.000000     0.000000     0.000000     0.000000
   15     1.000000   120.000000    -0.577350     0.577350     0.577350     0.000000     0.000000     0.000000
   16    -1.000000   120.000000    -0.577350     0.577350     0.577350     0.000000     0.000000     0.000000
   17     1.000000   120.000000    -0.577350     0.577350    -0.577350     0.000000     0.000000     0.000000
   18    -1.000000   120.000000    -0.577350     0.577350    -0.577350     0.000000     0.000000     0.000000
   19     1.000000    90.000000     0.000000     0.000000     1.000000     0.000000     0.000000     0.000000
   20    -1.000000    90.000000     0.000000     0.000000     1.000000     0.000000     0.000000     0.000000
   21     1.000000    90.000000    -1.000000     0.000000     0.000000     0.000000     0.000000     0.000000
   22    -1.000000    90.000000    -1.000000     0.000000     0.000000     0.000000     0.000000     0.000000
   23     1.000000   180.000000     0.707107     0.000000     0.707107     0.000000     0.000000     0.000000
   24    -1.000000   180.000000     0.707107     0.000000     0.707107     0.000000     0.000000     0.000000
   25     1.000000   120.000000     0.577350    -0.577350     0.577350     0.000000     0.000000     0.000000
   26    -1.000000   120.000000     0.577350    -0.577350     0.577350     0.000000     0.000000     0.000000
   27     1.000000   120.000000    -0.577350    -0.577350     0.577350     0.000000     0.000000     0.000000
   28    -1.000000   120.000000    -0.577350    -0.577350     0.577350     0.000000     0.000000     0.000000
   29     1.000000   180.000000     1.000000     0.000000     0.000000     0.000000     0.000000     0.000000
   30    -1.000000   180.000000     1.000000     0.000000     0.000000     0.000000     0.000000     0.000000
   31     1.000000    90.000000     0.000000    -1.000000     0.000000     0.000000     0.000000     0.000000
   32    -1.000000    90.000000     0.000000    -1.000000     0.000000     0.000000     0.000000     0.000000
   33     1.000000   180.000000     0.707107     0.707107     0.000000     0.000000     0.000000     0.000000
   34    -1.000000   180.000000     0.707107     0.707107     0.000000     0.000000     0.000000     0.000000
   35     1.000000    90.000000     1.000000     0.000000     0.000000     0.000000     0.000000     0.000000
   36    -1.000000    90.000000     1.000000     0.000000     0.000000     0.000000     0.000000     0.000000
   37     1.000000   120.000000     0.577350    -0.577350    -0.577350     0.000000     0.000000     0.000000
   38    -1.000000   120.000000     0.577350    -0.577350    -0.577350     0.000000     0.000000     0.000000
   39     1.000000   180.000000     0.000000     1.000000     0.000000     0.000000     0.000000     0.000000
   40    -1.000000   180.000000     0.000000     1.000000     0.000000     0.000000     0.000000     0.000000
   41     1.000000   120.000000     0.577350     0.577350    -0.577350     0.000000     0.000000     0.000000
   42    -1.000000   120.000000     0.577350     0.577350    -0.577350     0.000000     0.000000     0.000000
   43     1.000000   180.000000     0.000000    -0.707107     0.707107     0.000000     0.000000     0.000000
   44    -1.000000   180.000000     0.000000    -0.707107     0.707107     0.000000     0.000000     0.000000
   45     1.000000   180.000000     0.707107    -0.707107     0.000000     0.000000     0.000000     0.000000
   46    -1.000000   180.000000     0.707107    -0.707107     0.000000     0.000000     0.000000     0.000000
   47     1.000000   180.000000     0.707107     0.000000    -0.707107     0.000000     0.000000     0.000000
   48    -1.000000   180.000000     0.707107     0.000000    -0.707107     0.000000     0.000000     0.000000
 
 Subroutine IBZKPT returns following result:
 ===========================================
 
 Found     35 irreducible k-points:
 
 Following reciprocal coordinates:
            Coordinates               Weight
  0.050000  0.050000  0.050000      8.000000
  0.150000  0.050000  0.050000     24.000000
  0.250000  0.050000  0.050000     24.000000
  0.350000  0.050000  0.050000     24.000000
  0.450000  0.050000  0.050000     24.000000
  0.150000  0.150000  0.050000     24.000000
  0.250000  0.150000  0.050000     48.000000
  0.350000  0.150000  0.050000     48.000000
  0.450000  0.150000  0.050000     48.000000
  0.250000  0.250000  0.050000     24.000000
  0.350000  0.250000  0.050000     48.000000
  0.450000  0.250000  0.050000     48.000000
  0.350000  0.350000  0.050000     24.000000
  0.450000  0.350000  0.050000     48.000000
  0.450000  0.450000  0.050000     24.000000
  0.150000  0.150000  0.150000      8.000000
  0.250000  0.150000  0.150000     24.000000
  0.350000  0.150000  0.150000     24.000000
  0.450000  0.150000  0.150000     24.000000
  0.250000  0.250000  0.150000     24.000000
  0.350000  0.250000  0.150000     48.000000
  0.450000  0.250000  0.150000     48.000000
  0.350000  0.350000  0.150000     24.000000
  0.450000  0.350000  0.150000     48.000000
  0.450000  0.450000  0.150000     24.000000
  0.250000  0.250000  0.250000      8.000000
  0.350000  0.250000  0.250000     24.000000
  0.450000  0.250000  0.250000     24.000000
  0.350000  0.350000  0.250000     24.000000
  0.450000  0.350000  0.250000     48.000000
  0.450000  0.450000  0.250000     24.000000
  0.350000  0.350000  0.350000      8.000000
  0.450000  0.350000  0.350000     24.000000
  0.450000  0.450000  0.350000     24.000000
  0.450000  0.450000  0.450000      8.000000
 
 Following cartesian coordinates:
            Coordinates               Weight
  0.017605  0.017605  0.017605      8.000000
  0.052816  0.017605  0.017605     24.000000
  0.088027  0.017605  0.017605     24.000000
  0.123237  0.017605  0.017605     24.000000
  0.158448  0.017605  0.017605     24.000000
  0.052816  0.052816  0.017605     24.000000
  0.088027  0.052816  0.017605     48.000000
  0.123237  0.052816  0.017605     48.000000
  0.158448  0.052816  0.017605     48.000000
  0.088027  0.088027  0.017605     24.000000
  0.123237  0.088027  0.017605     48.000000
  0.158448  0.088027  0.017605     48.000000
  0.123237  0.123237  0.017605     24.000000
  0.158448  0.123237  0.017605     48.000000
  0.158448  0.158448  0.017605     24.000000
  0.052816  0.052816  0.052816      8.000000
  0.088027  0.052816  0.052816     24.000000
  0.123237  0.052816  0.052816     24.000000
  0.158448  0.052816  0.052816     24.000000
  0.088027  0.088027  0.052816     24.000000
  0.123237  0.088027  0.052816     48.000000
  0.158448  0.088027  0.052816     48.000000
  0.123237  0.123237  0.052816     24.000000
  0.158448  0.123237  0.052816     48.000000
  0.158448  0.158448  0.052816     24.000000
  0.088027  0.088027  0.088027      8.000000
  0.123237  0.088027  0.088027     24.000000
  0.158448  0.088027  0.088027     24.000000
  0.123237  0.123237  0.088027     24.000000
  0.158448  0.123237  0.088027     48.000000
  0.158448  0.158448  0.088027     24.000000
  0.123237  0.123237  0.123237      8.000000
  0.158448  0.123237  0.123237     24.000000
  0.158448  0.158448  0.123237     24.000000
  0.158448  0.158448  0.158448      8.000000
 
 TETIRR: Found    466 inequivalent tetrahedra from     6000


--------------------------------------------------------------------------------------------------------




 Dimension of arrays:
   k-points           NKPTS =     35   k-points in BZ     NKDIM =     35   number of bands    NBANDS=     24
   number of dos      NEDOS =    301   number of ions     NIONS =      2
   non local maximal  LDIM  =      6   non local SUM 2l+1 LMDIM =     18
   total plane-waves  NPLWV =  21952
   max r-space proj   IRMAX =   7906   max aug-charges    IRDMAX=  28578
   dimension x,y,z NGX =    28 NGY =   28 NGZ =   28
   dimension x,y,z NGXF=    56 NGYF=   56 NGZF=   56
   support grid    NGXF=    56 NGYF=   56 NGZF=   56
   ions per type =               2
   NGX,Y,Z   is equivalent  to a cutoff of  16.39, 16.39, 16.39 a.u.
   NGXF,Y,Z  is equivalent  to a cutoff of  32.78, 32.78, 32.78 a.u.

 SYSTEM =  unknown system                          
 POSCAR =  Fe2                                     

 Startparameter for this run:
   NWRITE =      2    write-flag & timer
   PREC   = accura    normal or accurate (medium, high low for compatibility)
   ISTART =      0    job   : 0-new  1-cont  2-samecut
   ICHARG =      2    charge: 1-file 2-atom 10-const
   ISPIN  =      2    spin polarized calculation?
   LNONCOLLINEAR =      F non collinear calculations
   LSORBIT =      F    spin-orbit coupling
   INIWAV =      1    electr: 0-lowe 1-rand  2-diag
   LASPH  =      F    aspherical Exc in radial PAW
   METAGGA=      F    non-selfconsistent MetaGGA calc.

 Electronic Relaxation 1
   ENCUT  =  880.0 eV  64.68 Ry    8.04 a.u.   6.87  6.87  6.87*2*pi/ulx,y,z
   ENINI  =  880.0     initial cutoff
   ENAUG  =  578.3 eV  augmentation charge cutoff
   NELM   =    100;   NELMIN=  2; NELMDL= -5     # of ELM steps 
   EDIFF  = 0.1E-06   stopping-criterion for ELM
   LREAL  =      T    real-space projection
   NLSPLINE    = F    spline interpolate recip. space projectors
   LCOMPAT=      F    compatible to vasp.4.4
   GGA_COMPAT  = T    GGA compatible to vasp.4.4-vasp.4.6
   LMAXPAW     = -100 max onsite density
   LMAXMIX     =    2 max onsite mixed and CHGCAR
   VOSKOWN=      0    Vosko Wilk Nusair interpolation
   ROPT   =   -0.00025
 Ionic relaxation
   EDIFFG = 0.1E-05   stopping-criterion for IOM
   NSW    =      0    number of steps for IOM
   NBLOCK =      1;   KBLOCK =      1    inner block; outer block 
   IBRION =     -1    ionic relax: 0-MD 1-quasi-New 2-CG
   NFREE  =      0    steps in history (QN), initial steepest desc. (CG)
   ISIF   =      3    stress and relaxation
   IWAVPR =     10    prediction:  0-non 1-charg 2-wave 3-comb
   ISYM   =      2    0-nonsym 1-usesym 2-fastsym
   LCORR  =      T    Harris-Foulkes like correction to forces

   POTIM  = 0.5000    time-step for ionic-motion
   TEIN   =    0.0    initial temperature
   TEBEG  =    0.0;   TEEND  =   0.0 temperature during run
   SMASS  =  -3.00    Nose mass-parameter (am)
   estimated Nose-frequenzy (Omega)   =  0.10E-29 period in steps =****** mass=  -0.184E-27a.u.
   SCALEE = 1.0000    scale energy and forces
   NPACO  =    256;   APACO  = 16.0  distance and # of slots for P.C.
   PSTRESS=    0.0 pullay stress

  Mass of Ions in am
   POMASS =  55.85
  Ionic Valenz
   ZVAL   =  14.00
  Atomic Wigner-Seitz radii
   RWIGS  =  -1.00
  virtual crystal weights 
   VCA    =   1.00
   NELECT =      28.0000    total number of electrons
   NUPDOWN=      -1.0000    fix difference up-down

 DOS related values:
   EMIN   =  10.00;   EMAX   =-10.00  energy-range for DOS
   EFERMI =   0.00
   ISMEAR =    -5;   SIGMA  =   0.05  broadening in eV -4-tet -1-fermi 0-gaus

 Electronic relaxation 2 (details)
   IALGO  =     38    algorithm
   LDIAG  =      T    sub-space diagonalisation (order eigenvalues)
   LSUBROT=      F    optimize rotation matrix (better conditioning)
   TURBO    =      0    0=normal 1=particle mesh
   IRESTART =      0    0=no restart 2=restart with 2 vectors
   NREBOOT  =      0    no. of reboots
   NMIN     =      0    reboot dimension
   EREF     =   0.00    reference energy to select bands
   IMIX   =      4    mixing-type and parameters
     AMIX     =   0.40;   BMIX     =  1.00
     AMIX_MAG =   1.60;   BMIX_MAG =  1.00
     AMIN     =   0.10
     WC   =   100.;   INIMIX=   1;  MIXPRE=   1;  MAXMIX= -45

 Intra band minimization:
   WEIMIN = 0.0000     energy-eigenvalue tresh-hold
   EBREAK =  0.10E-08  absolut break condition
   DEPER  =   0.30     relativ break condition  

   TIME   =   0.40     timestep for ELM

  volume/ion in A,a.u.               =      11.45        77.29
  Fermi-wavevector in a.u.,A,eV,Ry     =   1.750389  3.307755 41.686364  3.063861
  Thomas-Fermi vector in A             =   2.821117
 
 Write flags
   LWAVE        =      F    write WAVECAR
   LDOWNSAMPLE  =      F    k-point downsampling of WAVECAR
   LCHARG       =      F    write CHGCAR
   LVTOT        =      F    write LOCPOT, total local potential
   LVHAR        =      F    write LOCPOT, Hartree potential only
   LELF         =      F    write electronic localiz. function (ELF)
   LORBIT       =     11    0 simple, 1 ext, 2 COOP (PROOUT), +10 PAW based schemes


 Dipole corrections
   LMONO  =      F    monopole corrections only (constant potential shift)
   LDIPOL =      F    correct potential (dipole corrections)
   IDIPOL =      0    1-x, 2-y, 3-z, 4-all directions 
   EPSILON=  1.0000000 bulk dielectric constant

 Exchange correlation treatment:
   GGA     =    --    GGA type
   LEXCH   =     8    internal setting for exchange type
   VOSKOWN=      0    Vosko Wilk Nusair interpolation
   LHFCALC =     F    Hartree Fock is set to
   LHFONE  =     F    Hartree Fock one center treatment
   AEXX    =    0.0000 exact exchange contribution

 Linear response parameters
   LEPSILON=     F    determine dielectric tensor
   LRPA    =     F    only Hartree local field effects (RPA)
   LNABLA  =     F    use nabla operator in PAW spheres
   LVEL    =     F    velocity operator in full k-point grid
   LINTERFAST=   F  fast interpolation
   KINTER  =     0    interpolate to denser k-point grid
   CSHIFT  =0.1000    complex shift for real part using Kramers Kronig
   OMEGAMAX=  -1.0    maximum frequency
   DEG_THRESHOLD= 0.2000000E-02 threshold for treating states as degnerate
   RTIME   =   -0.100 relaxation time in fs
  (WPLASMAI=    0.000 imaginary part of plasma frequency in eV, 0.658/RTIME)
   DFIELD  = 0.0000000 0.0000000 0.0000000 field for delta impulse in time
 
 Orbital magnetization related:
   ORBITALMAG=     F  switch on orbital magnetization
   LCHIMAG   =     F  perturbation theory with respect to B field
   DQ        =  0.001000  dq finite difference perturbation B field
   LLRAUG    =     F  two centre corrections for induced B field



--------------------------------------------------------------------------------------------------------


 Static calculation
 charge density and potential will be updated during run
 spin polarized calculation
 Variant of blocked Davidson
 Davidson routine will perform the subspace rotation
 perform sub-space diagonalisation
    after iterative eigenvector-optimisation
 modified Broyden-mixing scheme, WC =      100.0
 initial mixing is a Kerker type mixing with AMIX =  0.4000 and BMIX =      1.0000
 Hartree-type preconditioning will be used
 using additional bands           10
 real space projection scheme for non local part
 use partial core corrections
 calculate Harris-corrections to forces 
   (improved forces if not selfconsistent)
 use gradient corrections 
 use of overlap-Matrix (Vanderbilt PP)
 Fermi weights with tetrahedron method with Bloechl corrections


--------------------------------------------------------------------------------------------------------


  energy-cutoff  :      880.00
  volume of cell :       22.91
      direct lattice vectors                 reciprocal lattice vectors
     2.840052000  0.000000000  0.000000000     0.352106229  0.000000000  0.000000000
     0.000000000  2.840052000  0.000000000     0.000000000  0.352106229  0.000000000
     0.000000000  0.000000000  2.840052000     0.000000000  0.000000000  0.352106229

  length of vectors
     2.840052000  2.840052000  2.840052000     0.352106229  0.352106229  0.352106229


 
 k-points in units of 2pi/SCALE and weight: pymatgen with grid density = 2166 / numb
   0.01760531  0.01760531  0.01760531       0.008
   0.05281593  0.01760531  0.01760531       0.024
   0.08802656  0.01760531  0.01760531       0.024
   0.12323718  0.01760531  0.01760531       0.024
   0.15844780  0.01760531  0.01760531       0.024
   0.05281593  0.05281593  0.01760531       0.024
   0.08802656  0.05281593  0.01760531       0.048
   0.12323718  0.05281593  0.01760531       0.048
   0.15844780  0.05281593  0.01760531       0.048
   0.08802656  0.08802656  0.01760531       0.024
   0.12323718  0.08802656  0.01760531       0.048
   0.15844780  0.08802656  0.01760531       0.048
   0.12323718  0.12323718  0.01760531       0.024
   0.15844780  0.12323718  0.01760531       0.048
   0.15844780  0.15844780  0.01760531       0.024
   0.05281593  0.05281593  0.05281593       0.008
   0.08802656  0.05281593  0.05281593       0.024
   0.12323718  0.05281593  0.05281593       0.024
   0.15844780  0.05281593  0.05281593       0.024
   0.08802656  0.08802656  0.05281593       0.024
   0.12323718  0.08802656  0.05281593       0.048
   0.15844780  0.08802656  0.05281593       0.048
   0.12323718  0.12323718  0.05281593       0.024
   0.15844780  0.12323718  0.05281593       0.048
   0.15844780  0.15844780  0.05281593       0.024
   0.08802656  0.08802656  0.08802656       0.008
   0.12323718  0.08802656  0.08802656       0.024
   0.15844780  0.08802656  0.08802656       0.024
   0.12323718  0.12323718  0.08802656       0.024
   0.15844780  0.12323718  0.08802656       0.048
   0.15844780  0.15844780  0.08802656       0.024
   0.12323718  0.12323718  0.12323718       0.008
   0.15844780  0.12323718  0.12323718       0.024
   0.15844780  0.15844780  0.12323718       0.024
   0.15844780  0.15844780  0.15844780       0.008
 
 k-points in reciprocal lattice and weights: pymatgen with grid density = 2166 / numb
   0.05000000  0.05000000  0.05000000       0.008
   0.15000000  0.05000000  0.05000000       0.024
   0.25000000  0.05000000  0.05000000       0.024
   0.35000000  0.05000000  0.05000000       0.024
   0.45000000  0.05000000  0.05000000       0.024
   0.15000000  0.15000000  0.05000000       0.024
   0.25000000  0.15000000  0.05000000       0.048
   0.35000000  0.15000000  0.05000000       0.048
   0.45000000  0.15000000  0.05000000       0.048
   0.25000000  0.25000000  0.05000000       0.024
   0.35000000  0.25000000  0.05000000       0.048
   0.45000000  0.25000000  0.05000000       0.048
   0.35000000  0.35000000  0.05000000       0.024
   0.45000000  0.35000000  0.05000000       0.048
   0.45000000  0.45000000  0.05000000       0.024
   0.15000000  0.15000000  0.15000000       0.008
   0.25000000  0.15000000  0.15000000       0.024
   0.35000000  0.15000000  0.15000000       0.024
   0.45000000  0.15000000  0.15000000       0.024
   0.25000000  0.25000000  0.15000000       0.024
   0.35000000  0.25000000  0.15000000       0.048
   0.45000000  0.25000000  0.15000000       0.048
   0.35000000  0.35000000  0.15000000       0.024
   0.45000000  0.35000000  0.15000000       0.048
   0.45000000  0.45000000  0.15000000       0.024
   0.25000000  0.25000000  0.25000000       0.008
   0.35000000  0.25000000  0.25000000       0.024
   0.45000000  0.25000000  0.25000000       0.024
   0.35000000  0.35000000  0.25000000       0.024
   0.45000000  0.35000000  0.25000000       0.048
   0.45000000  0.45000000  0.25000000       0.024
   0.35000000  0.35000000  0.35000000       0.008
   0.45000000  0.35000000  0.35000000       0.024
   0.45000000  0.45000000  0.35000000       0.024
   0.45000000  0.45000000  0.45000000       0.008
 
 position of ions in fractional coordinates (direct lattice) 
   0.00000000  0.00000000  0.00000000
   0.50000000  0.50000000  0.50000000
 
 position of ions in cartesian coordinates  (Angst):
   0.00000000  0.00000000  0.00000000
   1.42002600  1.42002600  1.42002600
 


--------------------------------------------------------------------------------------------------------


 k-point  1 :   0.0500 0.0500 0.0500  plane waves:    1358
 k-point  2 :   0.1500 0.0500 0.0500  plane waves:    1351
 k-point  3 :   0.2500 0.0500 0.0500  plane waves:    1355
 k-point  4 :   0.3500 0.0500 0.0500  plane waves:    1355
 k-point  5 :   0.4500 0.0500 0.0500  plane waves:    1365
 k-point  6 :   0.1500 0.1500 0.0500  plane waves:    1348
 k-point  7 :   0.2500 0.1500 0.0500  plane waves:    1361
 k-point  8 :   0.3500 0.1500 0.0500  plane waves:    1357
 k-point  9 :   0.4500 0.1500 0.0500  plane waves:    1357
 k-point 10 :   0.2500 0.2500 0.0500  plane waves:    1354
 k-point 11 :   0.3500 0.2500 0.0500  plane waves:    1356
 k-point 12 :   0.4500 0.2500 0.0500  plane waves:    1358
 k-point 13 :   0.3500 0.3500 0.0500  plane waves:    1359
 k-point 14 :   0.4500 0.3500 0.0500  plane waves:    1354
 k-point 15 :   0.4500 0.4500 0.0500  plane waves:    1348
 k-point 16 :   0.1500 0.1500 0.1500  plane waves:    1355
 k-point 17 :   0.2500 0.1500 0.1500  plane waves:    1351
 k-point 18 :   0.3500 0.1500 0.1500  plane waves:    1362
 k-point 19 :   0.4500 0.1500 0.1500  plane waves:    1352
 k-point 20 :   0.2500 0.2500 0.1500  plane waves:    1357
 k-point 21 :   0.3500 0.2500 0.1500  plane waves:    1355
 k-point 22 :   0.4500 0.2500 0.1500  plane waves:    1361
 k-point 23 :   0.3500 0.3500 0.1500  plane waves:    1357
 k-point 24 :   0.4500 0.3500 0.1500  plane waves:    1357
 k-point 25 :   0.4500 0.4500 0.1500  plane waves:    1363
 k-point 26 :   0.2500 0.2500 0.2500  plane waves:    1382
 k-point 27 :   0.3500 0.2500 0.2500  plane waves:    1358
 k-point 28 :   0.4500 0.2500 0.2500  plane waves:    1358
 k-point 29 :   0.3500 0.3500 0.2500  plane waves:    1367
 k-point 30 :   0.4500 0.3500 0.2500  plane waves:    1368
 k-point 31 :   0.4500 0.4500 0.2500  plane waves:    1366
 k-point 32 :   0.3500 0.3500 0.3500  plane waves:    1361
 k-point 33 :   0.4500 0.3500 0.3500  plane waves:    1366
 k-point 34 :   0.4500 0.4500 0.3500  plane waves:    1373
 k-point 35 :   0.4500 0.4500 0.4500  plane waves:    1361

 maximum and minimum number of plane-waves per node :       355      322

 maximum number of plane-waves:      1382
 maximum index in each direction: 
   IXMAX=    6   IYMAX=    6   IZMAX=    6
   IXMIN=   -7   IYMIN=   -7   IZMIN=   -7


 real space projection operators:
  total allocation   :       2162.53 KBytes
  max/ min on nodes  :        540.70        540.56


 parallel 3D FFT for wavefunctions:
    minimum data exchange during FFTs selected (reduces bandwidth)
 parallel 3D FFT for charge:
    minimum data exchange during FFTs selected (reduces bandwidth)


 total amount of memory used by VASP MPI-rank0    34249. kBytes
=======================================================================

   base      :      30000. kBytes
   nonlr-proj:        934. kBytes
   fftplans  :        477. kBytes
   grid      :       1141. kBytes
   one-center:         31. kBytes
   wavefun   :       1666. kBytes
 
     INWAV:  cpu time    0.0000: real time    0.0001
 Broyden mixing: mesh for mixing (old mesh)
   NGX = 13   NGY = 13   NGZ = 13
  (NGX  = 56   NGY  = 56   NGZ  = 56)
  gives a total of   2197 points

 initial charge density was supplied:
 charge density of overlapping atoms calculated
 number of electron      28.0000000 magnetization      10.0000000
 keeping initial charge density in first step


--------------------------------------------------------------------------------------------------------


 Maximum index for non-local projection operator         1926
 Maximum index for augmentation-charges         1986 (set IRDMAX)


--------------------------------------------------------------------------------------------------------


 First call to EWALD:  gamma=   0.624
 Maximum number of real-space cells 3x 3x 3
 Maximum number of reciprocal cells 3x 3x 3

    FEWALD:  cpu time    0.0013: real time    0.0013


--------------------------------------- Iteration      1(   1)  ---------------------------------------


    POTLOK:  cpu time    0.0126: real time    0.0127
    SETDIJ:  cpu time    0.0069: real time    0.0069
     EDDAV:  cpu time    0.5174: real time    0.5239
 BZINTS: Fermi energy: 21.862480; 28.000000 electrons
         Band energy: -62.610844;  BLOECHL correction: -0.194252
       DOS:  cpu time    0.0337: real time    0.0338
    --------------------------------------------
      LOOP:  cpu time    0.5706: real time    0.5773

 eigenvalue-minimisations  :  3432
 total energy-change (2. order) : 0.2598175E+03  (-0.2346528E+04)
 number of electron      28.0000000 magnetization      10.0000000
 augmentation part       28.0000000 magnetization      10.0000000

 Free energy of the ion-electron system (eV)
  ---------------------------------------------------
  alpha Z        PSCENC =       218.87048721
  Ewald energy   TEWEN  =     -3616.56080017
  -Hartree energ DENC   =     -1162.86386254
  -exchange      EXHF   =         0.00000000
  -V(xc)+E(xc)   XCENC  =       147.54621443
  PAW double counting   =      3997.93860218    -4177.34792201
  entropy T*S    EENTRO =         0.00000000
  eigenvalues    EBANDS =       -62.61084368
  atomic energy  EATOM  =      4914.84561417
  Solvation  Ediel_sol  =         0.00000000
  ---------------------------------------------------
  free energy    TOTEN  =       259.81748960 eV

  energy without entropy =      259.81748960  energy(sigma->0) =      259.81748960


--------------------------------------------------------------------------------------------------------




--------------------------------------- Iteration      1(   2)  ---------------------------------------


     EDDAV:  cpu time    0.5130: real time    0.5145
 BZINTS: Fermi energy: 12.234509; 28.000000 electrons
         Band energy:-331.015864;  BLOECHL correction: -0.069236
       DOS:  cpu time    0.0335: real time    0.0336
    --------------------------------------------
      LOOP:  cpu time    0.5465: real time    0.5480

 eigenvalue-minimisations  :  3468
 total energy-change (2. order) :-0.2684050E+03  (-0.2574520E+03)
 number of electron      28.0000000 magnetization      10.0000000
 augmentation part       28.0000000 magnetization      10.0000000

 Free energy of the ion-electron system (eV)
  ---------------------------------------------------
  alpha Z        PSCENC =       218.87048721
  Ewald energy   TEWEN  =     -3616.56080017
  -Hartree energ DENC   =     -1162.86386254
  -exchange      EXHF   =         0.00000000
  -V(xc)+E(xc)   XCENC  =       147.54621443
  PAW double counting   =      3997.93860218    -4177.34792201
  entropy T*S    EENTRO =         0.00000000
  eigenvalues    EBANDS =      -331.01586381
  atomic energy  EATOM  =      4914.84561417
  Solvation  Ediel_sol  =         0.00000000
  ---------------------------------------------------
  free energy    TOTEN  =        -8.58753054 eV

  energy without entropy =       -8.58753054  energy(sigma->0) =       -8.58753054


--------------------------------------------------------------------------------------------------------




--------------------------------------- Iteration      1(   3)  ---------------------------------------


     EDDAV:  cpu time    0.5287: real time    0.5301
 BZINTS: Fermi energy: 12.037093; 28.000000 electrons
         Band energy:-338.634715;  BLOECHL correction: -0.071272
       DOS:  cpu time    0.0343: real time    0.0344
    --------------------------------------------
      LOOP:  cpu time    0.5630: real time    0.5644

 eigenvalue-minimisations  :  3588
 total energy-change (2. order) :-0.7618852E+01  (-0.7596571E+01)
 number of electron      28.0000000 magnetization      10.0000000
 augmentation part       28.0000000 magnetization      10.0000000

 Free energy of the ion-electron system (eV)
  ---------------------------------------------------
  alpha Z        PSCENC =       218.87048721
  Ewald energy   TEWEN  =     -3616.56080017
  -Hartree energ DENC   =     -1162.86386254
  -exchange      EXHF   =         0.00000000
  -V(xc)+E(xc)   XCENC  =       147.54621443
  PAW double counting   =      3997.93860218    -4177.34792201
  entropy T*S    EENTRO =         0.00000000
  eigenvalues    EBANDS =      -338.63471542
  atomic energy  EATOM  =      4914.84561417
  Solvation  Ediel_sol  =         0.00000000
  ---------------------------------------------------
  free energy    TOTEN  =       -16.20638215 eV

  energy without entropy =      -16.20638215  energy(sigma->0) =      -16.20638215


--------------------------------------------------------------------------------------------------------




--------------------------------------- Iteration      1(   4)  ---------------------------------------


     EDDAV:  cpu time    0.5880: real time    0.5900
 BZINTS: Fermi energy: 12.036516; 28.000000 electrons
         Band energy:-338.701506;  BLOECHL correction: -0.071273
       DOS:  cpu time    0.0342: real time    0.0343
    --------------------------------------------
      LOOP:  cpu time    0.6222: real time    0.6243

 eigenvalue-minimisations  :  4008
 total energy-change (2. order) :-0.6679086E-01  (-0.6679079E-01)
 number of electron      28.0000000 magnetization      10.0000000
 augmentation part       28.0000000 magnetization      10.0000000

 Free energy of the ion-electron system (eV)
  ---------------------------------------------------
  alpha Z        PSCENC =       218.87048721
  Ewald energy   TEWEN  =     -3616.56080017
  -Hartree energ DENC   =     -1162.86386254
  -exchange      EXHF   =         0.00000000
  -V(xc)+E(xc)   XCENC  =       147.54621443
  PAW double counting   =      3997.93860218    -4177.34792201
  entropy T*S    EENTRO =         0.00000000
  eigenvalues    EBANDS =      -338.70150628
  atomic energy  EATOM  =      4914.84561417
  Solvation  Ediel_sol  =         0.00000000
  ---------------------------------------------------
  free energy    TOTEN  =       -16.27317301 eV

  energy without entropy =      -16.27317301  energy(sigma->0) =      -16.27317301


--------------------------------------------------------------------------------------------------------




--------------------------------------- Iteration      1(   5)  ---------------------------------------


     EDDAV:  cpu time    0.5317: real time    0.5332
 BZINTS: Fermi energy: 12.036515; 28.000000 electrons
         Band energy:-338.702765;  BLOECHL correction: -0.071273
       DOS:  cpu time    0.0342: real time    0.0343
    CHARGE:  cpu time    0.0277: real time    0.0278
    MIXING:  cpu time    0.0006: real time    0.0007
    --------------------------------------------
      LOOP:  cpu time    0.5943: real time    0.5960

 eigenvalue-minimisations  :  3636
 total energy-change (2. order) :-0.1258830E-02  (-0.1258886E-02)
 number of electron      27.9999985 magnetization       4.3573358
 augmentation part       15.9046137 magnetization       2.8335797

 Broyden mixing:
  rms(total) = 0.24993E+01    rms(broyden)= 0.24993E+01
  rms(prec ) = 0.39514E+01
  weight for this iteration     100.00

 Free energy of the ion-electron system (eV)
  ---------------------------------------------------
  alpha Z        PSCENC =       218.87048721
  Ewald energy   TEWEN  =     -3616.56080017
  -Hartree energ DENC   =     -1162.86386254
  -exchange      EXHF   =         0.00000000
  -V(xc)+E(xc)   XCENC  =       147.54621443
  PAW double counting   =      3997.93860218    -4177.34792201
  entropy T*S    EENTRO =         0.00000000
  eigenvalues    EBANDS =      -338.70276511
  atomic energy  EATOM  =      4914.84561417
  Solvation  Ediel_sol  =         0.00000000
  ---------------------------------------------------
  free energy    TOTEN  =       -16.27443184 eV

  energy without entropy =      -16.27443184  energy(sigma->0) =      -16.27443184


--------------------------------------------------------------------------------------------------------




--------------------------------------- Iteration      1(   6)  ---------------------------------------


    POTLOK:  cpu time    0.0105: real time    0.0106
    SETDIJ:  cpu time    0.0055: real time    0.0055
     EDDAV:  cpu time    0.5032: real time    0.5044
 BZINTS: Fermi energy:  9.265837; 28.000000 electrons
         Band energy:-409.588737;  BLOECHL correction: -0.036202
       DOS:  cpu time    0.0340: real time    0.0341
    CHARGE:  cpu time    0.0222: real time    0.0222
    MIXING:  cpu time    0.0006: real time    0.0006
    --------------------------------------------
      LOOP:  cpu time    0.5758: real time    0.5774

 eigenvalue-minimisations  :  3420
 total energy-change (2. order) :-0.1844878E+00  (-0.7491771E+00)
 number of electron      27.9999984 magnetization       4.5319186
 augmentation part       17.0680235 magnetization       3.5496989

 Broyden mixing:
  rms(total) = 0.69125E+00    rms(broyden)= 0.69125E+00
  rms(prec ) = 0.86636E+00
  weight for this iteration     100.00

 eigenvalues of (default mixing * dielectric matrix)
  average eigenvalue GAMMA=   0.8370
  0.8370

 Free energy of the ion-electron system (eV)
  ---------------------------------------------------
  alpha Z        PSCENC =       218.87048721
  Ewald energy   TEWEN  =     -3616.56080017
  -Hartree energ DENC   =     -1089.08908265
  -exchange      EXHF   =         0.00000000
  -V(xc)+E(xc)   XCENC  =       140.63844117
  PAW double counting   =      4113.92255609    -4289.49739854
  entropy T*S    EENTRO =         0.00000000
  eigenvalues    EBANDS =      -409.58873688
  atomic energy  EATOM  =      4914.84561417
  Solvation  Ediel_sol  =         0.00000000
  ---------------------------------------------------
  free energy    TOTEN  =       -16.45891959 eV

  energy without entropy =      -16.45891959  energy(sigma->0) =      -16.45891959


--------------------------------------------------------------------------------------------------------




--------------------------------------- Iteration      1(   7)  ---------------------------------------


    POTLOK:  cpu time    0.0105: real time    0.0108
    SETDIJ:  cpu time    0.0053: real time    0.0053
     EDDAV:  cpu time    0.5002: real time    0.5015
 BZINTS: Fermi energy:  9.762256; 28.000000 electrons
         Band energy:-395.206170;  BLOECHL correction: -0.033727
       DOS:  cpu time    0.0331: real time    0.0331
    CHARGE:  cpu time    0.0215: real time    0.0216
    MIXING:  cpu time    0.0004: real time    0.0004
    --------------------------------------------
      LOOP:  cpu time    0.5709: real time    0.5728

 eigenvalue-minimisations  :  3408
 total energy-change (2. order) :-0.5458349E-01  (-0.6149953E-01)
 number of electron      27.9999985 magnetization       4.4436967
 augmentation part       16.7744848 magnetization       3.5266919

 Broyden mixing:
  rms(total) = 0.43081E+00    rms(broyden)= 0.43081E+00
  rms(prec ) = 0.52589E+00
  weight for this iteration     100.00

 eigenvalues of (default mixing * dielectric matrix)
  average eigenvalue GAMMA=   0.7674
  0.9881  0.5466

 Free energy of the ion-electron system (eV)
  ---------------------------------------------------
  alpha Z        PSCENC =       218.87048721
  Ewald energy   TEWEN  =     -3616.56080017
  -Hartree energ DENC   =     -1099.07763996
  -exchange      EXHF   =         0.00000000
  -V(xc)+E(xc)   XCENC  =       141.33092102
  PAW double counting   =      4219.91737450    -4400.63328971
  entropy T*S    EENTRO =         0.00000000
  eigenvalues    EBANDS =      -395.20617014
  atomic energy  EATOM  =      4914.84561417
  Solvation  Ediel_sol  =         0.00000000
  ---------------------------------------------------
  free energy    TOTEN  =       -16.51350308 eV

  energy without entropy =      -16.51350308  energy(sigma->0) =      -16.51350308


--------------------------------------------------------------------------------------------------------




--------------------------------------- Iteration      1(   8)  ---------------------------------------


    POTLOK:  cpu time    0.0103: real time    0.0104
    SETDIJ:  cpu time    0.0052: real time    0.0052
     EDDAV:  cpu time    0.5438: real time    0.5451
 BZINTS: Fermi energy:  9.688723; 28.000000 electrons
         Band energy:-397.470138;  BLOECHL correction: -0.033982
       DOS:  cpu time    0.0339: real time    0.0340
    CHARGE:  cpu time    0.0215: real time    0.0215
    MIXING:  cpu time    0.0004: real time    0.0004
    --------------------------------------------
      LOOP:  cpu time    0.6150: real time    0.6166

 eigenvalue-minimisations  :  3732
 total energy-change (2. order) :-0.9731884E-02  (-0.1516789E-02)
 number of electron      27.9999985 magnetization       4.3698728
 augmentation part       16.8105781 magnetization       3.4531139

 Broyden mixing:
  rms(total) = 0.13691E+00    rms(broyden)= 0.13691E+00
  rms(prec ) = 0.21421E+00
  weight for this iteration     100.00

 eigenvalues of (default mixing * dielectric matrix)
  average eigenvalue GAMMA=   1.0475
  1.6986  0.8570  0.5868

 Free energy of the ion-electron system (eV)
  ---------------------------------------------------
  alpha Z        PSCENC =       218.87048721
  Ewald energy   TEWEN  =     -3616.56080017
  -Hartree energ DENC   =     -1095.16254510
  -exchange      EXHF   =         0.00000000
  -V(xc)+E(xc)   XCENC  =       141.10691456
  PAW double counting   =      4267.94673820    -4450.09950570
  entropy T*S    EENTRO =         0.00000000
  eigenvalues    EBANDS =      -397.47013814
  atomic energy  EATOM  =      4914.84561417
  Solvation  Ediel_sol  =         0.00000000
  ---------------------------------------------------
  free energy    TOTEN  =       -16.52323497 eV

  energy without entropy =      -16.52323497  energy(sigma->0) =      -16.52323497


--------------------------------------------------------------------------------------------------------




--------------------------------------- Iteration      1(   9)  ---------------------------------------


    POTLOK:  cpu time    0.0103: real time    0.0105
    SETDIJ:  cpu time    0.0052: real time    0.0052
     EDDAV:  cpu time    0.5304: real time    0.5318
 BZINTS: Fermi energy:  9.610588; 28.000000 electrons
         Band energy:-399.760442;  BLOECHL correction: -0.034534
       DOS:  cpu time    0.0339: real time    0.0340
    CHARGE:  cpu time    0.0215: real time    0.0216
    MIXING:  cpu time    0.0004: real time    0.0004
    --------------------------------------------
      LOOP:  cpu time    0.6018: real time    0.6035

 eigenvalue-minimisations  :  3648
 total energy-change (2. order) : 0.8273383E-02  (-0.5277084E-03)
 number of electron      27.9999984 magnetization       4.4017122
 augmentation part       16.8467676 magnetization       3.4830484

 Broyden mixing:
  rms(total) = 0.33701E-01    rms(broyden)= 0.33701E-01
  rms(prec ) = 0.45960E-01
  weight for this iteration     100.00

 eigenvalues of (default mixing * dielectric matrix)
  average eigenvalue GAMMA=   1.1854
  2.3389  1.0620  0.6994  0.6413

 Free energy of the ion-electron system (eV)
  ---------------------------------------------------
  alpha Z        PSCENC =       218.87048721
  Ewald energy   TEWEN  =     -3616.56080017
  -Hartree energ DENC   =     -1090.25331072
  -exchange      EXHF   =         0.00000000
  -V(xc)+E(xc)   XCENC  =       140.86355302
  PAW double counting   =      4344.44280594    -4528.96286868
  entropy T*S    EENTRO =         0.00000000
  eigenvalues    EBANDS =      -399.76044236
  atomic energy  EATOM  =      4914.84561417
  Solvation  Ediel_sol  =         0.00000000
  ---------------------------------------------------
  free energy    TOTEN  =       -16.51496159 eV

  energy without entropy =      -16.51496159  energy(sigma->0) =      -16.51496159


--------------------------------------------------------------------------------------------------------




--------------------------------------- Iteration      1(  10)  ---------------------------------------


    POTLOK:  cpu time    0.0103: real time    0.0105
    SETDIJ:  cpu time    0.0052: real time    0.0052
     EDDAV:  cpu time    0.5022: real time    0.5034
 BZINTS: Fermi energy:  9.625033; 28.000000 electrons
         Band energy:-399.218806;  BLOECHL correction: -0.034692
       DOS:  cpu time    0.0330: real time    0.0332
    CHARGE:  cpu time    0.0215: real time    0.0215
    MIXING:  cpu time    0.0005: real time    0.0005
    --------------------------------------------
      LOOP:  cpu time    0.5727: real time    0.5743

 eigenvalue-minimisations  :  3432
 total energy-change (2. order) : 0.1984383E-03  (-0.2242150E-03)
 number of electron      27.9999985 magnetization       4.4064894
 augmentation part       16.8347645 magnetization       3.4850680

 Broyden mixing:
  rms(total) = 0.44167E-02    rms(broyden)= 0.44166E-02
  rms(prec ) = 0.54494E-02
  weight for this iteration     100.00

 eigenvalues of (default mixing * dielectric matrix)
  average eigenvalue GAMMA=   1.1291
  2.4316  1.0999  0.7829  0.6972  0.6338

 Free energy of the ion-electron system (eV)
  ---------------------------------------------------
  alpha Z        PSCENC =       218.87048721
  Ewald energy   TEWEN  =     -3616.56080017
  -Hartree energ DENC   =     -1089.86918406
  -exchange      EXHF   =         0.00000000
  -V(xc)+E(xc)   XCENC  =       140.87094262
  PAW double counting   =      4373.23448568    -4558.68750251
  entropy T*S    EENTRO =         0.00000000
  eigenvalues    EBANDS =      -399.21880610
  atomic energy  EATOM  =      4914.84561417
  Solvation  Ediel_sol  =         0.00000000
  ---------------------------------------------------
  free energy    TOTEN  =       -16.51476315 eV

  energy without entropy =      -16.51476315  energy(sigma->0) =      -16.51476315


--------------------------------------------------------------------------------------------------------




--------------------------------------- Iteration      1(  11)  ---------------------------------------


    POTLOK:  cpu time    0.0107: real time    0.0108
    SETDIJ:  cpu time    0.0052: real time    0.0052
     EDDAV:  cpu time    0.5266: real time    0.5278
 BZINTS: Fermi energy:  9.623465; 28.000000 electrons
         Band energy:-399.251202;  BLOECHL correction: -0.034709
       DOS:  cpu time    0.0330: real time    0.0331
    CHARGE:  cpu time    0.0216: real time    0.0216
    MIXING:  cpu time    0.0005: real time    0.0005
    --------------------------------------------
      LOOP:  cpu time    0.5976: real time    0.5990

 eigenvalue-minimisations  :  3612
 total energy-change (2. order) :-0.6006314E-04  (-0.5012935E-05)
 number of electron      27.9999985 magnetization       4.4058927
 augmentation part       16.8353211 magnetization       3.4847323

 Broyden mixing:
  rms(total) = 0.24195E-02    rms(broyden)= 0.24195E-02
  rms(prec ) = 0.32642E-02
  weight for this iteration     100.00

 eigenvalues of (default mixing * dielectric matrix)
  average eigenvalue GAMMA=   1.2959
  2.3070  2.3070  1.0749  0.6332  0.7555  0.6977

 Free energy of the ion-electron system (eV)
  ---------------------------------------------------
  alpha Z        PSCENC =       218.87048721
  Ewald energy   TEWEN  =     -3616.56080017
  -Hartree energ DENC   =     -1089.86164730
  -exchange      EXHF   =         0.00000000
  -V(xc)+E(xc)   XCENC  =       140.87326194
  PAW double counting   =      4374.44186432    -4559.87240091
  entropy T*S    EENTRO =         0.00000000
  eigenvalues    EBANDS =      -399.25120247
  atomic energy  EATOM  =      4914.84561417
  Solvation  Ediel_sol  =         0.00000000
  ---------------------------------------------------
  free energy    TOTEN  =       -16.51482321 eV

  energy without entropy =      -16.51482321  energy(sigma->0) =      -16.51482321


--------------------------------------------------------------------------------------------------------




--------------------------------------- Iteration      1(  12)  ---------------------------------------


    POTLOK:  cpu time    0.0103: real time    0.0104
    SETDIJ:  cpu time    0.0052: real time    0.0052
     EDDAV:  cpu time    0.5628: real time    0.5643
 BZINTS: Fermi energy:  9.621935; 28.000000 electrons
         Band energy:-399.285603;  BLOECHL correction: -0.034722
       DOS:  cpu time    0.0321: real time    0.0322
    CHARGE:  cpu time    0.0218: real time    0.0218
    MIXING:  cpu time    0.0005: real time    0.0005
    --------------------------------------------
      LOOP:  cpu time    0.6328: real time    0.6345

 eigenvalue-minimisations  :  3852
 total energy-change (2. order) :-0.8210759E-05  (-0.5079685E-06)
 number of electron      27.9999985 magnetization       4.4056237
 augmentation part       16.8360342 magnetization       3.4847314

 Broyden mixing:
  rms(total) = 0.95751E-03    rms(broyden)= 0.95750E-03
  rms(prec ) = 0.13584E-02
  weight for this iteration     100.00

 eigenvalues of (default mixing * dielectric matrix)
  average eigenvalue GAMMA=   1.2318
  2.3902  2.3902  1.0836  0.7899  0.7161  0.6264  0.6264

 Free energy of the ion-electron system (eV)
  ---------------------------------------------------
  alpha Z        PSCENC =       218.87048721
  Ewald energy   TEWEN  =     -3616.56080017
  -Hartree energ DENC   =     -1089.91351933
  -exchange      EXHF   =         0.00000000
  -V(xc)+E(xc)   XCENC  =       140.87595986
  PAW double counting   =      4375.49919115    -4560.84616111
  entropy T*S    EENTRO =         0.00000000
  eigenvalues    EBANDS =      -399.28560320
  atomic energy  EATOM  =      4914.84561417
  Solvation  Ediel_sol  =         0.00000000
  ---------------------------------------------------
  free energy    TOTEN  =       -16.51483142 eV

  energy without entropy =      -16.51483142  energy(sigma->0) =      -16.51483142


--------------------------------------------------------------------------------------------------------




--------------------------------------- Iteration      1(  13)  ---------------------------------------


    POTLOK:  cpu time    0.0105: real time    0.0108
    SETDIJ:  cpu time    0.0053: real time    0.0053
     EDDAV:  cpu time    0.5167: real time    0.5179
 BZINTS: Fermi energy:  9.622540; 28.000000 electrons
         Band energy:-399.273109;  BLOECHL correction: -0.034714
       DOS:  cpu time    0.0339: real time    0.0340
    CHARGE:  cpu time    0.0216: real time    0.0217
    MIXING:  cpu time    0.0005: real time    0.0005
    --------------------------------------------
      LOOP:  cpu time    0.5885: real time    0.5902

 eigenvalue-minimisations  :  3540
 total energy-change (2. order) : 0.6752414E-05  (-0.1293771E-06)
 number of electron      27.9999985 magnetization       4.4054234
 augmentation part       16.8357305 magnetization       3.4844211

 Broyden mixing:
  rms(total) = 0.25074E-03    rms(broyden)= 0.25074E-03
  rms(prec ) = 0.34283E-03
  weight for this iteration     100.00

 eigenvalues of (default mixing * dielectric matrix)
  average eigenvalue GAMMA=   1.2901
  2.5182  2.4444  1.4842  1.0644  0.8087  0.6260  0.6874  0.6874

 Free energy of the ion-electron system (eV)
  ---------------------------------------------------
  alpha Z        PSCENC =       218.87048721
  Ewald energy   TEWEN  =     -3616.56080017
  -Hartree energ DENC   =     -1089.92046305
  -exchange      EXHF   =         0.00000000
  -V(xc)+E(xc)   XCENC  =       140.87585413
  PAW double counting   =      4375.62504339    -4560.97745106
  entropy T*S    EENTRO =         0.00000000
  eigenvalues    EBANDS =      -399.27310929
  atomic energy  EATOM  =      4914.84561417
  Solvation  Ediel_sol  =         0.00000000
  ---------------------------------------------------
  free energy    TOTEN  =       -16.51482467 eV

  energy without entropy =      -16.51482467  energy(sigma->0) =      -16.51482467


--------------------------------------------------------------------------------------------------------




--------------------------------------- Iteration      1(  14)  ---------------------------------------


    POTLOK:  cpu time    0.0103: real time    0.0105
    SETDIJ:  cpu time    0.0052: real time    0.0052
     EDDAV:  cpu time    0.4294: real time    0.4306
 BZINTS: Fermi energy:  9.622784; 28.000000 electrons
         Band energy:-399.268172;  BLOECHL correction: -0.034712
       DOS:  cpu time    0.0303: real time    0.0304
    CHARGE:  cpu time    0.0214: real time    0.0215
    MIXING:  cpu time    0.0006: real time    0.0006
    --------------------------------------------
      LOOP:  cpu time    0.4972: real time    0.4986

 eigenvalue-minimisations  :  2676
 total energy-change (2. order) : 0.1577383E-05  (-0.1572554E-07)
 number of electron      27.9999985 magnetization       4.4054409
 augmentation part       16.8356142 magnetization       3.4844045

 Broyden mixing:
  rms(total) = 0.65758E-04    rms(broyden)= 0.65756E-04
  rms(prec ) = 0.86068E-04
  weight for this iteration     100.00

 eigenvalues of (default mixing * dielectric matrix)
  average eigenvalue GAMMA=   1.2120
  2.6079  2.4647  1.2909  1.0506  0.8270  0.6325  0.6633  0.6854  0.6854

 Free energy of the ion-electron system (eV)
  ---------------------------------------------------
  alpha Z        PSCENC =       218.87048721
  Ewald energy   TEWEN  =     -3616.56080017
  -Hartree energ DENC   =     -1089.92291446
  -exchange      EXHF   =         0.00000000
  -V(xc)+E(xc)   XCENC  =       140.87568683
  PAW double counting   =      4375.62633680    -4560.98106180
  entropy T*S    EENTRO =         0.00000000
  eigenvalues    EBANDS =      -399.26817168
  atomic energy  EATOM  =      4914.84561417
  Solvation  Ediel_sol  =         0.00000000
  ---------------------------------------------------
  free energy    TOTEN  =       -16.51482309 eV

  energy without entropy =      -16.51482309  energy(sigma->0) =      -16.51482309


--------------------------------------------------------------------------------------------------------




--------------------------------------- Iteration      1(  15)  ---------------------------------------


    POTLOK:  cpu time    0.0104: real time    0.0105
    SETDIJ:  cpu time    0.0052: real time    0.0052
     EDDAV:  cpu time    0.3303: real time    0.3311
 BZINTS: Fermi energy:  9.622750; 28.000000 electrons
         Band energy:-399.269087;  BLOECHL correction: -0.034712
       DOS:  cpu time    0.0339: real time    0.0339
    --------------------------------------------
      LOOP:  cpu time    0.3798: real time    0.3808

 eigenvalue-minimisations  :  1740
 total energy-change (2. order) :-0.1354056E-07  (-0.1128182E-08)
 number of electron      27.9999985 magnetization       4.4054409
 augmentation part       16.8356142 magnetization       3.4844045

 Free energy of the ion-electron system (eV)
  ---------------------------------------------------
  alpha Z        PSCENC =       218.87048721
  Ewald energy   TEWEN  =     -3616.56080017
  -Hartree energ DENC   =     -1089.92252895
  -exchange      EXHF   =         0.00000000
  -V(xc)+E(xc)   XCENC  =       140.87571904
  PAW double counting   =      4375.62160263    -4560.97583027
  entropy T*S    EENTRO =         0.00000000
  eigenvalues    EBANDS =      -399.26908678
  atomic energy  EATOM  =      4914.84561417
  Solvation  Ediel_sol  =         0.00000000
  ---------------------------------------------------
  free energy    TOTEN  =       -16.51482310 eV

  energy without entropy =      -16.51482310  energy(sigma->0) =      -16.51482310


--------------------------------------------------------------------------------------------------------




 average (electrostatic) potential at core
  the test charge radii are     0.9500
  (the norm of the test charge is              1.0000)
       1 -73.6647       2 -73.6647
 
 
 
 E-fermi :   9.6227     XC(G=0): -13.6242     alpha+bet :-17.4163


 spin component 1

 k-point     1 :       0.0500    0.0500    0.0500
  band No.  band energies     occupation 
      1     -44.5603      1.00000
      2     -44.5603      1.00000
      3     -44.5461      1.00000
      4     -44.2893      1.00000
      5     -44.2746      1.00000
      6     -44.2746      1.00000
      7       1.3982      1.00000
      8       4.9383      1.00000
      9       4.9383      1.00000
     10       7.3048      1.00000
     11       7.3048      1.00000
     12       7.4308      1.00000
     13       8.5804      1.00000
     14       8.5804      1.00000
     15       9.4948      1.00000
     16       9.6872      0.60078
     17       9.6872      0.00979
     18      19.1998      0.00000
     19      19.1998      0.00000
     20      19.4418      0.00000
     21      25.8102      0.00000
     22      25.8102      0.00000
     23      30.6974      0.00000
     24      33.3488      0.00000

 k-point     2 :       0.1500    0.0500    0.0500
  band No.  band energies     occupation 
      1     -44.5663      1.00000
      2     -44.5456      1.00000
      3     -44.5240      1.00000
      4     -44.3211      1.00000
      5     -44.2878      1.00000
      6     -44.2801      1.00000
      7       1.8018      1.00000
      8       5.1061      1.00000
      9       5.1083      1.00000
     10       7.2463      1.00000
     11       7.2946      1.00000
     12       7.5991      1.00000
     13       8.4142      1.00000
     14       8.6554      1.00000
     15       9.1041      1.00000
     16       9.3726      1.02104
     17       9.6658      0.13612
     18      17.0990      0.00000
     19      19.9187      0.00000
     20      20.0958      0.00000
     21      25.9618      0.00000
     22      27.1439      0.00000
     23      31.5526      0.00000
     24      32.1500      0.00000

 k-point     3 :       0.2500    0.0500    0.0500
  band No.  band energies     occupation 
      1     -44.5636      1.00000
      2     -44.5178      1.00000
      3     -44.4932      1.00000
      4     -44.3688      1.00000
      5     -44.3131      1.00000
      6     -44.3001      1.00000
      7       2.5674      1.00000
      8       5.3675      1.00000
      9       5.4274      1.00000
     10       7.2424      1.00000
     11       7.2874      1.00000
     12       7.8416      1.00000
     13       8.1079      1.00000
     14       8.6067      1.00000
     15       8.7947      1.00000
     16       8.8890      1.00000
     17       9.4859      1.03920
     18      14.5757      0.00000
     19      21.1879      0.00000
     20      21.3586      0.00000
     21      26.2945      0.00000
     22      27.9718      0.00000
     23      29.6288      0.00000
     24      31.2960      0.00000

 k-point     4 :       0.3500    0.0500    0.0500
  band No.  band energies     occupation 
      1     -44.5491      1.00000
      2     -44.4799      1.00000
      3     -44.4553      1.00000
      4     -44.4241      1.00000
      5     -44.3485      1.00000
      6     -44.3314      1.00000
      7       3.5894      1.00000
      8       5.5402      1.00000
      9       5.8725      1.00000
     10       7.2458      1.00000
     11       7.3213      1.00000
     12       7.7680      1.00000
     13       8.1304      1.00000
     14       8.1503      1.00000
     15       8.3929      1.00000
     16       9.0192      1.00000
     17       9.2004      1.03866
     18      12.2834      0.00000
     19      22.7946      0.00000
     20      23.0074      0.00000
     21      26.8754      0.00000
     22      27.8748      0.00000
     23      28.6105      0.00000
     24      29.1475      0.00000

 k-point     5 :       0.4500    0.0500    0.0500
  band No.  band energies     occupation 
      1     -44.5203      1.00000
      2     -44.4772      1.00000
      3     -44.4361      1.00000
      4     -44.4130      1.00000
      5     -44.3908      1.00000
      6     -44.3704      1.00000
      7       4.6412      1.00000
      8       5.3582      1.00000
      9       6.3946      1.00000
     10       6.9174      1.00000
     11       7.4991      1.00000
     12       7.7311      1.00000
     13       7.7625      1.00000
     14       7.9855      1.00000
     15       8.4991      1.00000
     16       8.8574      1.00000
     17       9.4833      0.98552
     18      10.5198      0.00000
     19      24.5325      0.00000
     20      24.9047      0.00000
     21      26.2268      0.00000
     22      26.9673      0.00000
     23      27.8212      0.00000
     24      29.2508      0.00000

 k-point     6 :       0.1500    0.1500    0.0500
  band No.  band energies     occupation 
      1     -44.5804      1.00000
      2     -44.5368      1.00000
      3     -44.4916      1.00000
      4     -44.3625      1.00000
      5     -44.2980      1.00000
      6     -44.2746      1.00000
      7       2.1897      1.00000
      8       5.2391      1.00000
      9       5.2979      1.00000
     10       7.0937      1.00000
     11       7.2374      1.00000
     12       7.8700      1.00000
     13       8.4386      1.00000
     14       8.6106      1.00000
     15       8.6247      1.00000
     16       9.1497      1.00691
     17       9.7348      0.03139
     18      17.1961      0.00000
     19      18.2811      0.00000
     20      20.6510      0.00000
     21      26.6283      0.00000
     22      28.5393      0.00000
     23      29.9220      0.00000
     24      31.9695      0.00000

 k-point     7 :       0.2500    0.1500    0.0500
  band No.  band energies     occupation 
      1     -44.5897      1.00000
      2     -44.5112      1.00000
      3     -44.4538      1.00000
      4     -44.4173      1.00000
      5     -44.3210      1.00000
      6     -44.2821      1.00000
      7       2.9161      1.00000
      8       5.4554      1.00000
      9       5.6206      1.00000
     10       6.9881      1.00000
     11       7.1824      1.00000
     12       8.1058      1.00000
     13       8.2002      1.00000
     14       8.2825      1.00000
     15       8.7217      1.00000
     16       8.7244      1.00000
     17       9.6886      0.28919
     18      14.9840      0.00000
     19      19.0122      0.00000
     20      21.7958      0.00000
     21      27.0200      0.00000
     22      27.7478      0.00000
     23      29.9239      0.00000
     24      30.6413      0.00000

 k-point     8 :       0.3500    0.1500    0.0500
  band No.  band energies     occupation 
      1     -44.5856      1.00000
      2     -44.4758      1.00000
      3     -44.4750      1.00000
      4     -44.4131      1.00000
      5     -44.3535      1.00000
      6     -44.3030      1.00000
      7       3.8582      1.00000
      8       5.5955      1.00000
      9       6.0116      1.00000
     10       6.9645      1.00000
     11       7.1189      1.00000
     12       7.6671      1.00000
     13       8.0932      1.00000
     14       8.3377      1.00000
     15       8.5643      1.00000
     16       8.9633      1.00000
     17       9.4969      0.92393
     18      12.6534      0.00000
     19      20.3762      0.00000
     20      23.3122      0.00000
     21      25.6605      0.00000
     22      27.5890      0.00000
     23      28.7792      0.00000
     24      30.9264      0.00000

 k-point     9 :       0.4500    0.1500    0.0500
  band No.  band energies     occupation 
      1     -44.5646      1.00000
      2     -44.5266      1.00000
      3     -44.4347      1.00000
      4     -44.3926      1.00000
      5     -44.3722      1.00000
      6     -44.3343      1.00000
      7       4.7819      1.00000
      8       5.4046      1.00000
      9       6.4367      1.00000
     10       6.8150      1.00000
     11       7.1497      1.00000
     12       7.3556      1.00000
     13       8.0550      1.00000
     14       8.1286      1.00000
     15       8.8894      1.00000
     16       9.2082      1.00000
     17       9.5413      0.77847
     18      10.7645      0.00000
     19      21.9650      0.00000
     20      23.7293      0.00000
     21      25.0474      0.00000
     22      26.8832      0.00000
     23      28.4946      0.00000
     24      29.8474      0.00000

 k-point    10 :       0.2500    0.2500    0.0500
  band No.  band energies     occupation 
      1     -44.6128      1.00000
      2     -44.4906      1.00000
      3     -44.4769      1.00000
      4     -44.4109      1.00000
      5     -44.3387      1.00000
      6     -44.2747      1.00000
      7       3.5390      1.00000
      8       5.5104      1.00000
      9       6.0141      1.00000
     10       6.7714      1.00000
     11       7.1537      1.00000
     12       7.5987      1.00000
     13       8.4263      1.00000
     14       8.4288      1.00000
     15       8.6230      1.00000
     16       8.6649      1.00000
     17       9.8080     -0.03393
     18      14.8632      0.00000
     19      17.4659      0.00000
     20      22.7549      0.00000
     21      25.3835      0.00000
     22      27.3662      0.00000
     23      30.0596      0.00000
     24      32.3851      0.00000

 k-point    11 :       0.3500    0.2500    0.0500
  band No.  band energies     occupation 
      1     -44.6220      1.00000
      2     -44.5351      1.00000
      3     -44.4618      1.00000
      4     -44.3694      1.00000
      5     -44.3641      1.00000
      6     -44.2819      1.00000
      7       4.2637      1.00000
      8       5.4678      1.00000
      9       6.4673      1.00000
     10       6.6639      1.00000
     11       7.1893      1.00000
     12       7.2436      1.00000
     13       8.2728      1.00000
     14       8.4046      1.00000
     15       8.8097      1.00000
     16       9.0699      1.02187
     17       9.7581      0.00397
     18      13.0484      0.00000
     19      18.1036      0.00000
     20      23.1680      0.00000
     21      24.0663      0.00000
     22      27.8481      0.00000
     23      28.7851      0.00000
     24      31.4420      0.00000

 k-point    12 :       0.4500    0.2500    0.0500
  band No.  band energies     occupation 
      1     -44.6124      1.00000
      2     -44.5825      1.00000
      3     -44.4287      1.00000
      4     -44.3950      1.00000
      5     -44.3321      1.00000
      6     -44.3020      1.00000
      7       4.8667      1.00000
      8       5.2597      1.00000
      9       6.6822      1.00000
     10       6.7709      1.00000
     11       7.0122      1.00000
     12       7.2243      1.00000
     13       8.3124      1.00000
     14       8.3954      1.00000
     15       9.1812      1.00000
     16       9.5469      0.95174
     17       9.7288      0.02975
     18      11.1095      0.00000
     19      19.4889      0.00000
     20      21.1932      0.00000
     21      25.5959      0.00000
     22      27.2069      0.00000
     23      28.6470      0.00000
     24      29.8692      0.00000

 k-point    13 :       0.3500    0.3500    0.0500
  band No.  band energies     occupation 
      1     -44.6452      1.00000
      2     -44.5896      1.00000
      3     -44.4424      1.00000
      4     -44.3796      1.00000
      5     -44.3311      1.00000
      6     -44.2748      1.00000
      7       4.6033      1.00000
      8       5.2500      1.00000
      9       6.4672      1.00000
     10       6.7900      1.00000
     11       7.0689      1.00000
     12       7.8006      1.00000
     13       8.3289      1.00000
     14       8.5819      1.00000
     15       8.7313      1.00000
     16       9.5047      0.96283
     17       9.8585     -0.00496
     18      12.6728      0.00000
     19      17.0754      0.00000
     20      20.9327      0.00000
     21      25.1103      0.00000
     22      28.2079      0.00000
     23      28.4080      0.00000
     24      30.7491      0.00000

 k-point    14 :       0.4500    0.3500    0.0500
  band No.  band energies     occupation 
      1     -44.6484      1.00000
      2     -44.6294      1.00000
      3     -44.4206      1.00000
      4     -44.3990      1.00000
      5     -44.3011      1.00000
      6     -44.2817      1.00000
      7       4.8277      1.00000
      8       5.0274      1.00000
      9       6.4158      1.00000
     10       6.5252      1.00000
     11       7.6336      1.00000
     12       8.0157      1.00000
     13       8.4771      1.00000
     14       8.6083      1.00000
     15       9.2345      1.00000
     16       9.7476      0.31697
     17      10.0492      0.00000
     18      11.2876      0.00000
     19      17.6523      0.00000
     20      19.0566      0.00000
     21      26.3162      0.00000
     22      27.4992      0.00000
     23      28.8185      0.00000
     24      29.7274      0.00000

 k-point    15 :       0.4500    0.4500    0.0500
  band No.  band energies     occupation 
      1     -44.6651      1.00000
      2     -44.6585      1.00000
      3     -44.4123      1.00000
      4     -44.4048      1.00000
      5     -44.2816      1.00000
      6     -44.2749      1.00000
      7       4.7955      1.00000
      8       4.8569      1.00000
      9       6.2865      1.00000
     10       6.3241      1.00000
     11       8.3606      1.00000
     12       8.5983      1.00000
     13       8.6194      1.00000
     14       8.7803      1.00000
     15       9.2765      1.00000
     16       9.7026      0.28325
     17      10.4353      0.00000
     18      10.9859      0.00000
     19      16.9430      0.00000
     20      17.5291      0.00000
     21      27.0345      0.00000
     22      27.4880      0.00000
     23      29.0850      0.00000
     24      29.4301      0.00000

 k-point    16 :       0.1500    0.1500    0.1500
  band No.  band energies     occupation 
      1     -44.5647      1.00000
      2     -44.5647      1.00000
      3     -44.4559      1.00000
      4     -44.4001      1.00000
      5     -44.2888      1.00000
      6     -44.2888      1.00000
      7       2.5670      1.00000
      8       5.4264      1.00000
      9       5.4264      1.00000
     10       7.0362      1.00000
     11       7.0362      1.00000
     12       8.0861      1.00000
     13       8.1861      1.00000
     14       8.5281      1.00000
     15       8.5281      1.00000
     16       9.4250      0.99979
     17       9.4250      1.11232
     18      17.8414      0.00000
     19      17.8414      0.00000
     20      19.2371      0.00000
     21      28.7874      0.00000
     22      28.7874      0.00000
     23      29.7386      0.00000
     24      29.7386      0.00000

 k-point    17 :       0.2500    0.1500    0.1500
  band No.  band energies     occupation 
      1     -44.5849      1.00000
      2     -44.5350      1.00000
      3     -44.4514      1.00000
      4     -44.4177      1.00000
      5     -44.3160      1.00000
      6     -44.2883      1.00000
      7       3.2657      1.00000
      8       5.6656      1.00000
      9       5.6998      1.00000
     10       6.9036      1.00000
     11       6.9349      1.00000
     12       7.5733      1.00000
     13       8.3824      1.00000
     14       8.5851      1.00000
     15       8.6827      1.00000
     16       8.9720      1.00000
     17       9.5064      0.95266
     18      15.4703      0.00000
     19      18.9553      0.00000
     20      19.8769      0.00000
     21      27.5257      0.00000
     22      28.5416      0.00000
     23      29.3030      0.00000
     24      30.5092      0.00000

 k-point    18 :       0.3500    0.1500    0.1500
  band No.  band energies     occupation 
      1     -44.5911      1.00000
      2     -44.5044      1.00000
      3     -44.4945      1.00000
      4     -44.3809      1.00000
      5     -44.3539      1.00000
      6     -44.2989      1.00000
      7       4.1489      1.00000
      8       5.8193      1.00000
      9       5.9788      1.00000
     10       6.7953      1.00000
     11       6.9294      1.00000
     12       7.2680      1.00000
     13       8.2261      1.00000
     14       8.5460      1.00000
     15       8.8083      1.00000
     16       9.1281      1.00000
     17       9.4068      0.92703
     18      13.1245      0.00000
     19      20.3549      0.00000
     20      21.0652      0.00000
     21      25.4925      0.00000
     22      26.4578      0.00000
     23      30.1153      0.00000
     24      31.4558      0.00000

 k-point    19 :       0.4500    0.1500    0.1500
  band No.  band energies     occupation 
      1     -44.5794      1.00000
      2     -44.5494      1.00000
      3     -44.4477      1.00000
      4     -44.3992      1.00000
      5     -44.3474      1.00000
      6     -44.3193      1.00000
      7       4.9805      1.00000
      8       5.5623      1.00000
[...]
     19      18.3223      0.00000
     20      20.7971      0.00000
     21      22.3836      0.00000
     22      24.8362      0.00000
     23      26.2509      0.00000
     24      30.1362      0.00000

 k-point    30 :       0.4500    0.3500    0.2500
  band No.  band energies     occupation 
      1     -42.0277      1.00000
      2     -42.0274      1.00000
      3     -41.8762      1.00000
      4     -41.8249      1.00000
      5     -41.7187      1.00000
      6     -41.7144      1.00000
      7       6.7329      1.00000
      8       7.0450      1.00000
      9       7.9675      1.00000
     10       7.9784      1.00000
     11       8.3646      1.00000
     12       8.4914      1.00000
     13      11.1843      0.00000
     14      11.2348      0.00000
     15      11.5152      0.00000
     16      11.5335      0.00000
     17      13.8174      0.00000
     18      14.8899      0.00000
     19      19.1262      0.00000
     20      20.5768      0.00000
     21      21.9130      0.00000
     22      23.4382      0.00000
     23      26.7662      0.00000
     24      28.2365      0.00000

 k-point    31 :       0.4500    0.4500    0.2500
  band No.  band energies     occupation 
      1     -42.0355      1.00000
      2     -42.0348      1.00000
      3     -41.8567      1.00000
      4     -41.8360      1.00000
      5     -41.7251      1.00000
      6     -41.7213      1.00000
      7       6.8530      1.00000
      8       6.9335      1.00000
      9       7.8847      1.00000
     10       7.8996      1.00000
     11       8.6614      1.00000
     12       8.7306      1.00000
     13      11.3010      0.00000
     14      11.3258      0.00000
     15      11.5266      0.00000
     16      11.5393      0.00000
     17      14.4942      0.00000
     18      15.0171      0.00000
     19      18.3897      0.00000
     20      19.0494      0.00000
     21      23.0062      0.00000
     22      24.1213      0.00000
     23      25.2333      0.00000
     24      26.3294      0.00000

 k-point    32 :       0.3500    0.3500    0.3500
  band No.  band energies     occupation 
      1     -42.0116      1.00000
      2     -41.9613      1.00000
      3     -41.9613      1.00000
      4     -41.7727      1.00000
      5     -41.7727      1.00000
      6     -41.7226      1.00000
      7       6.9265      1.00000
      8       7.5003      1.00000
      9       7.9277      1.00000
     10       7.9277      1.00000
     11       8.0743      1.00000
     12       8.0743      1.00000
     13      11.3766      0.00000
     14      11.3766      0.00000
     15      11.4154      0.00000
     16      11.4154      0.00000
     17      13.8657      0.00000
     18      17.4975      0.00000
     19      17.4975      0.00000
     20      19.8866      0.00000
     21      22.8236      0.00000
     22      22.8236      0.00000
     23      24.1463      0.00000
     24      28.0399      0.00000

 k-point    33 :       0.4500    0.3500    0.3500
  band No.  band energies     occupation 
      1     -42.0063      1.00000
      2     -41.9904      1.00000
      3     -41.8986      1.00000
      4     -41.8336      1.00000
      5     -41.7564      1.00000
      6     -41.7376      1.00000
      7       7.2799      1.00000
      8       7.3821      1.00000
      9       7.8723      1.00000
     10       7.9207      1.00000
     11       8.0468      1.00000
     12       8.2172      1.00000
     13      11.3598      0.00000
     14      11.3851      0.00000
     15      11.5030      0.00000
     16      11.5142      0.00000
     17      14.8065      0.00000
     18      16.0279      0.00000
     19      19.1309      0.00000
     20      20.4299      0.00000
     21      20.9115      0.00000
     22      21.6695      0.00000
     23      24.5510      0.00000
     24      26.0869      0.00000

 k-point    34 :       0.4500    0.4500    0.3500
  band No.  band energies     occupation 
      1     -41.9891      1.00000
      2     -41.9779      1.00000
      3     -41.8849      1.00000
      4     -41.8486      1.00000
      5     -41.7790      1.00000
      6     -41.7644      1.00000
      7       7.4284      1.00000
      8       7.4421      1.00000
      9       7.8024      1.00000
     10       7.8454      1.00000
     11       8.1731      1.00000
     12       8.2614      1.00000
     13      11.4438      0.00000
     14      11.4546      0.00000
     15      11.5335      0.00000
     16      11.5378      0.00000
     17      15.8062      0.00000
     18      16.5887      0.00000
     19      18.5410      0.00000
     20      19.5008      0.00000
     21      21.0126      0.00000
     22      22.1185      0.00000
     23      22.9696      0.00000
     24      24.1595      0.00000

 k-point    35 :       0.4500    0.4500    0.4500
  band No.  band energies     occupation 
      1     -41.9442      1.00000
      2     -41.9118      1.00000
      3     -41.9118      1.00000
      4     -41.8433      1.00000
      5     -41.8433      1.00000
      6     -41.8107      1.00000
      7       7.6626      1.00000
      8       7.8092      1.00000
      9       7.8092      1.00000
     10       7.9082      1.00000
     11       7.9534      1.00000
     12       7.9534      1.00000
     13      11.5395      0.00000
     14      11.5395      0.00000
     15      11.5425      0.00000
     16      11.5425      0.00000
     17      17.1206      0.00000
     18      18.3148      0.00000
     19      18.3148      0.00000
     20      20.0020      0.00000
     21      20.1676      0.00000
     22      20.1676      0.00000
     23      21.5183      0.00000
     24      22.3099      0.00000


--------------------------------------------------------------------------------------------------------


 soft charge-density along one line, spin component           1
         0         1         2         3         4         5         6         7         8         9
 total charge-density along one line
 
 soft charge-density along one line, spin component           2
         0         1         2         3         4         5         6         7         8         9
 total charge-density along one line
 
 pseudopotential strength for first ion, spin component:           1
-44.857  -0.000  -0.000   7.570   0.000   0.000  -0.000  -0.000
 -0.000 -44.857  -0.000   0.000   7.570   0.000  -0.000  -0.000
 -0.000  -0.000 -44.857   0.000   0.000   7.570  -0.000  -0.000
  7.570   0.000   0.000   5.638   0.000   0.000   0.000   0.000
  0.000   7.570   0.000   0.000   5.638  -0.000   0.000   0.000
  0.000   0.000   7.570   0.000  -0.000   5.638   0.000   0.000
 -0.000  -0.000  -0.000   0.000   0.000   0.000  -1.981  -0.000
 -0.000  -0.000  -0.000   0.000   0.000   0.000  -0.000  -1.981
  0.000  -0.000   0.000  -0.000   0.000  -0.000   0.000  -0.000
 -0.000  -0.000  -0.000   0.000   0.000   0.000  -0.000  -0.000
  0.000  -0.000  -0.000  -0.000   0.000  -0.000   0.000   0.000
 -0.000  -0.000  -0.000   0.000   0.000   0.000  -2.495  -0.000
 -0.000  -0.000  -0.000   0.000   0.000   0.000  -0.000  -2.495
  0.000  -0.000   0.000  -0.000   0.000  -0.000   0.000  -0.000
 -0.000  -0.000  -0.000   0.000   0.000   0.000  -0.000  -0.000
  0.000  -0.000  -0.000  -0.000   0.000   0.000   0.000   0.000
  0.000   0.000  -0.000   0.000   0.000   0.000   0.000   0.000
  0.000   0.000   0.000   0.000   0.000   0.000   0.000   0.000
 pseudopotential strength for first ion, spin component:           2
-42.886  -0.000  -0.000   6.737   0.000   0.000  -0.000  -0.000
 -0.000 -42.886  -0.000   0.000   6.737   0.000  -0.000  -0.000
 -0.000  -0.000 -42.886   0.000   0.000   6.737  -0.000  -0.000
  6.737   0.000   0.000   5.866   0.000   0.000   0.000   0.000
  0.000   6.737   0.000   0.000   5.866   0.000   0.000   0.000
  0.000   0.000   6.737   0.000   0.000   5.866   0.000   0.000
 -0.000  -0.000  -0.000   0.000   0.000   0.000  -0.455  -0.000
 -0.000  -0.000  -0.000   0.000   0.000   0.000  -0.000  -0.455
  0.000  -0.000  -0.000  -0.000   0.000  -0.000   0.000  -0.000
 -0.000  -0.000  -0.000   0.000   0.000   0.000  -0.000  -0.000
  0.000  -0.000  -0.000  -0.000   0.000  -0.000   0.000   0.000
 -0.000  -0.000  -0.000  -0.000   0.000   0.000  -0.995  -0.000
 -0.000  -0.000  -0.000   0.000   0.000   0.000  -0.000  -0.995
  0.000  -0.000  -0.000  -0.000   0.000   0.000   0.000  -0.000
 -0.000  -0.000  -0.000   0.000  -0.000   0.000  -0.000  -0.000
  0.000  -0.000  -0.000  -0.000   0.000   0.000   0.000   0.000
  0.000   0.000  -0.000   0.000   0.000  -0.000   0.000   0.000
  0.000   0.000  -0.000   0.000   0.000  -0.000   0.000   0.000
 total augmentation occupancy for first ion, spin component:           1
  1.992   0.000   0.000  -0.027   0.000   0.000   0.000   0.000   0.000   0.000   0.000   0.000   0.000   0.000   0.000   0.000
  0.000   1.992   0.000  -0.000  -0.027  -0.000   0.000   0.000   0.000   0.000   0.000   0.000   0.000   0.000   0.000   0.000
  0.000   0.000   1.992  -0.000  -0.000  -0.027   0.000   0.000  -0.000   0.000   0.000   0.000   0.000  -0.000   0.000   0.000
 -0.027   0.000   0.000   0.201   0.000   0.000   0.000   0.000   0.000   0.000   0.000   0.000   0.000   0.000   0.000   0.000
 -0.000  -0.027  -0.000   0.000   0.201  -0.000   0.000   0.000   0.000   0.000   0.000   0.000   0.000   0.000   0.000   0.000
  0.000   0.000  -0.027   0.000   0.000   0.201   0.000   0.000  -0.000   0.000   0.000   0.000   0.000   0.000   0.000   0.000
  0.000   0.000   0.000   0.000   0.000   0.000   2.169  -0.000   0.000  -0.000  -0.000  -1.222   0.000  -0.000   0.000   0.000
  0.000   0.000   0.000   0.000   0.000   0.000   0.000   2.169  -0.000  -0.000  -0.000  -0.000  -1.222  -0.000  -0.000  -0.000
  0.000   0.000   0.000   0.000   0.000   0.000   0.000  -0.000   3.408  -0.000   0.000   0.000  -0.000  -2.184  -0.000  -0.000
  0.000   0.000   0.000   0.000   0.000   0.000   0.000   0.000  -0.000   2.169   0.000   0.000   0.000  -0.000  -1.222  -0.000
  0.000   0.000   0.000   0.000  -0.000   0.000   0.000  -0.000   0.000   0.000   3.408  -0.000  -0.000   0.000   0.000  -2.184
  0.000  -0.000   0.000   0.000   0.000   0.000  -1.222   0.000   0.000  -0.000  -0.000   1.650   0.000   0.000  -0.000  -0.000
  0.000   0.000  -0.000   0.000   0.000   0.000  -0.000  -1.222   0.000  -0.000  -0.000   0.000   1.650  -0.000   0.000   0.000
  0.000   0.000   0.000   0.000   0.000   0.000  -0.000  -0.000  -2.184  -0.000   0.000   0.000   0.000   2.224   0.000   0.000
 -0.000   0.000   0.000   0.000   0.000   0.000  -0.000   0.000   0.000  -1.222   0.000  -0.000   0.000  -0.000   1.650   0.000
 -0.000   0.000   0.000   0.000   0.000   0.000   0.000  -0.000   0.000  -0.000  -2.184  -0.000   0.000  -0.000   0.000   2.224
  0.000   0.000   0.000   0.000   0.000   0.000  -0.000   0.000  -0.000  -0.000  -0.000   0.000  -0.000   0.000   0.000  -0.000
  0.000   0.000   0.000   0.000   0.000   0.000   0.000  -0.000  -0.000   0.000   0.000  -0.000  -0.000   0.000   0.000  -0.000
 total augmentation occupancy for first ion, spin component:           2
 -0.002   0.000   0.000  -0.009  -0.000  -0.000   0.000   0.000   0.000  -0.000   0.000   0.000   0.000   0.000   0.000   0.000
  0.000  -0.002   0.000  -0.000  -0.009   0.000   0.000   0.000   0.000   0.000  -0.000   0.000   0.000   0.000   0.000   0.000
  0.000   0.000  -0.002  -0.000   0.000  -0.009   0.000  -0.000  -0.000   0.000   0.000   0.000   0.000   0.000   0.000   0.000
 -0.009   0.000  -0.000  -0.020   0.000   0.000   0.000   0.000   0.000   0.000  -0.000   0.000   0.000   0.000   0.000   0.000
 -0.000  -0.009   0.000   0.000  -0.020  -0.000  -0.000   0.000   0.000   0.000  -0.000   0.000   0.000   0.000   0.000   0.000
 -0.000   0.000  -0.009   0.000   0.000  -0.020   0.000   0.000  -0.000   0.000   0.000   0.000   0.000   0.000   0.000   0.000
  0.000  -0.000   0.000   0.000   0.000   0.000   1.759   0.000  -0.000  -0.000  -0.000  -0.662   0.000   0.000  -0.000   0.000
  0.000   0.000   0.000   0.000   0.000   0.000  -0.000   1.759  -0.000  -0.000   0.000   0.000  -0.662  -0.000   0.000  -0.000
  0.000   0.000   0.000   0.000   0.000  -0.000   0.000   0.000   2.822   0.000   0.000  -0.000   0.000  -1.163  -0.000  -0.000
  0.000   0.000   0.000  -0.000   0.000   0.000  -0.000  -0.000  -0.000   1.759  -0.000   0.000   0.000  -0.000  -0.662  -0.000
  0.000   0.000   0.000   0.000  -0.000  -0.000   0.000   0.000   0.000  -0.000   2.822   0.000  -0.000  -0.000   0.000  -1.163
  0.000  -0.000   0.000   0.000   0.000   0.000  -0.662  -0.000  -0.000  -0.000   0.000  -0.006  -0.000  -0.000  -0.000  -0.000
  0.000   0.000   0.000   0.000   0.000   0.000   0.000  -0.662   0.000   0.000  -0.000  -0.000  -0.006  -0.000   0.000   0.000
  0.000   0.000  -0.000   0.000   0.000   0.000   0.000   0.000  -1.163  -0.000   0.000  -0.000  -0.000   0.239   0.000   0.000
  0.000   0.000   0.000   0.000   0.000   0.000   0.000   0.000   0.000  -0.662   0.000  -0.000   0.000  -0.000  -0.006   0.000
  0.000   0.000  -0.000  -0.000   0.000  -0.000  -0.000   0.000  -0.000  -0.000  -1.163   0.000   0.000   0.000  -0.000   0.239
 -0.000  -0.000  -0.000  -0.000  -0.000  -0.000  -0.000   0.000  -0.000  -0.000  -0.000  -0.000   0.000  -0.000   0.000   0.000
  0.000   0.000   0.000  -0.000  -0.000  -0.000   0.000  -0.000  -0.000   0.000  -0.000  -0.000   0.000   0.000  -0.000   0.000


------------------------ aborting loop because EDIFF is reached ----------------------------------------


 


 total charge     
 
# of ion       s       p       d       tot
------------------------------------------
    1        0.385   6.378   6.075  12.838
    2        0.385   6.378   6.075  12.838
--------------------------------------------------
tot          0.770  12.756  12.150  25.675
 


 magnetization (x)
 
# of ion       s       p       d       tot
------------------------------------------
    1       -0.008  -0.042   2.292   2.243
    2       -0.008  -0.042   2.292   2.243
--------------------------------------------------
tot         -0.015  -0.083   4.584   4.485
 
    CHARGE:  cpu time    0.0204: real time    0.0204
    FORLOC:  cpu time    0.0002: real time    0.0002
    FORNL :  cpu time    0.1077: real time    0.1080
    STRESS:  cpu time    0.3230: real time    0.3240
    FORCOR:  cpu time    0.0098: real time    0.0099
    FORHAR:  cpu time    0.0012: real time    0.0012
    MIXING:  cpu time    0.0005: real time    0.0005
    OFIELD:  cpu time    0.0000: real time    0.0000

  FORCE on cell =-STRESS in cart. coord.  units (eV):
  Direction    XX          YY          ZZ          XY          YZ          ZX
  --------------------------------------------------------------------------------------
  Alpha Z   218.87049   218.87049   218.87049
  Ewald   -1205.52018 -1205.52018 -1205.52018    -0.00000    -0.00000    -0.00000
  Hartree   363.30754   363.30754   363.30754    -0.00000    -0.00000    -0.00000
  E(xc)    -179.77967  -179.77967  -179.77967    -0.00000    -0.00000    -0.00000
  Local     289.65944   289.65944   289.65944     0.00000     0.00000    -0.00000
  n-local   -60.14269   -54.13148   -50.50636     2.76125    -1.55448     0.58726
  augment   285.39197   285.39197   285.39197     0.00000     0.00000    -0.00000
  Kinetic   283.96989   282.53879   281.77486     2.97426    -0.74847    -0.10166
  Fock        0.00000     0.00000     0.00000     0.00000     0.00000     0.00000
  -------------------------------------------------------------------------------------
  Total      -0.23607    -0.23607    -0.23607    -0.00000     0.00000    -0.00000
  in kB     -16.51070   -16.51070   -16.51070    -0.00000     0.00000    -0.00000
  external pressure =      -16.51 kB  Pullay stress =        0.00 kB


 VOLUME and BASIS-vectors are now :
 -----------------------------------------------------------------------------
  energy-cutoff  :      880.00
  volume of cell :       22.91
      direct lattice vectors                 reciprocal lattice vectors
     2.840052000  0.000000000  0.000000000     0.352106229  0.000000000  0.000000000
     0.000000000  2.840052000  0.000000000     0.000000000  0.352106229  0.000000000
     0.000000000  0.000000000  2.840052000     0.000000000  0.000000000  0.352106229

  length of vectors
     2.840052000  2.840052000  2.840052000     0.352106229  0.352106229  0.352106229


 FORCES acting on ions
    electron-ion (+dipol)            ewald-force                    non-local-force                 convergence-correction
 -----------------------------------------------------------------------------------------------
   -.519E-13 -.294E-13 -.653E-13   -.529E-15 -.103E-14 -.897E-14   0.000E+00 -.646E-26 0.646E-26   0.344E-13 0.113E-13 0.101E-13
   0.820E-12 0.745E-11 0.866E-11   0.472E-14 0.447E-14 0.926E-14   0.000E+00 0.000E+00 0.000E+00   0.123E-13 0.871E-14 -.110E-12
 -----------------------------------------------------------------------------------------------
   0.768E-12 0.742E-11 0.859E-11   0.419E-14 0.343E-14 0.284E-15   0.000E+00 -.646E-26 0.646E-26   0.467E-13 0.200E-13 -.998E-13
 
 
 POSITION                                       TOTAL-FORCE (eV/Angst)
 -----------------------------------------------------------------------------------
      0.00000      0.00000      0.00000         0.000000      0.000000      0.000000
      1.42003      1.42003      1.42003        -0.000000     -0.000000     -0.000000
 -----------------------------------------------------------------------------------
    total drift:                                0.000000      0.000000      0.000000


--------------------------------------------------------------------------------------------------------



  FREE ENERGIE OF THE ION-ELECTRON SYSTEM (eV)
  ---------------------------------------------------
  free  energy   TOTEN  =       -16.51482310 eV

  energy  without entropy=      -16.51482310  energy(sigma->0) =      -16.51482310
 


--------------------------------------------------------------------------------------------------------


    POTLOK:  cpu time    0.0153: real time    0.0153


--------------------------------------------------------------------------------------------------------


     LOOP+:  cpu time    9.0212: real time    9.0525
    4ORBIT:  cpu time    0.0000: real time    0.0000
 


 total charge     
 
# of ion       s       p       d       tot
------------------------------------------
    1        0.385   6.378   6.075  12.838
    2        0.385   6.378   6.075  12.838
--------------------------------------------------
tot          0.770  12.756  12.150  25.675
 


 magnetization (x)
 
# of ion       s       p       d       tot
------------------------------------------
    1       -0.008  -0.042   2.292   2.243
    2       -0.008  -0.042   2.292   2.243
--------------------------------------------------
tot         -0.015  -0.083   4.584   4.485
 
 BZINTS: Fermi energy:  9.622750; 28.000000 electrons
         Band energy:-399.269087;  BLOECHL correction: -0.034712

 total amount of memory used by VASP MPI-rank0    34249. kBytes
=======================================================================

   base      :      30000. kBytes
   nonlr-proj:        934. kBytes
   fftplans  :        477. kBytes
   grid      :       1141. kBytes
   one-center:         31. kBytes
   wavefun   :       1666. kBytes
 
  
  
 General timing and accounting informations for this job:
 ========================================================
  
                  Total CPU time used (sec):        9.822
                            User time (sec):        9.699
                          System time (sec):        0.123
                         Elapsed time (sec):        9.874
  
                   Maximum memory used (kb):       56320.
                   Average memory used (kb):           0.
  
                          Minor page faults:        13736
                          Major page faults:            0
                 Voluntary context switches:          138
