 vasp.5.4.4.18Apr17-6-g9f103f2a35 (build Apr 28 2018 00:24:27) complex          
  
 executed on             LinuxIFC date 2021.09.07  01:10:07
 running on   24 total cores
 distrk:  each k-point on   24 cores,    1 groups
 distr:  one band on NCORES_PER_BAND=   4 cores,    6 groups


--------------------------------------------------------------------------------------------------------


 INCAR:
 POTCAR:    PAW_PBE Fe_pv 02Aug2007               
 POTCAR:    PAW_PBE Fe_pv 02Aug2007               
   VRHFIN =Fe:  3pd7s1                                                          
   LEXCH  = PE                                                                  
   EATOM  =  2457.4239 eV,  180.6156 Ry                                         
                                                                                
   TITEL  = PAW_PBE Fe_pv 02Aug2007                                             
   LULTRA =        F    use ultrasoft PP ?                                      
   IUNSCR =        1    unscreen: 0-lin 1-nonlin 2-no                           
   RPACOR =    1.750    partial core radius                                     
   POMASS =   55.847; ZVAL   =   14.000    mass and valenz                      
   RCORE  =    2.200    outmost cutoff radius                                   
   RWIGS  =    2.200; RWIGS  =    1.164    wigner-seitz radius (au A)           
   ENMAX  =  293.238; ENMIN  =  219.928 eV                                      
   ICORE  =        3    local potential                                         
   LCOR   =        T    correct aug charges                                     
   LPAW   =        T    paw PP                                                  
   EAUG   =  578.342                                                            
   DEXC   =    0.000                                                            
   RMAX   =    2.249    core radius for proj-oper                               
   RAUG   =    1.300    factor for augmentation sphere                          
   RDEP   =    2.296    radius for radial grids                                 
   RDEPT  =    1.766    core radius for aug-charge                              
                                                                                
   Atomic configuration                                                         
    8 entries                                                                   
     n  l   j            E        occ.                                          
     1  0  0.50     -6993.8440   2.0000                                         
     2  0  0.50      -814.6047   2.0000                                         
     2  1  1.50      -693.3689   6.0000                                         
     3  0  0.50       -89.4732   2.0000                                         
     3  1  1.50       -55.6373   6.0000                                         
     3  2  2.50        -3.8151   7.0000                                         
     4  0  0.50        -4.2551   1.0000                                         
     4  3  2.50        -1.3606   0.0000                                         
   Description                                                                  
     l       E           TYP  RCUT    TYP  RCUT                                 
     1    -55.6372668     23  2.000                                             
     1     -5.4423304     23  2.000                                             
     2     -3.8151096     23  2.200                                             
     2     -5.1756922     23  2.200                                             
     0     -4.2550951     23  2.200                                             
     0     27.2116520     23  2.200                                             
     3     -1.3605826     23  2.200                                             
  local pseudopotential read in
  partial core-charges read in
  partial kinetic energy density read in
  atomic valenz-charges read in
  non local Contribution for L=           1  read in
    real space projection operators read in
  non local Contribution for L=           1  read in
    real space projection operators read in
  non local Contribution for L=           2  read in
    real space projection operators read in
  non local Contribution for L=           2  read in
    real space projection operators read in
  non local Contribution for L=           0  read in
    real space projection operators read in
  non local Contribution for L=           0  read in
    real space projection operators read in
    PAW grid and wavefunctions read in
 
   number of l-projection  operators is LMAX  =           6
   number of lm-projection operators is LMMAX =          18
 

 ----------------------------------------------------------------------------- 
|                                                                             |
|  ADVICE TO THIS USER RUNNING 'VASP/VAMP'   (HEAR YOUR MASTER'S VOICE ...):  |
|                                                                             |
|      You have a (more or less) 'small supercell' and for smaller cells      |
|      it is recommended  to use the reciprocal-space projection scheme!      |
|      The real space optimization is not  efficient for small cells and it   |
|      is also less accurate ...                                              |
|      Therefore set LREAL=.FALSE. in the  INCAR file                         |
|                                                                             |
 ----------------------------------------------------------------------------- 

 Optimization of the real space projectors (new method)

 maximal supplied QI-value         = 17.01
 optimisation between [QCUT,QGAM] = [ 10.88, 21.94] = [ 33.18,134.79] Ry 
 Optimized for a Real-space Cutoff    1.49 Angstroem

   l    n(q)    QCUT    max X(q) W(low)/X(q) W(high)/X(q)  e(spline) 
   1      9    10.885     4.267    0.10E-03    0.34E-04    0.18E-06
   1      9    10.885     5.750    0.15E-03    0.34E-04    0.24E-06
   2      9    10.885    53.656    0.82E-04    0.37E-04    0.15E-06
   2      9    10.885    49.521    0.84E-04    0.40E-04    0.16E-06
   0     10    10.885    31.246    0.51E-04    0.28E-04    0.10E-06
   0     10    10.885    12.201    0.35E-04    0.23E-04    0.85E-07
  PAW_PBE Fe_pv 02Aug2007               :
 energy of atom  1       EATOM=-2457.4239
 kinetic energy error for atom=    0.0126 (will be added to EATOM!!)
 
 
 POSCAR: Fe2                                     
  positions in direct lattice
  No initial velocities read in
 exchange correlation table for  LEXCH =        8
   RHO(1)=    0.500       N(1)  =     2000
   RHO(2)=  100.500       N(2)  =     4000
 


--------------------------------------------------------------------------------------------------------


 ion  position               nearest neighbor table
   1  0.000  0.000  0.000-   2 2.46   2 2.46   2 2.46   2 2.46   2 2.46   2 2.46   2 2.46   2 2.46

   2  0.500  0.500  0.500-   1 2.46   1 2.46   1 2.46   1 2.46   1 2.46   1 2.46   1 2.46   1 2.46

 
  LATTYP: Found a simple cubic cell.
 ALAT       =     2.8400520000
  
  Lattice vectors:
  
 A1 = (   2.8400520000,   0.0000000000,   0.0000000000)
 A2 = (   0.0000000000,   2.8400520000,   0.0000000000)
 A3 = (   0.0000000000,   0.0000000000,   2.8400520000)


Analysis of symmetry for initial positions (statically):
=====================================================================
 Subroutine PRICEL returns following result:
 
  LATTYP: Found a body centered cubic cell.
 ALAT       =     2.8400520000
  
  Lattice vectors:
  
 A1 = (   1.4200260000,   1.4200260000,   1.4200260000)
 A2 = (   1.4200260000,  -1.4200260000,  -1.4200260000)
 A3 = (  -1.4200260000,   1.4200260000,  -1.4200260000)
 
   2 primitive cells build up your supercell.
 

 Routine SETGRP: Setting up the symmetry group for a 
 simple cubic supercell.


 Subroutine GETGRP returns: Found 48 space group operations
 (whereof 48 operations were pure point group operations)
 out of a pool of 48 trial point group operations.


The static configuration has the point symmetry O_h .


Analysis of symmetry for dynamics (positions and initial velocities):
=====================================================================
 Subroutine PRICEL returns following result:
 
  LATTYP: Found a body centered cubic cell.
 ALAT       =     2.8400520000
  
  Lattice vectors:
  
 A1 = (   1.4200260000,   1.4200260000,   1.4200260000)
 A2 = (   1.4200260000,  -1.4200260000,  -1.4200260000)
 A3 = (  -1.4200260000,   1.4200260000,  -1.4200260000)
 
   2 primitive cells build up your supercell.
 

 Routine SETGRP: Setting up the symmetry group for a 
 simple cubic supercell.


 Subroutine GETGRP returns: Found 48 space group operations
 (whereof 48 operations were pure point group operations)
 out of a pool of 48 trial point group operations.


The dynamic configuration has the point symmetry O_h .


Analysis of structural, dynamic, and magnetic symmetry:
=====================================================================
 Subroutine PRICEL returns following result:
 
  LATTYP: Found a body centered cubic cell.
 ALAT       =     2.8400520000
  
  Lattice vectors:
  
 A1 = (   1.4200260000,   1.4200260000,   1.4200260000)
 A2 = (   1.4200260000,  -1.4200260000,  -1.4200260000)
 A3 = (  -1.4200260000,   1.4200260000,  -1.4200260000)
 
   2 primitive cells build up your supercell.
 

 Routine SETGRP: Setting up the symmetry group for a 
 simple cubic supercell.


 Subroutine GETGRP returns: Found 48 space group operations
 (whereof 48 operations were pure point group operations)
 out of a pool of 48 trial point group operations.


The magnetic configuration has the point symmetry O_h .


 Subroutine INISYM returns: Found 48 space group operations
 (whereof 48 operations are pure point group operations),
 and found     2 'primitive' translations

 
 
 KPOINTS: pymatgen with grid density = 2166 / numb

Automatic generation of k-mesh.
Space group operators:
 irot       det(A)        alpha          n_x          n_y          n_z        tau_x        tau_y        tau_z
    1     1.000000     0.000000     1.000000     0.000000     0.000000     0.000000     0.000000     0.000000
    2    -1.000000     0.000000     1.000000     0.000000     0.000000     0.000000     0.000000     0.000000
    3     1.000000   120.000000    -0.577350    -0.577350    -0.577350     0.000000     0.000000     0.000000
    4    -1.000000   120.000000    -0.577350    -0.577350    -0.577350     0.000000     0.000000     0.000000
    5     1.000000   120.000000     0.577350     0.577350     0.577350     0.000000     0.000000     0.000000
    6    -1.000000   120.000000     0.577350     0.577350     0.577350     0.000000     0.000000     0.000000
    7     1.000000    90.000000     0.000000     0.000000    -1.000000     0.000000     0.000000     0.000000
    8    -1.000000    90.000000     0.000000     0.000000    -1.000000     0.000000     0.000000     0.000000
    9     1.000000   180.000000     0.000000     0.707107     0.707107     0.000000     0.000000     0.000000
   10    -1.000000   180.000000     0.000000     0.707107     0.707107     0.000000     0.000000     0.000000
   11     1.000000    90.000000     0.000000     1.000000     0.000000     0.000000     0.000000     0.000000
   12    -1.000000    90.000000     0.000000     1.000000     0.000000     0.000000     0.000000     0.000000
   13     1.000000   180.000000     0.000000     0.000000     1.000000     0.000000     0.000000     0.000000
   14    -1.000000   180.000000     0.000000     0.000000     1.000000     0.000000     0.000000     0.000000
   15     1.000000   120.000000    -0.577350     0.577350     0.577350     0.000000     0.000000     0.000000
   16    -1.000000   120.000000    -0.577350     0.577350     0.577350     0.000000     0.000000     0.000000
   17     1.000000   120.000000    -0.577350     0.577350    -0.577350     0.000000     0.000000     0.000000
   18    -1.000000   120.000000    -0.577350     0.577350    -0.577350     0.000000     0.000000     0.000000
   19     1.000000    90.000000     0.000000     0.000000     1.000000     0.000000     0.000000     0.000000
   20    -1.000000    90.000000     0.000000     0.000000     1.000000     0.000000     0.000000     0.000000
   21     1.000000    90.000000    -1.000000     0.000000     0.000000     0.000000     0.000000     0.000000
   22    -1.000000    90.000000    -1.000000     0.000000     0.000000     0.000000     0.000000     0.000000
   23     1.000000   180.000000     0.707107     0.000000     0.707107     0.000000     0.000000     0.000000
   24    -1.000000   180.000000     0.707107     0.000000     0.707107     0.000000     0.000000     0.000000
   25     1.000000   120.000000     0.577350    -0.577350     0.577350     0.000000     0.000000     0.000000
   26    -1.000000   120.000000     0.577350    -0.577350     0.577350     0.000000     0.000000     0.000000
   27     1.000000   120.000000    -0.577350    -0.577350     0.577350     0.000000     0.000000     0.000000
   28    -1.000000   120.000000    -0.577350    -0.577350     0.577350     0.000000     0.000000     0.000000
   29     1.000000   180.000000     1.000000     0.000000     0.000000     0.000000     0.000000     0.000000
   30    -1.000000   180.000000     1.000000     0.000000     0.000000     0.000000     0.000000     0.000000
   31     1.000000    90.000000     0.000000    -1.000000     0.000000     0.000000     0.000000     0.000000
   32    -1.000000    90.000000     0.000000    -1.000000     0.000000     0.000000     0.000000     0.000000
   33     1.000000   180.000000     0.707107     0.707107     0.000000     0.000000     0.000000     0.000000
   34    -1.000000   180.000000     0.707107     0.707107     0.000000     0.000000     0.000000     0.000000
   35     1.000000    90.000000     1.000000     0.000000     0.000000     0.000000     0.000000     0.000000
   36    -1.000000    90.000000     1.000000     0.000000     0.000000     0.000000     0.000000     0.000000
   37     1.000000   120.000000     0.577350    -0.577350    -0.577350     0.000000     0.000000     0.000000
   38    -1.000000   120.000000     0.577350    -0.577350    -0.577350     0.000000     0.000000     0.000000
   39     1.000000   180.000000     0.000000     1.000000     0.000000     0.000000     0.000000     0.000000
   40    -1.000000   180.000000     0.000000     1.000000     0.000000     0.000000     0.000000     0.000000
   41     1.000000   120.000000     0.577350     0.577350    -0.577350     0.000000     0.000000     0.000000
   42    -1.000000   120.000000     0.577350     0.577350    -0.577350     0.000000     0.000000     0.000000
   43     1.000000   180.000000     0.000000    -0.707107     0.707107     0.000000     0.000000     0.000000
   44    -1.000000   180.000000     0.000000    -0.707107     0.707107     0.000000     0.000000     0.000000
   45     1.000000   180.000000     0.707107    -0.707107     0.000000     0.000000     0.000000     0.000000
   46    -1.000000   180.000000     0.707107    -0.707107     0.000000     0.000000     0.000000     0.000000
   47     1.000000   180.000000     0.707107     0.000000    -0.707107     0.000000     0.000000     0.000000
   48    -1.000000   180.000000     0.707107     0.000000    -0.707107     0.000000     0.000000     0.000000
 
 Subroutine IBZKPT returns following result:
 ===========================================
 
 Found     35 irreducible k-points:
 
 Following reciprocal coordinates:
            Coordinates               Weight
  0.050000  0.050000  0.050000      8.000000
  0.150000  0.050000  0.050000     24.000000
  0.250000  0.050000  0.050000     24.000000
  0.350000  0.050000  0.050000     24.000000
  0.450000  0.050000  0.050000     24.000000
  0.150000  0.150000  0.050000     24.000000
  0.250000  0.150000  0.050000     48.000000
  0.350000  0.150000  0.050000     48.000000
  0.450000  0.150000  0.050000     48.000000
  0.250000  0.250000  0.050000     24.000000
  0.350000  0.250000  0.050000     48.000000
  0.450000  0.250000  0.050000     48.000000
  0.350000  0.350000  0.050000     24.000000
  0.450000  0.350000  0.050000     48.000000
  0.450000  0.450000  0.050000     24.000000
  0.150000  0.150000  0.150000      8.000000
  0.250000  0.150000  0.150000     24.000000
  0.350000  0.150000  0.150000     24.000000
  0.450000  0.150000  0.150000     24.000000
  0.250000  0.250000  0.150000     24.000000
  0.350000  0.250000  0.150000     48.000000
  0.450000  0.250000  0.150000     48.000000
  0.350000  0.350000  0.150000     24.000000
  0.450000  0.350000  0.150000     48.000000
  0.450000  0.450000  0.150000     24.000000
  0.250000  0.250000  0.250000      8.000000
  0.350000  0.250000  0.250000     24.000000
  0.450000  0.250000  0.250000     24.000000
  0.350000  0.350000  0.250000     24.000000
  0.450000  0.350000  0.250000     48.000000
  0.450000  0.450000  0.250000     24.000000
  0.350000  0.350000  0.350000      8.000000
  0.450000  0.350000  0.350000     24.000000
  0.450000  0.450000  0.350000     24.000000
  0.450000  0.450000  0.450000      8.000000
 
 Following cartesian coordinates:
            Coordinates               Weight
  0.017605  0.017605  0.017605      8.000000
  0.052816  0.017605  0.017605     24.000000
  0.088027  0.017605  0.017605     24.000000
  0.123237  0.017605  0.017605     24.000000
  0.158448  0.017605  0.017605     24.000000
  0.052816  0.052816  0.017605     24.000000
  0.088027  0.052816  0.017605     48.000000
  0.123237  0.052816  0.017605     48.000000
  0.158448  0.052816  0.017605     48.000000
  0.088027  0.088027  0.017605     24.000000
  0.123237  0.088027  0.017605     48.000000
  0.158448  0.088027  0.017605     48.000000
  0.123237  0.123237  0.017605     24.000000
  0.158448  0.123237  0.017605     48.000000
  0.158448  0.158448  0.017605     24.000000
  0.052816  0.052816  0.052816      8.000000
  0.088027  0.052816  0.052816     24.000000
  0.123237  0.052816  0.052816     24.000000
  0.158448  0.052816  0.052816     24.000000
  0.088027  0.088027  0.052816     24.000000
  0.123237  0.088027  0.052816     48.000000
  0.158448  0.088027  0.052816     48.000000
  0.123237  0.123237  0.052816     24.000000
  0.158448  0.123237  0.052816     48.000000
  0.158448  0.158448  0.052816     24.000000
  0.088027  0.088027  0.088027      8.000000
  0.123237  0.088027  0.088027     24.000000
  0.158448  0.088027  0.088027     24.000000
  0.123237  0.123237  0.088027     24.000000
  0.158448  0.123237  0.088027     48.000000
  0.158448  0.158448  0.088027     24.000000
  0.123237  0.123237  0.123237      8.000000
  0.158448  0.123237  0.123237     24.000000
  0.158448  0.158448  0.123237     24.000000
  0.158448  0.158448  0.158448      8.000000
 
 TETIRR: Found    466 inequivalent tetrahedra from     6000


--------------------------------------------------------------------------------------------------------




 Dimension of arrays:
   k-points           NKPTS =     35   k-points in BZ     NKDIM =     35   number of bands    NBANDS=     24
   number of dos      NEDOS =    301   number of ions     NIONS =      2
   non local maximal  LDIM  =      6   non local SUM 2l+1 LMDIM =     18
   total plane-waves  NPLWV =   8000
   max r-space proj   IRMAX =   4912   max aug-charges    IRDMAX=  10541
   dimension x,y,z NGX =    20 NGY =   20 NGZ =   20
   dimension x,y,z NGXF=    40 NGYF=   40 NGZF=   40
   support grid    NGXF=    40 NGYF=   40 NGZF=   40
   ions per type =               2
   NGX,Y,Z   is equivalent  to a cutoff of  11.71, 11.71, 11.71 a.u.
   NGXF,Y,Z  is equivalent  to a cutoff of  23.41, 23.41, 23.41 a.u.

 SYSTEM =  unknown system                          
 POSCAR =  Fe2                                     

 Startparameter for this run:
   NWRITE =      2    write-flag & timer
   PREC   = accura    normal or accurate (medium, high low for compatibility)
   ISTART =      0    job   : 0-new  1-cont  2-samecut
   ICHARG =      2    charge: 1-file 2-atom 10-const
   ISPIN  =      2    spin polarized calculation?
   LNONCOLLINEAR =      F non collinear calculations
   LSORBIT =      F    spin-orbit coupling
   INIWAV =      1    electr: 0-lowe 1-rand  2-diag
   LASPH  =      F    aspherical Exc in radial PAW
   METAGGA=      F    non-selfconsistent MetaGGA calc.

 Electronic Relaxation 1
   ENCUT  =  460.0 eV  33.81 Ry    5.81 a.u.   4.97  4.97  4.97*2*pi/ulx,y,z
   ENINI  =  460.0     initial cutoff
   ENAUG  =  578.3 eV  augmentation charge cutoff
   NELM   =    100;   NELMIN=  2; NELMDL= -5     # of ELM steps 
   EDIFF  = 0.1E-06   stopping-criterion for ELM
   LREAL  =      T    real-space projection
   NLSPLINE    = F    spline interpolate recip. space projectors
   LCOMPAT=      F    compatible to vasp.4.4
   GGA_COMPAT  = T    GGA compatible to vasp.4.4-vasp.4.6
   LMAXPAW     = -100 max onsite density
   LMAXMIX     =    2 max onsite mixed and CHGCAR
   VOSKOWN=      0    Vosko Wilk Nusair interpolation
   ROPT   =   -0.00025
 Ionic relaxation
   EDIFFG = 0.1E-05   stopping-criterion for IOM
   NSW    =      0    number of steps for IOM
   NBLOCK =      1;   KBLOCK =      1    inner block; outer block 
   IBRION =     -1    ionic relax: 0-MD 1-quasi-New 2-CG
   NFREE  =      0    steps in history (QN), initial steepest desc. (CG)
   ISIF   =      3    stress and relaxation
   IWAVPR =     10    prediction:  0-non 1-charg 2-wave 3-comb
   ISYM   =      2    0-nonsym 1-usesym 2-fastsym
   LCORR  =      T    Harris-Foulkes like correction to forces

   POTIM  = 0.5000    time-step for ionic-motion
   TEIN   =    0.0    initial temperature
   TEBEG  =    0.0;   TEEND  =   0.0 temperature during run
   SMASS  =  -3.00    Nose mass-parameter (am)
   estimated Nose-frequenzy (Omega)   =  0.10E-29 period in steps =****** mass=  -0.184E-27a.u.
   SCALEE = 1.0000    scale energy and forces
   NPACO  =    256;   APACO  = 16.0  distance and # of slots for P.C.
   PSTRESS=    0.0 pullay stress

  Mass of Ions in am
   POMASS =  55.85
  Ionic Valenz
   ZVAL   =  14.00
  Atomic Wigner-Seitz radii
   RWIGS  =  -1.00
  virtual crystal weights 
   VCA    =   1.00
   NELECT =      28.0000    total number of electrons
   NUPDOWN=      -1.0000    fix difference up-down

 DOS related values:
   EMIN   =  10.00;   EMAX   =-10.00  energy-range for DOS
   EFERMI =   0.00
   ISMEAR =    -5;   SIGMA  =   0.05  broadening in eV -4-tet -1-fermi 0-gaus

 Electronic relaxation 2 (details)
   IALGO  =     38    algorithm
   LDIAG  =      T    sub-space diagonalisation (order eigenvalues)
   LSUBROT=      F    optimize rotation matrix (better conditioning)
   TURBO    =      0    0=normal 1=particle mesh
   IRESTART =      0    0=no restart 2=restart with 2 vectors
   NREBOOT  =      0    no. of reboots
   NMIN     =      0    reboot dimension
   EREF     =   0.00    reference energy to select bands
   IMIX   =      4    mixing-type and parameters
     AMIX     =   0.40;   BMIX     =  1.00
     AMIX_MAG =   1.60;   BMIX_MAG =  1.00
     AMIN     =   0.10
     WC   =   100.;   INIMIX=   1;  MIXPRE=   1;  MAXMIX= -45

 Intra band minimization:
   WEIMIN = 0.0000     energy-eigenvalue tresh-hold
   EBREAK =  0.10E-08  absolut break condition
   DEPER  =   0.30     relativ break condition  

   TIME   =   0.40     timestep for ELM

  volume/ion in A,a.u.               =      11.45        77.29
  Fermi-wavevector in a.u.,A,eV,Ry     =   1.750389  3.307755 41.686364  3.063861
  Thomas-Fermi vector in A             =   2.821117
 
 Write flags
   LWAVE        =      F    write WAVECAR
   LDOWNSAMPLE  =      F    k-point downsampling of WAVECAR
   LCHARG       =      F    write CHGCAR
   LVTOT        =      F    write LOCPOT, total local potential
   LVHAR        =      F    write LOCPOT, Hartree potential only
   LELF         =      F    write electronic localiz. function (ELF)
   LORBIT       =     11    0 simple, 1 ext, 2 COOP (PROOUT), +10 PAW based schemes


 Dipole corrections
   LMONO  =      F    monopole corrections only (constant potential shift)
   LDIPOL =      F    correct potential (dipole corrections)
   IDIPOL =      0    1-x, 2-y, 3-z, 4-all directions 
   EPSILON=  1.0000000 bulk dielectric constant

 Exchange correlation treatment:
   GGA     =    --    GGA type
   LEXCH   =     8    internal setting for exchange type
   VOSKOWN=      0    Vosko Wilk Nusair interpolation
   LHFCALC =     F    Hartree Fock is set to
   LHFONE  =     F    Hartree Fock one center treatment
   AEXX    =    0.0000 exact exchange contribution

 Linear response parameters
   LEPSILON=     F    determine dielectric tensor
   LRPA    =     F    only Hartree local field effects (RPA)
   LNABLA  =     F    use nabla operator in PAW spheres
   LVEL    =     F    velocity operator in full k-point grid
   LINTERFAST=   F  fast interpolation
   KINTER  =     0    interpolate to denser k-point grid
   CSHIFT  =0.1000    complex shift for real part using Kramers Kronig
   OMEGAMAX=  -1.0    maximum frequency
   DEG_THRESHOLD= 0.2000000E-02 threshold for treating states as degnerate
   RTIME   =   -0.100 relaxation time in fs
  (WPLASMAI=    0.000 imaginary part of plasma frequency in eV, 0.658/RTIME)
   DFIELD  = 0.0000000 0.0000000 0.0000000 field for delta impulse in time
 
 Orbital magnetization related:
   ORBITALMAG=     F  switch on orbital magnetization
   LCHIMAG   =     F  perturbation theory with respect to B field
   DQ        =  0.001000  dq finite difference perturbation B field
   LLRAUG    =     F  two centre corrections for induced B field



--------------------------------------------------------------------------------------------------------


 Static calculation
 charge density and potential will be updated during run
 spin polarized calculation
 Variant of blocked Davidson
 Davidson routine will perform the subspace rotation
 perform sub-space diagonalisation
    after iterative eigenvector-optimisation
 modified Broyden-mixing scheme, WC =      100.0
 initial mixing is a Kerker type mixing with AMIX =  0.4000 and BMIX =      1.0000
 Hartree-type preconditioning will be used
 using additional bands           10
 real space projection scheme for non local part
 use partial core corrections
 calculate Harris-corrections to forces 
   (improved forces if not selfconsistent)
 use gradient corrections 
 use of overlap-Matrix (Vanderbilt PP)
 Fermi weights with tetrahedron method with Bloechl corrections


--------------------------------------------------------------------------------------------------------


  energy-cutoff  :      460.00
  volume of cell :       22.91
      direct lattice vectors                 reciprocal lattice vectors
     2.840052000  0.000000000  0.000000000     0.352106229  0.000000000  0.000000000
     0.000000000  2.840052000  0.000000000     0.000000000  0.352106229  0.000000000
     0.000000000  0.000000000  2.840052000     0.000000000  0.000000000  0.352106229

  length of vectors
     2.840052000  2.840052000  2.840052000     0.352106229  0.352106229  0.352106229


 
 k-points in units of 2pi/SCALE and weight: pymatgen with grid density = 2166 / numb
   0.01760531  0.01760531  0.01760531       0.008
   0.05281593  0.01760531  0.01760531       0.024
   0.08802656  0.01760531  0.01760531       0.024
   0.12323718  0.01760531  0.01760531       0.024
   0.15844780  0.01760531  0.01760531       0.024
   0.05281593  0.05281593  0.01760531       0.024
   0.08802656  0.05281593  0.01760531       0.048
   0.12323718  0.05281593  0.01760531       0.048
   0.15844780  0.05281593  0.01760531       0.048
   0.08802656  0.08802656  0.01760531       0.024
   0.12323718  0.08802656  0.01760531       0.048
   0.15844780  0.08802656  0.01760531       0.048
   0.12323718  0.12323718  0.01760531       0.024
   0.15844780  0.12323718  0.01760531       0.048
   0.15844780  0.15844780  0.01760531       0.024
   0.05281593  0.05281593  0.05281593       0.008
   0.08802656  0.05281593  0.05281593       0.024
   0.12323718  0.05281593  0.05281593       0.024
   0.15844780  0.05281593  0.05281593       0.024
   0.08802656  0.08802656  0.05281593       0.024
   0.12323718  0.08802656  0.05281593       0.048
   0.15844780  0.08802656  0.05281593       0.048
   0.12323718  0.12323718  0.05281593       0.024
   0.15844780  0.12323718  0.05281593       0.048
   0.15844780  0.15844780  0.05281593       0.024
   0.08802656  0.08802656  0.08802656       0.008
   0.12323718  0.08802656  0.08802656       0.024
   0.15844780  0.08802656  0.08802656       0.024
   0.12323718  0.12323718  0.08802656       0.024
   0.15844780  0.12323718  0.08802656       0.048
   0.15844780  0.15844780  0.08802656       0.024
   0.12323718  0.12323718  0.12323718       0.008
   0.15844780  0.12323718  0.12323718       0.024
   0.15844780  0.15844780  0.12323718       0.024
   0.15844780  0.15844780  0.15844780       0.008
 
 k-points in reciprocal lattice and weights: pymatgen with grid density = 2166 / numb
   0.05000000  0.05000000  0.05000000       0.008
   0.15000000  0.05000000  0.05000000       0.024
   0.25000000  0.05000000  0.05000000       0.024
   0.35000000  0.05000000  0.05000000       0.024
   0.45000000  0.05000000  0.05000000       0.024
   0.15000000  0.15000000  0.05000000       0.024
   0.25000000  0.15000000  0.05000000       0.048
   0.35000000  0.15000000  0.05000000       0.048
   0.45000000  0.15000000  0.05000000       0.048
   0.25000000  0.25000000  0.05000000       0.024
   0.35000000  0.25000000  0.05000000       0.048
   0.45000000  0.25000000  0.05000000       0.048
   0.35000000  0.35000000  0.05000000       0.024
   0.45000000  0.35000000  0.05000000       0.048
   0.45000000  0.45000000  0.05000000       0.024
   0.15000000  0.15000000  0.15000000       0.008
   0.25000000  0.15000000  0.15000000       0.024
   0.35000000  0.15000000  0.15000000       0.024
   0.45000000  0.15000000  0.15000000       0.024
   0.25000000  0.25000000  0.15000000       0.024
   0.35000000  0.25000000  0.15000000       0.048
   0.45000000  0.25000000  0.15000000       0.048
   0.35000000  0.35000000  0.15000000       0.024
   0.45000000  0.35000000  0.15000000       0.048
   0.45000000  0.45000000  0.15000000       0.024
   0.25000000  0.25000000  0.25000000       0.008
   0.35000000  0.25000000  0.25000000       0.024
   0.45000000  0.25000000  0.25000000       0.024
   0.35000000  0.35000000  0.25000000       0.024
   0.45000000  0.35000000  0.25000000       0.048
   0.45000000  0.45000000  0.25000000       0.024
   0.35000000  0.35000000  0.35000000       0.008
   0.45000000  0.35000000  0.35000000       0.024
   0.45000000  0.45000000  0.35000000       0.024
   0.45000000  0.45000000  0.45000000       0.008
 
 position of ions in fractional coordinates (direct lattice) 
   0.00000000  0.00000000  0.00000000
   0.50000000  0.50000000  0.50000000
 
 position of ions in cartesian coordinates  (Angst):
   0.00000000  0.00000000  0.00000000
   1.42002600  1.42002600  1.42002600
 


--------------------------------------------------------------------------------------------------------


 k-point  1 :   0.0500 0.0500 0.0500  plane waves:     491
 k-point  2 :   0.1500 0.0500 0.0500  plane waves:     500
 k-point  3 :   0.2500 0.0500 0.0500  plane waves:     507
 k-point  4 :   0.3500 0.0500 0.0500  plane waves:     509
 k-point  5 :   0.4500 0.0500 0.0500  plane waves:     503
 k-point  6 :   0.1500 0.1500 0.0500  plane waves:     504
 k-point  7 :   0.2500 0.1500 0.0500  plane waves:     509
 k-point  8 :   0.3500 0.1500 0.0500  plane waves:     515
 k-point  9 :   0.4500 0.1500 0.0500  plane waves:     510
 k-point 10 :   0.2500 0.2500 0.0500  plane waves:     514
 k-point 11 :   0.3500 0.2500 0.0500  plane waves:     510
 k-point 12 :   0.4500 0.2500 0.0500  plane waves:     514
 k-point 13 :   0.3500 0.3500 0.0500  plane waves:     519
 k-point 14 :   0.4500 0.3500 0.0500  plane waves:     516
 k-point 15 :   0.4500 0.4500 0.0500  plane waves:     521
 k-point 16 :   0.1500 0.1500 0.1500  plane waves:     504
 k-point 17 :   0.2500 0.1500 0.1500  plane waves:     507
 k-point 18 :   0.3500 0.1500 0.1500  plane waves:     510
 k-point 19 :   0.4500 0.1500 0.1500  plane waves:     516
 k-point 20 :   0.2500 0.2500 0.1500  plane waves:     515
 k-point 21 :   0.3500 0.2500 0.1500  plane waves:     516
 k-point 22 :   0.4500 0.2500 0.1500  plane waves:     514
 k-point 23 :   0.3500 0.3500 0.1500  plane waves:     517
 k-point 24 :   0.4500 0.3500 0.1500  plane waves:     520
 k-point 25 :   0.4500 0.4500 0.1500  plane waves:     524
 k-point 26 :   0.2500 0.2500 0.2500  plane waves:     504
 k-point 27 :   0.3500 0.2500 0.2500  plane waves:     515
 k-point 28 :   0.4500 0.2500 0.2500  plane waves:     516
 k-point 29 :   0.3500 0.3500 0.2500  plane waves:     517
 k-point 30 :   0.4500 0.3500 0.2500  plane waves:     513
 k-point 31 :   0.4500 0.4500 0.2500  plane waves:     512
 k-point 32 :   0.3500 0.3500 0.3500  plane waves:     513
 k-point 33 :   0.4500 0.3500 0.3500  plane waves:     515
 k-point 34 :   0.4500 0.4500 0.3500  plane waves:     516
 k-point 35 :   0.4500 0.4500 0.4500  plane waves:     510

 maximum and minimum number of plane-waves per node :       136      115

 maximum number of plane-waves:       524
 maximum index in each direction: 
   IXMAX=    4   IYMAX=    4   IZMAX=    4
   IXMIN=   -5   IYMIN=   -5   IZMIN=   -5


 real space projection operators:
  total allocation   :       1330.03 KBytes
  max/ min on nodes  :        332.86        332.16


 parallel 3D FFT for wavefunctions:
    minimum data exchange during FFTs selected (reduces bandwidth)
 parallel 3D FFT for charge:
    minimum data exchange during FFTs selected (reduces bandwidth)


 total amount of memory used by VASP MPI-rank0    31878. kBytes
=======================================================================

   base      :      30000. kBytes
   nonlr-proj:        575. kBytes
   fftplans  :        172. kBytes
   grid      :        402. kBytes
   one-center:         31. kBytes
   wavefun   :        698. kBytes
 
     INWAV:  cpu time    0.0000: real time    0.0001
 Broyden mixing: mesh for mixing (old mesh)
   NGX =  9   NGY =  9   NGZ =  9
  (NGX  = 40   NGY  = 40   NGZ  = 40)
  gives a total of    729 points

 initial charge density was supplied:
 charge density of overlapping atoms calculated
 number of electron      28.0000000 magnetization      10.0000000
 keeping initial charge density in first step


--------------------------------------------------------------------------------------------------------


 Maximum index for non-local projection operator         1201
 Maximum index for augmentation-charges          561 (set IRDMAX)


--------------------------------------------------------------------------------------------------------


 First call to EWALD:  gamma=   0.624
 Maximum number of real-space cells 3x 3x 3
 Maximum number of reciprocal cells 3x 3x 3

    FEWALD:  cpu time    0.0013: real time    0.0013


--------------------------------------- Iteration      1(   1)  ---------------------------------------


    POTLOK:  cpu time    0.0062: real time    0.0062
    SETDIJ:  cpu time    0.0053: real time    0.0053
     EDDAV:  cpu time    0.4113: real time    0.4186
 BZINTS: Fermi energy: 19.535095; 28.000000 electrons
         Band energy:-127.299695;  BLOECHL correction: -0.151213
       DOS:  cpu time    0.0350: real time    0.0351
    --------------------------------------------
      LOOP:  cpu time    0.4578: real time    0.4653

 eigenvalue-minimisations  :  3564
 total energy-change (2. order) : 0.1951056E+03  (-0.1671495E+04)
 number of electron      28.0000000 magnetization      10.0000000
 augmentation part       28.0000000 magnetization      10.0000000

 Free energy of the ion-electron system (eV)
  ---------------------------------------------------
  alpha Z        PSCENC =       218.87048721
  Ewald energy   TEWEN  =     -3616.56080017
  -Hartree energ DENC   =     -1162.86386254
  -exchange      EXHF   =         0.00000000
  -V(xc)+E(xc)   XCENC  =       147.54620390
  PAW double counting   =      3997.93860218    -4177.34792201
  entropy T*S    EENTRO =         0.00000000
  eigenvalues    EBANDS =      -127.29969505
  atomic energy  EATOM  =      4914.82259324
  Solvation  Ediel_sol  =         0.00000000
  ---------------------------------------------------
  free energy    TOTEN  =       195.10560676 eV

  energy without entropy =      195.10560676  energy(sigma->0) =      195.10560676


--------------------------------------------------------------------------------------------------------




--------------------------------------- Iteration      1(   2)  ---------------------------------------


     EDDAV:  cpu time    0.3842: real time    0.3892
 BZINTS: Fermi energy: 12.164651; 28.000000 electrons
         Band energy:-333.250664;  BLOECHL correction: -0.071219
       DOS:  cpu time    0.0346: real time    0.0347
    --------------------------------------------
      LOOP:  cpu time    0.4188: real time    0.4239

 eigenvalue-minimisations  :  3408
 total energy-change (2. order) :-0.2059510E+03  (-0.1976654E+03)
 number of electron      28.0000000 magnetization      10.0000000
 augmentation part       28.0000000 magnetization      10.0000000

 Free energy of the ion-electron system (eV)
  ---------------------------------------------------
  alpha Z        PSCENC =       218.87048721
  Ewald energy   TEWEN  =     -3616.56080017
  -Hartree energ DENC   =     -1162.86386254
  -exchange      EXHF   =         0.00000000
  -V(xc)+E(xc)   XCENC  =       147.54620390
  PAW double counting   =      3997.93860218    -4177.34792201
  entropy T*S    EENTRO =         0.00000000
  eigenvalues    EBANDS =      -333.25066395
  atomic energy  EATOM  =      4914.82259324
  Solvation  Ediel_sol  =         0.00000000
  ---------------------------------------------------
  free energy    TOTEN  =       -10.84536214 eV

  energy without entropy =      -10.84536214  energy(sigma->0) =      -10.84536214


--------------------------------------------------------------------------------------------------------




--------------------------------------- Iteration      1(   3)  ---------------------------------------


     EDDAV:  cpu time    0.4147: real time    0.4157
 BZINTS: Fermi energy: 12.037819; 28.000000 electrons
         Band energy:-338.634654;  BLOECHL correction: -0.071289
       DOS:  cpu time    0.0334: real time    0.0334
    --------------------------------------------
      LOOP:  cpu time    0.4480: real time    0.4492

 eigenvalue-minimisations  :  3732
 total energy-change (2. order) :-0.5383990E+01  (-0.5375669E+01)
 number of electron      28.0000000 magnetization      10.0000000
 augmentation part       28.0000000 magnetization      10.0000000

 Free energy of the ion-electron system (eV)
  ---------------------------------------------------
  alpha Z        PSCENC =       218.87048721
  Ewald energy   TEWEN  =     -3616.56080017
  -Hartree energ DENC   =     -1162.86386254
  -exchange      EXHF   =         0.00000000
  -V(xc)+E(xc)   XCENC  =       147.54620390
  PAW double counting   =      3997.93860218    -4177.34792201
  entropy T*S    EENTRO =         0.00000000
  eigenvalues    EBANDS =      -338.63465383
  atomic energy  EATOM  =      4914.82259324
  Solvation  Ediel_sol  =         0.00000000
  ---------------------------------------------------
  free energy    TOTEN  =       -16.22935201 eV

  energy without entropy =      -16.22935201  energy(sigma->0) =      -16.22935201


--------------------------------------------------------------------------------------------------------




--------------------------------------- Iteration      1(   4)  ---------------------------------------


     EDDAV:  cpu time    0.4351: real time    0.4364
 BZINTS: Fermi energy: 12.037508; 28.000000 electrons
         Band energy:-338.676533;  BLOECHL correction: -0.071283
       DOS:  cpu time    0.0334: real time    0.0334
    --------------------------------------------
      LOOP:  cpu time    0.4685: real time    0.4698

 eigenvalue-minimisations  :  3876
 total energy-change (2. order) :-0.4187932E-01  (-0.4188198E-01)
 number of electron      28.0000000 magnetization      10.0000000
 augmentation part       28.0000000 magnetization      10.0000000

 Free energy of the ion-electron system (eV)
  ---------------------------------------------------
  alpha Z        PSCENC =       218.87048721
  Ewald energy   TEWEN  =     -3616.56080017
  -Hartree energ DENC   =     -1162.86386254
  -exchange      EXHF   =         0.00000000
  -V(xc)+E(xc)   XCENC  =       147.54620390
  PAW double counting   =      3997.93860218    -4177.34792201
  entropy T*S    EENTRO =         0.00000000
  eigenvalues    EBANDS =      -338.67653315
  atomic energy  EATOM  =      4914.82259324
  Solvation  Ediel_sol  =         0.00000000
  ---------------------------------------------------
  free energy    TOTEN  =       -16.27123134 eV

  energy without entropy =      -16.27123134  energy(sigma->0) =      -16.27123134


--------------------------------------------------------------------------------------------------------




--------------------------------------- Iteration      1(   5)  ---------------------------------------


     EDDAV:  cpu time    0.4160: real time    0.4176
 BZINTS: Fermi energy: 12.037507; 28.000000 electrons
         Band energy:-338.677302;  BLOECHL correction: -0.071283
       DOS:  cpu time    0.0333: real time    0.0334
    CHARGE:  cpu time    0.0109: real time    0.0109
    MIXING:  cpu time    0.0005: real time    0.0006
    --------------------------------------------
      LOOP:  cpu time    0.4607: real time    0.4626

 eigenvalue-minimisations  :  3744
 total energy-change (2. order) :-0.7688504E-03  (-0.7688610E-03)
 number of electron      28.0000047 magnetization       4.3578077
 augmentation part       15.9031597 magnetization       2.8335838

 Broyden mixing:
  rms(total) = 0.24978E+01    rms(broyden)= 0.24972E+01
  rms(prec ) = 0.39496E+01
  weight for this iteration     100.00

 Free energy of the ion-electron system (eV)
  ---------------------------------------------------
  alpha Z        PSCENC =       218.87048721
  Ewald energy   TEWEN  =     -3616.56080017
  -Hartree energ DENC   =     -1162.86386254
  -exchange      EXHF   =         0.00000000
  -V(xc)+E(xc)   XCENC  =       147.54620390
  PAW double counting   =      3997.93860218    -4177.34792201
  entropy T*S    EENTRO =         0.00000000
  eigenvalues    EBANDS =      -338.67730200
  atomic energy  EATOM  =      4914.82259324
  Solvation  Ediel_sol  =         0.00000000
  ---------------------------------------------------
  free energy    TOTEN  =       -16.27200019 eV

  energy without entropy =      -16.27200019  energy(sigma->0) =      -16.27200019


--------------------------------------------------------------------------------------------------------




--------------------------------------- Iteration      1(   6)  ---------------------------------------


    POTLOK:  cpu time    0.0044: real time    0.0045
    SETDIJ:  cpu time    0.0050: real time    0.0050
     EDDAV:  cpu time    0.3818: real time    0.3829
 BZINTS: Fermi energy:  9.266560; 28.000000 electrons
         Band energy:-409.548694;  BLOECHL correction: -0.036083
       DOS:  cpu time    0.0348: real time    0.0349
    CHARGE:  cpu time    0.0105: real time    0.0106
    MIXING:  cpu time    0.0004: real time    0.0004
    --------------------------------------------
      LOOP:  cpu time    0.4370: real time    0.4383

 eigenvalue-minimisations  :  3444
 total energy-change (2. order) :-0.1635021E+00  (-0.7496842E+00)
 number of electron      28.0000049 magnetization       4.5336919
 augmentation part       17.0649304 magnetization       3.5518470

 Broyden mixing:
  rms(total) = 0.69227E+00    rms(broyden)= 0.69066E+00
  rms(prec ) = 0.86480E+00
  weight for this iteration     100.00

 eigenvalues of (default mixing * dielectric matrix)
  average eigenvalue GAMMA=   0.8367
  0.8367

 Free energy of the ion-electron system (eV)
  ---------------------------------------------------
  alpha Z        PSCENC =       218.87048721
  Ewald energy   TEWEN  =     -3616.56080017
  -Hartree energ DENC   =     -1089.10630816
  -exchange      EXHF   =         0.00000000
  -V(xc)+E(xc)   XCENC  =       140.64903500
  PAW double counting   =      4113.62767474    -4289.18948998
  entropy T*S    EENTRO =         0.00000000
  eigenvalues    EBANDS =      -409.54869421
  atomic energy  EATOM  =      4914.82259324
  Solvation  Ediel_sol  =         0.00000000
  ---------------------------------------------------
  free energy    TOTEN  =       -16.43550233 eV

  energy without entropy =      -16.43550233  energy(sigma->0) =      -16.43550233


--------------------------------------------------------------------------------------------------------




--------------------------------------- Iteration      1(   7)  ---------------------------------------


    POTLOK:  cpu time    0.0045: real time    0.0046
    SETDIJ:  cpu time    0.0047: real time    0.0047
     EDDAV:  cpu time    0.3763: real time    0.3772
 BZINTS: Fermi energy:  9.760524; 28.000000 electrons
         Band energy:-395.231492;  BLOECHL correction: -0.033763
       DOS:  cpu time    0.0322: real time    0.0322
    CHARGE:  cpu time    0.0104: real time    0.0104
    MIXING:  cpu time    0.0003: real time    0.0003
    --------------------------------------------
      LOOP:  cpu time    0.4282: real time    0.4293

 eigenvalue-minimisations  :  3396
 total energy-change (2. order) :-0.7108036E-01  (-0.6141379E-01)
 number of electron      28.0000048 magnetization       4.4459872
 augmentation part       16.7742167 magnetization       3.5283088

 Broyden mixing:
  rms(total) = 0.43069E+00    rms(broyden)= 0.43038E+00
  rms(prec ) = 0.52304E+00
  weight for this iteration     100.00

 eigenvalues of (default mixing * dielectric matrix)
  average eigenvalue GAMMA=   0.7671
  0.9876  0.5466

 Free energy of the ion-electron system (eV)
  ---------------------------------------------------
  alpha Z        PSCENC =       218.87048721
  Ewald energy   TEWEN  =     -3616.56080017
  -Hartree energ DENC   =     -1099.04913826
  -exchange      EXHF   =         0.00000000
  -V(xc)+E(xc)   XCENC  =       141.32918725
  PAW double counting   =      4219.11199584    -4399.79941628
  entropy T*S    EENTRO =         0.00000000
  eigenvalues    EBANDS =      -395.23149152
  atomic energy  EATOM  =      4914.82259324
  Solvation  Ediel_sol  =         0.00000000
  ---------------------------------------------------
  free energy    TOTEN  =       -16.50658268 eV

  energy without entropy =      -16.50658268  energy(sigma->0) =      -16.50658268


--------------------------------------------------------------------------------------------------------




--------------------------------------- Iteration      1(   8)  ---------------------------------------


    POTLOK:  cpu time    0.0044: real time    0.0046
    SETDIJ:  cpu time    0.0046: real time    0.0046
     EDDAV:  cpu time    0.4178: real time    0.4190
 BZINTS: Fermi energy:  9.689427; 28.000000 electrons
         Band energy:-397.436526;  BLOECHL correction: -0.033993
       DOS:  cpu time    0.0339: real time    0.0340
    CHARGE:  cpu time    0.0106: real time    0.0107
    MIXING:  cpu time    0.0003: real time    0.0003
    --------------------------------------------
      LOOP:  cpu time    0.4717: real time    0.4730

 eigenvalue-minimisations  :  3732
 total energy-change (2. order) :-0.1188380E-01  (-0.1464344E-02)
 number of electron      28.0000048 magnetization       4.3708042
 augmentation part       16.8088015 magnetization       3.4531779

 Broyden mixing:
  rms(total) = 0.13655E+00    rms(broyden)= 0.13644E+00
  rms(prec ) = 0.21343E+00
  weight for this iteration     100.00

 eigenvalues of (default mixing * dielectric matrix)
  average eigenvalue GAMMA=   1.0468
  1.6976  0.8550  0.5878

 Free energy of the ion-electron system (eV)
  ---------------------------------------------------
  alpha Z        PSCENC =       218.87048721
  Ewald energy   TEWEN  =     -3616.56080017
  -Hartree energ DENC   =     -1095.19998229
  -exchange      EXHF   =         0.00000000
  -V(xc)+E(xc)   XCENC  =       141.10761578
  PAW double counting   =      4267.24434838    -4449.36620227
  entropy T*S    EENTRO =         0.00000000
  eigenvalues    EBANDS =      -397.43652637
  atomic energy  EATOM  =      4914.82259324
  Solvation  Ediel_sol  =         0.00000000
  ---------------------------------------------------
  free energy    TOTEN  =       -16.51846648 eV

  energy without entropy =      -16.51846648  energy(sigma->0) =      -16.51846648


--------------------------------------------------------------------------------------------------------




--------------------------------------- Iteration      1(   9)  ---------------------------------------


    POTLOK:  cpu time    0.0045: real time    0.0050
    SETDIJ:  cpu time    0.0049: real time    0.0049
     EDDAV:  cpu time    0.3929: real time    0.3939
 BZINTS: Fermi energy:  9.612167; 28.000000 electrons
         Band energy:-399.711764;  BLOECHL correction: -0.034513
       DOS:  cpu time    0.0339: real time    0.0340
    CHARGE:  cpu time    0.0105: real time    0.0105
    MIXING:  cpu time    0.0003: real time    0.0003
    --------------------------------------------
      LOOP:  cpu time    0.4470: real time    0.4485

 eigenvalue-minimisations  :  3552
 total energy-change (2. order) : 0.7409950E-02  (-0.5262171E-03)
 number of electron      28.0000048 magnetization       4.4018486
 augmentation part       16.8443805 magnetization       3.4825213

 Broyden mixing:
  rms(total) = 0.33547E-01    rms(broyden)= 0.33479E-01
  rms(prec ) = 0.45301E-01
  weight for this iteration     100.00

 eigenvalues of (default mixing * dielectric matrix)
  average eigenvalue GAMMA=   1.1832
  2.3321  1.0605  0.6944  0.6458

 Free energy of the ion-electron system (eV)
  ---------------------------------------------------
  alpha Z        PSCENC =       218.87048721
  Ewald energy   TEWEN  =     -3616.56080017
  -Hartree energ DENC   =     -1090.32682614
  -exchange      EXHF   =         0.00000000
  -V(xc)+E(xc)   XCENC  =       140.86528049
  PAW double counting   =      4343.61871802    -4528.08874542
  entropy T*S    EENTRO =         0.00000000
  eigenvalues    EBANDS =      -399.71176376
  atomic energy  EATOM  =      4914.82259324
  Solvation  Ediel_sol  =         0.00000000
  ---------------------------------------------------
  free energy    TOTEN  =       -16.51105653 eV

  energy without entropy =      -16.51105653  energy(sigma->0) =      -16.51105653


--------------------------------------------------------------------------------------------------------




--------------------------------------- Iteration      1(  10)  ---------------------------------------


    POTLOK:  cpu time    0.0044: real time    0.0045
    SETDIJ:  cpu time    0.0046: real time    0.0046
     EDDAV:  cpu time    0.3827: real time    0.3838
 BZINTS: Fermi energy:  9.625388; 28.000000 electrons
         Band energy:-399.202462;  BLOECHL correction: -0.034682
       DOS:  cpu time    0.0339: real time    0.0340
    CHARGE:  cpu time    0.0105: real time    0.0105
    MIXING:  cpu time    0.0003: real time    0.0003
    --------------------------------------------
      LOOP:  cpu time    0.4365: real time    0.4378

 eigenvalue-minimisations  :  3456
 total energy-change (2. order) : 0.5160712E-04  (-0.2165640E-03)
 number of electron      28.0000048 magnetization       4.4069371
 augmentation part       16.8329891 magnetization       3.4850288

 Broyden mixing:
  rms(total) = 0.43732E-02    rms(broyden)= 0.43701E-02
  rms(prec ) = 0.54653E-02
  weight for this iteration     100.00

 eigenvalues of (default mixing * dielectric matrix)
  average eigenvalue GAMMA=   1.1316
  2.4344  1.1033  0.7816  0.7061  0.6325

 Free energy of the ion-electron system (eV)
  ---------------------------------------------------
  alpha Z        PSCENC =       218.87048721
  Ewald energy   TEWEN  =     -3616.56080017
  -Hartree energ DENC   =     -1089.90378824
  -exchange      EXHF   =         0.00000000
  -V(xc)+E(xc)   XCENC  =       140.87125495
  PAW double counting   =      4372.73118755    -4558.13947757
  entropy T*S    EENTRO =         0.00000000
  eigenvalues    EBANDS =      -399.20246190
  atomic energy  EATOM  =      4914.82259324
  Solvation  Ediel_sol  =         0.00000000
  ---------------------------------------------------
  free energy    TOTEN  =       -16.51100493 eV

  energy without entropy =      -16.51100493  energy(sigma->0) =      -16.51100493


--------------------------------------------------------------------------------------------------------




--------------------------------------- Iteration      1(  11)  ---------------------------------------


    POTLOK:  cpu time    0.0044: real time    0.0045
    SETDIJ:  cpu time    0.0046: real time    0.0047
     EDDAV:  cpu time    0.4035: real time    0.4045
 BZINTS: Fermi energy:  9.623871; 28.000000 electrons
         Band energy:-399.233327;  BLOECHL correction: -0.034697
       DOS:  cpu time    0.0330: real time    0.0331
    CHARGE:  cpu time    0.0104: real time    0.0104
    MIXING:  cpu time    0.0003: real time    0.0003
    --------------------------------------------
      LOOP:  cpu time    0.4563: real time    0.4574

 eigenvalue-minimisations  :  3624
 total energy-change (2. order) :-0.6839283E-04  (-0.5772677E-05)
 number of electron      28.0000048 magnetization       4.4062457
 augmentation part       16.8335047 magnetization       3.4846083

 Broyden mixing:
  rms(total) = 0.24653E-02    rms(broyden)= 0.24633E-02
  rms(prec ) = 0.33282E-02
  weight for this iteration     100.00

 eigenvalues of (default mixing * dielectric matrix)
  average eigenvalue GAMMA=   1.2922
  2.2932  2.2932  1.0768  0.6321  0.7514  0.7067

 Free energy of the ion-electron system (eV)
  ---------------------------------------------------
  alpha Z        PSCENC =       218.87048721
  Ewald energy   TEWEN  =     -3616.56080017
  -Hartree energ DENC   =     -1089.89443007
  -exchange      EXHF   =         0.00000000
  -V(xc)+E(xc)   XCENC  =       140.87357989
  PAW double counting   =      4374.02817415    -4559.41735028
  entropy T*S    EENTRO =         0.00000000
  eigenvalues    EBANDS =      -399.23332729
  atomic energy  EATOM  =      4914.82259324
  Solvation  Ediel_sol  =         0.00000000
  ---------------------------------------------------
  free energy    TOTEN  =       -16.51107332 eV

  energy without entropy =      -16.51107332  energy(sigma->0) =      -16.51107332


--------------------------------------------------------------------------------------------------------




--------------------------------------- Iteration      1(  12)  ---------------------------------------


    POTLOK:  cpu time    0.0044: real time    0.0045
    SETDIJ:  cpu time    0.0046: real time    0.0047
     EDDAV:  cpu time    0.4142: real time    0.4151
 BZINTS: Fermi energy:  9.622380; 28.000000 electrons
         Band energy:-399.266676;  BLOECHL correction: -0.034709
       DOS:  cpu time    0.0329: real time    0.0332
    CHARGE:  cpu time    0.0102: real time    0.0103
    MIXING:  cpu time    0.0003: real time    0.0003
    --------------------------------------------
      LOOP:  cpu time    0.4668: real time    0.4681

 eigenvalue-minimisations  :  3756
 total energy-change (2. order) :-0.7254968E-05  (-0.4672450E-06)
 number of electron      28.0000048 magnetization       4.4059306
 augmentation part       16.8341989 magnetization       3.4845868

 Broyden mixing:
  rms(total) = 0.95282E-03    rms(broyden)= 0.95240E-03
  rms(prec ) = 0.13375E-02
  weight for this iteration     100.00

 eigenvalues of (default mixing * dielectric matrix)
  average eigenvalue GAMMA=   1.2307
  2.4058  2.2809  1.0875  0.8147  0.7371  0.6444  0.6444

 Free energy of the ion-electron system (eV)
  ---------------------------------------------------
  alpha Z        PSCENC =       218.87048721
  Ewald energy   TEWEN  =     -3616.56080017
  -Hartree energ DENC   =     -1089.94705639
  -exchange      EXHF   =         0.00000000
  -V(xc)+E(xc)   XCENC  =       140.87639185
  PAW double counting   =      4374.98194106    -4560.28796104
  entropy T*S    EENTRO =         0.00000000
  eigenvalues    EBANDS =      -399.26667633
  atomic energy  EATOM  =      4914.82259324
  Solvation  Ediel_sol  =         0.00000000
  ---------------------------------------------------
  free energy    TOTEN  =       -16.51108057 eV

  energy without entropy =      -16.51108057  energy(sigma->0) =      -16.51108057


--------------------------------------------------------------------------------------------------------




--------------------------------------- Iteration      1(  13)  ---------------------------------------


    POTLOK:  cpu time    0.0045: real time    0.0046
    SETDIJ:  cpu time    0.0046: real time    0.0046
     EDDAV:  cpu time    0.3907: real time    0.3916
 BZINTS: Fermi energy:  9.623095; 28.000000 electrons
         Band energy:-399.252086;  BLOECHL correction: -0.034700
       DOS:  cpu time    0.0338: real time    0.0339
    CHARGE:  cpu time    0.0105: real time    0.0105
    MIXING:  cpu time    0.0004: real time    0.0004
    --------------------------------------------
      LOOP:  cpu time    0.4445: real time    0.4456

 eigenvalue-minimisations  :  3528
 total energy-change (2. order) : 0.7833253E-05  (-0.1639659E-06)
 number of electron      28.0000048 magnetization       4.4057649
 augmentation part       16.8338470 magnetization       3.4842796

 Broyden mixing:
  rms(total) = 0.15328E-03    rms(broyden)= 0.15155E-03
  rms(prec ) = 0.18578E-03
  weight for this iteration     100.00

 eigenvalues of (default mixing * dielectric matrix)
  average eigenvalue GAMMA=   1.2903
  2.5308  2.4437  1.4800  1.0654  0.7985  0.6261  0.6888  0.6888

 Free energy of the ion-electron system (eV)
  ---------------------------------------------------
  alpha Z        PSCENC =       218.87048721
  Ewald energy   TEWEN  =     -3616.56080017
  -Hartree energ DENC   =     -1089.95473268
  -exchange      EXHF   =         0.00000000
  -V(xc)+E(xc)   XCENC  =       140.87617304
  PAW double counting   =      4375.10713063    -4560.41983784
  entropy T*S    EENTRO =         0.00000000
  eigenvalues    EBANDS =      -399.25208617
  atomic energy  EATOM  =      4914.82259324
  Solvation  Ediel_sol  =         0.00000000
  ---------------------------------------------------
  free energy    TOTEN  =       -16.51107274 eV

  energy without entropy =      -16.51107274  energy(sigma->0) =      -16.51107274


--------------------------------------------------------------------------------------------------------




--------------------------------------- Iteration      1(  14)  ---------------------------------------


    POTLOK:  cpu time    0.0044: real time    0.0045
    SETDIJ:  cpu time    0.0046: real time    0.0046
     EDDAV:  cpu time    0.3318: real time    0.3326
 BZINTS: Fermi energy:  9.623218; 28.000000 electrons
         Band energy:-399.249772;  BLOECHL correction: -0.034699
       DOS:  cpu time    0.0321: real time    0.0321
    CHARGE:  cpu time    0.0104: real time    0.0104
    MIXING:  cpu time    0.0004: real time    0.0004
    --------------------------------------------
      LOOP:  cpu time    0.3837: real time    0.3847

 eigenvalue-minimisations  :  2736
 total energy-change (2. order) : 0.4224039E-06  (-0.9483749E-08)
 number of electron      28.0000048 magnetization       4.4057911
 augmentation part       16.8337897 magnetization       3.4842932

 Broyden mixing:
  rms(total) = 0.69315E-04    rms(broyden)= 0.67724E-04
  rms(prec ) = 0.89815E-04
  weight for this iteration     100.00

 eigenvalues of (default mixing * dielectric matrix)
  average eigenvalue GAMMA=   1.2108
  2.6188  2.4610  1.2883  1.0503  0.8236  0.6871  0.6871  0.6405  0.6405

 Free energy of the ion-electron system (eV)
  ---------------------------------------------------
  alpha Z        PSCENC =       218.87048721
  Ewald energy   TEWEN  =     -3616.56080017
  -Hartree energ DENC   =     -1089.95673878
  -exchange      EXHF   =         0.00000000
  -V(xc)+E(xc)   XCENC  =       140.87606293
  PAW double counting   =      4375.10220285    -4560.41510727
  entropy T*S    EENTRO =         0.00000000
  eigenvalues    EBANDS =      -399.24977233
  atomic energy  EATOM  =      4914.82259324
  Solvation  Ediel_sol  =         0.00000000
  ---------------------------------------------------
  free energy    TOTEN  =       -16.51107232 eV

  energy without entropy =      -16.51107232  energy(sigma->0) =      -16.51107232


--------------------------------------------------------------------------------------------------------




--------------------------------------- Iteration      1(  15)  ---------------------------------------


    POTLOK:  cpu time    0.0045: real time    0.0046
    SETDIJ:  cpu time    0.0046: real time    0.0046
     EDDAV:  cpu time    0.2468: real time    0.2475
 BZINTS: Fermi energy:  9.623176; 28.000000 electrons
         Band energy:-399.250831;  BLOECHL correction: -0.034699
       DOS:  cpu time    0.0312: real time    0.0313
    CHARGE:  cpu time    0.0103: real time    0.0104
    MIXING:  cpu time    0.0004: real time    0.0004
    --------------------------------------------
      LOOP:  cpu time    0.2977: real time    0.2987

 eigenvalue-minimisations  :  1704
 total energy-change (2. order) :-0.1453564E-06  (-0.8862911E-09)
 number of electron      28.0000048 magnetization       4.4057501
 augmentation part       16.8338129 magnetization       3.4842617

 Broyden mixing:
  rms(total) = 0.26627E-04    rms(broyden)= 0.26478E-04
  rms(prec ) = 0.31130E-04
  weight for this iteration     100.00

 eigenvalues of (default mixing * dielectric matrix)
  average eigenvalue GAMMA=   1.2018
  2.6398  2.4757  1.2609  1.0677  1.0677  0.8337  0.6996  0.6996  0.6297  0.6434

 Free energy of the ion-electron system (eV)
  ---------------------------------------------------
  alpha Z        PSCENC =       218.87048721
  Ewald energy   TEWEN  =     -3616.56080017
  -Hartree energ DENC   =     -1089.95613622
  -exchange      EXHF   =         0.00000000
  -V(xc)+E(xc)   XCENC  =       140.87608937
  PAW double counting   =      4375.09814386    -4560.41061924
  entropy T*S    EENTRO =         0.00000000
  eigenvalues    EBANDS =      -399.25083051
  atomic energy  EATOM  =      4914.82259324
  Solvation  Ediel_sol  =         0.00000000
  ---------------------------------------------------
  free energy    TOTEN  =       -16.51107246 eV

  energy without entropy =      -16.51107246  energy(sigma->0) =      -16.51107246


--------------------------------------------------------------------------------------------------------




--------------------------------------- Iteration      1(  16)  ---------------------------------------


    POTLOK:  cpu time    0.0044: real time    0.0045
    SETDIJ:  cpu time    0.0046: real time    0.0046
     EDDAV:  cpu time    0.2486: real time    0.2494
 BZINTS: Fermi energy:  9.623188; 28.000000 electrons
         Band energy:-399.250707;  BLOECHL correction: -0.034699
       DOS:  cpu time    0.0330: real time    0.0331
    CHARGE:  cpu time    0.0134: real time    0.0134
    MIXING:  cpu time    0.0005: real time    0.0005
    --------------------------------------------
      LOOP:  cpu time    0.3045: real time    0.3055

 eigenvalue-minimisations  :  1680
 total energy-change (2. order) : 0.2298557E-06  (-0.8781848E-10)
 number of electron      28.0000048 magnetization       4.4057663
 augmentation part       16.8338096 magnetization       3.4842782

 Broyden mixing:
  rms(total) = 0.11777E-04    rms(broyden)= 0.11681E-04
  rms(prec ) = 0.12692E-04
  weight for this iteration     100.00

 eigenvalues of (default mixing * dielectric matrix)
  average eigenvalue GAMMA=   1.2573
  2.6647  2.4613  2.0275  1.3145  1.0512  0.8002  0.8002  0.7204  0.7204  0.6256
  0.6440

 Free energy of the ion-electron system (eV)
  ---------------------------------------------------
  alpha Z        PSCENC =       218.87048721
  Ewald energy   TEWEN  =     -3616.56080017
  -Hartree energ DENC   =     -1089.95615620
  -exchange      EXHF   =         0.00000000
  -V(xc)+E(xc)   XCENC  =       140.87606253
  PAW double counting   =      4375.07983845    -4560.39239029
  entropy T*S    EENTRO =         0.00000000
  eigenvalues    EBANDS =      -399.25070700
  atomic energy  EATOM  =      4914.82259324
  Solvation  Ediel_sol  =         0.00000000
  ---------------------------------------------------
  free energy    TOTEN  =       -16.51107223 eV

  energy without entropy =      -16.51107223  energy(sigma->0) =      -16.51107223


--------------------------------------------------------------------------------------------------------




--------------------------------------- Iteration      1(  17)  ---------------------------------------


    POTLOK:  cpu time    0.0049: real time    0.0052
    SETDIJ:  cpu time    0.0049: real time    0.0049
     EDDAV:  cpu time    0.2454: real time    0.2460
 BZINTS: Fermi energy:  9.623190; 28.000000 electrons
         Band energy:-399.250642;  BLOECHL correction: -0.034699
       DOS:  cpu time    0.0330: real time    0.0330
    CHARGE:  cpu time    0.0104: real time    0.0104
    MIXING:  cpu time    0.0005: real time    0.0005
    --------------------------------------------
      LOOP:  cpu time    0.2990: real time    0.3000

 eigenvalue-minimisations  :  1680
 total energy-change (2. order) :-0.1209874E-06  (-0.1951044E-10)
 number of electron      28.0000048 magnetization       4.4057657
 augmentation part       16.8338089 magnetization       3.4842769

 Broyden mixing:
  rms(total) = 0.30748E-05    rms(broyden)= 0.30538E-05
  rms(prec ) = 0.35385E-05
  weight for this iteration     100.00

 eigenvalues of (default mixing * dielectric matrix)
  average eigenvalue GAMMA=   1.2684
  2.7167  2.5425  2.5425  1.2532  1.0115  1.0115  0.8184  0.7015  0.7015  0.6656
  0.6224  0.6339

 Free energy of the ion-electron system (eV)
  ---------------------------------------------------
  alpha Z        PSCENC =       218.87048721
  Ewald energy   TEWEN  =     -3616.56080017
  -Hartree energ DENC   =     -1089.95581735
  -exchange      EXHF   =         0.00000000
  -V(xc)+E(xc)   XCENC  =       140.87605517
  PAW double counting   =      4375.06745648    -4560.38040448
  entropy T*S    EENTRO =         0.00000000
  eigenvalues    EBANDS =      -399.25064246
  atomic energy  EATOM  =      4914.82259324
  Solvation  Ediel_sol  =         0.00000000
  ---------------------------------------------------
  free energy    TOTEN  =       -16.51107235 eV

  energy without entropy =      -16.51107235  energy(sigma->0) =      -16.51107235


--------------------------------------------------------------------------------------------------------




--------------------------------------- Iteration      1(  18)  ---------------------------------------


    POTLOK:  cpu time    0.0045: real time    0.0047
    SETDIJ:  cpu time    0.0046: real time    0.0046
     EDDAV:  cpu time    0.2451: real time    0.2458
 BZINTS: Fermi energy:  9.623192; 28.000000 electrons
         Band energy:-399.250593;  BLOECHL correction: -0.034699
       DOS:  cpu time    0.0338: real time    0.0339
    --------------------------------------------
      LOOP:  cpu time    0.2881: real time    0.2891

 eigenvalue-minimisations  :  1680
 total energy-change (2. order) : 0.3045898E-08  (-0.2394529E-11)
 number of electron      28.0000048 magnetization       4.4057657
 augmentation part       16.8338089 magnetization       3.4842769

 Free energy of the ion-electron system (eV)
  ---------------------------------------------------
  alpha Z        PSCENC =       218.87048721
  Ewald energy   TEWEN  =     -3616.56080017
  -Hartree energ DENC   =     -1089.95583597
  -exchange      EXHF   =         0.00000000
  -V(xc)+E(xc)   XCENC  =       140.87605430
  PAW double counting   =      4375.06583741    -4560.37881534
  entropy T*S    EENTRO =         0.00000000
  eigenvalues    EBANDS =      -399.25059302
  atomic energy  EATOM  =      4914.82259324
  Solvation  Ediel_sol  =         0.00000000
  ---------------------------------------------------
  free energy    TOTEN  =       -16.51107235 eV

  energy without entropy =      -16.51107235  energy(sigma->0) =      -16.51107235


--------------------------------------------------------------------------------------------------------




 average (electrostatic) potential at core
  the test charge radii are     0.9500
  (the norm of the test charge is              1.0000)
       1 -73.6639       2 -73.6639
 
 
 
 E-fermi :   9.6232     XC(G=0): -13.6245     alpha+bet :-17.4163


 spin component 1

 k-point     1 :       0.0500    0.0500    0.0500
  band No.  band energies     occupation 
      1     -44.5596      1.00000
      2     -44.5596      1.00000
      3     -44.5455      1.00000
      4     -44.2881      1.00000
      5     -44.2736      1.00000
      6     -44.2736      1.00000
      7       1.3970      1.00000
      8       4.9394      1.00000
      9       4.9394      1.00000
     10       7.3057      1.00000
     11       7.3057      1.00000
     12       7.4320      1.00000
     13       8.5818      1.00000
     14       8.5818      1.00000
     15       9.4954      1.00000
     16       9.6877      0.60069
     17       9.6877      0.00978
     18      19.1988      0.00000
     19      19.1988      0.00000
     20      19.4407      0.00000
     21      25.8111      0.00000
     22      25.8111      0.00000
     23      30.6942      0.00000
     24      33.3493      0.00000

 k-point     2 :       0.1500    0.0500    0.0500
  band No.  band energies     occupation 
      1     -44.5657      1.00000
      2     -44.5449      1.00000
      3     -44.5234      1.00000
      4     -44.3202      1.00000
      5     -44.2867      1.00000
      6     -44.2791      1.00000
      7       1.8006      1.00000
      8       5.1071      1.00000
      9       5.1094      1.00000
     10       7.2472      1.00000
     11       7.2955      1.00000
     12       7.6000      1.00000
     13       8.4156      1.00000
     14       8.6564      1.00000
     15       9.1046      1.00000
     16       9.3729      1.02104
     17       9.6662      0.13606
     18      17.0981      0.00000
     19      19.9178      0.00000
     20      20.0948      0.00000
     21      25.9626      0.00000
     22      27.1442      0.00000
     23      31.5531      0.00000
     24      32.1472      0.00000

 k-point     3 :       0.2500    0.0500    0.0500
  band No.  band energies     occupation 
      1     -44.5630      1.00000
      2     -44.5170      1.00000
      3     -44.4926      1.00000
      4     -44.3682      1.00000
      5     -44.3121      1.00000
      6     -44.2992      1.00000
      7       2.5662      1.00000
      8       5.3683      1.00000
      9       5.4284      1.00000
     10       7.2430      1.00000
     11       7.2880      1.00000
     12       7.8425      1.00000
     13       8.1091      1.00000
     14       8.6072      1.00000
     15       8.7956      1.00000
     16       8.8894      1.00000
     17       9.4864      1.03927
     18      14.5750      0.00000
     19      21.1871      0.00000
     20      21.3576      0.00000
     21      26.2952      0.00000
     22      27.9714      0.00000
     23      29.6293      0.00000
     24      31.2958      0.00000

 k-point     4 :       0.3500    0.0500    0.0500
  band No.  band energies     occupation 
      1     -44.5485      1.00000
      2     -44.4791      1.00000
      3     -44.4547      1.00000
      4     -44.4234      1.00000
      5     -44.3476      1.00000
      6     -44.3306      1.00000
      7       3.5885      1.00000
      8       5.5407      1.00000
      9       5.8734      1.00000
     10       7.2464      1.00000
     11       7.3219      1.00000
     12       7.7689      1.00000
     13       8.1309      1.00000
     14       8.1512      1.00000
     15       8.3934      1.00000
     16       9.0200      1.00000
     17       9.2010      1.03861
     18      12.2827      0.00000
     19      22.7940      0.00000
     20      23.0064      0.00000
     21      26.8761      0.00000
     22      27.8752      0.00000
     23      28.6096      0.00000
     24      29.1468      0.00000

 k-point     5 :       0.4500    0.0500    0.0500
  band No.  band energies     occupation 
      1     -44.5195      1.00000
      2     -44.4765      1.00000
      3     -44.4352      1.00000
      4     -44.4122      1.00000
      5     -44.3899      1.00000
      6     -44.3697      1.00000
      7       4.6406      1.00000
      8       5.3584      1.00000
      9       6.3957      1.00000
     10       6.9184      1.00000
     11       7.4997      1.00000
     12       7.7319      1.00000
     13       7.7632      1.00000
     14       7.9862      1.00000
     15       8.4998      1.00000
     16       8.8581      1.00000
     17       9.4838      0.98552
     18      10.5197      0.00000
     19      24.5321      0.00000
     20      24.9037      0.00000
     21      26.2268      0.00000
     22      26.9664      0.00000
     23      27.8216      0.00000
     24      29.2509      0.00000

 k-point     6 :       0.1500    0.1500    0.0500
  band No.  band energies     occupation 
      1     -44.5797      1.00000
      2     -44.5362      1.00000
      3     -44.4910      1.00000
      4     -44.3619      1.00000
      5     -44.2970      1.00000
      6     -44.2736      1.00000
      7       2.1885      1.00000
      8       5.2401      1.00000
      9       5.2989      1.00000
     10       7.0946      1.00000
     11       7.2382      1.00000
     12       7.8707      1.00000
     13       8.4398      1.00000
     14       8.6116      1.00000
     15       8.6252      1.00000
     16       9.1501      1.00691
     17       9.7351      0.03156
     18      17.1955      0.00000
     19      18.2801      0.00000
     20      20.6500      0.00000
     21      26.6288      0.00000
     22      28.5398      0.00000
     23      29.9222      0.00000
     24      31.9698      0.00000

 k-point     7 :       0.2500    0.1500    0.0500
  band No.  band energies     occupation 
      1     -44.5890      1.00000
      2     -44.5106      1.00000
      3     -44.4532      1.00000
      4     -44.4167      1.00000
      5     -44.3200      1.00000
      6     -44.2811      1.00000
      7       2.9150      1.00000
      8       5.4563      1.00000
      9       5.6215      1.00000
     10       6.9890      1.00000
     11       7.1831      1.00000
     12       8.1063      1.00000
     13       8.2009      1.00000
     14       8.2837      1.00000
     15       8.7221      1.00000
     16       8.7253      1.00000
     17       9.6889      0.28966
     18      14.9833      0.00000
     19      19.0113      0.00000
     20      21.7948      0.00000
     21      27.0203      0.00000
     22      27.7478      0.00000
     23      29.9240      0.00000
     24      30.6412      0.00000

 k-point     8 :       0.3500    0.1500    0.0500
  band No.  band energies     occupation 
      1     -44.5850      1.00000
      2     -44.4751      1.00000
      3     -44.4744      1.00000
      4     -44.4124      1.00000
      5     -44.3526      1.00000
      6     -44.3023      1.00000
      7       3.8574      1.00000
      8       5.5961      1.00000
      9       6.0125      1.00000
     10       6.9651      1.00000
     11       7.1195      1.00000
     12       7.6676      1.00000
     13       8.0941      1.00000
     14       8.3382      1.00000
     15       8.5650      1.00000
     16       8.9640      1.00000
     17       9.4972      0.92427
     18      12.6528      0.00000
     19      20.3755      0.00000
     20      23.3113      0.00000
     21      25.6602      0.00000
     22      27.5891      0.00000
     23      28.7788      0.00000
     24      30.9260      0.00000

 k-point     9 :       0.4500    0.1500    0.0500
  band No.  band energies     occupation 
      1     -44.5640      1.00000
      2     -44.5259      1.00000
      3     -44.4339      1.00000
      4     -44.3918      1.00000
      5     -44.3714      1.00000
      6     -44.3336      1.00000
      7       4.7815      1.00000
      8       5.4048      1.00000
      9       6.4376      1.00000
     10       6.8157      1.00000
     11       7.1504      1.00000
     12       7.3564      1.00000
     13       8.0557      1.00000
     14       8.1293      1.00000
     15       8.8900      1.00000
     16       9.2087      1.00000
     17       9.5417      0.77875
     18      10.7643      0.00000
     19      21.9644      0.00000
     20      23.7289      0.00000
     21      25.0466      0.00000
     22      26.8826      0.00000
     23      28.4945      0.00000
     24      29.8471      0.00000

 k-point    10 :       0.2500    0.2500    0.0500
  band No.  band energies     occupation 
      1     -44.6122      1.00000
      2     -44.4900      1.00000
      3     -44.4763      1.00000
      4     -44.4102      1.00000
      5     -44.3379      1.00000
      6     -44.2738      1.00000
      7       3.5381      1.00000
      8       5.5113      1.00000
      9       6.0149      1.00000
     10       6.7722      1.00000
     11       7.1543      1.00000
     12       7.5993      1.00000
     13       8.4273      1.00000
     14       8.4292      1.00000
     15       8.6236      1.00000
     16       8.6656      1.00000
     17       9.8083     -0.03378
     18      14.8627      0.00000
     19      17.4650      0.00000
     20      22.7539      0.00000
     21      25.3832      0.00000
     22      27.3663      0.00000
     23      30.0596      0.00000
     24      32.3855      0.00000

 k-point    11 :       0.3500    0.2500    0.0500
  band No.  band energies     occupation 
      1     -44.6214      1.00000
      2     -44.5345      1.00000
      3     -44.4611      1.00000
      4     -44.3684      1.00000
      5     -44.3633      1.00000
      6     -44.2811      1.00000
      7       4.2631      1.00000
      8       5.4685      1.00000
      9       6.4680      1.00000
     10       6.6646      1.00000
     11       7.1901      1.00000
     12       7.2441      1.00000
     13       8.2736      1.00000
     14       8.4056      1.00000
     15       8.8104      1.00000
     16       9.0704      1.02184
     17       9.7584      0.00413
     18      13.0479      0.00000
     19      18.1028      0.00000
     20      23.1674      0.00000
     21      24.0654      0.00000
     22      27.8479      0.00000
     23      28.7849      0.00000
     24      31.4409      0.00000

 k-point    12 :       0.4500    0.2500    0.0500
  band No.  band energies     occupation 
      1     -44.6118      1.00000
      2     -44.5817      1.00000
      3     -44.4279      1.00000
      4     -44.3942      1.00000
      5     -44.3313      1.00000
      6     -44.3012      1.00000
      7       4.8667      1.00000
      8       5.2601      1.00000
      9       6.6829      1.00000
     10       6.7716      1.00000
     11       7.0127      1.00000
     12       7.2247      1.00000
     13       8.3132      1.00000
[...]
     19      18.3221      0.00000
     20      20.7963      0.00000
     21      22.3837      0.00000
     22      24.8371      0.00000
     23      26.2487      0.00000
     24      30.1354      0.00000

 k-point    30 :       0.4500    0.3500    0.2500
  band No.  band energies     occupation 
      1     -42.0270      1.00000
      2     -42.0267      1.00000
      3     -41.8752      1.00000
      4     -41.8240      1.00000
      5     -41.7179      1.00000
      6     -41.7136      1.00000
      7       6.7334      1.00000
      8       7.0457      1.00000
      9       7.9685      1.00000
     10       7.9794      1.00000
     11       8.3654      1.00000
     12       8.4920      1.00000
     13      11.1848      0.00000
     14      11.2352      0.00000
     15      11.5152      0.00000
     16      11.5336      0.00000
     17      13.8179      0.00000
     18      14.8902      0.00000
     19      19.1260      0.00000
     20      20.5767      0.00000
     21      21.9124      0.00000
     22      23.4381      0.00000
     23      26.7651      0.00000
     24      28.2357      0.00000

 k-point    31 :       0.4500    0.4500    0.2500
  band No.  band energies     occupation 
      1     -42.0348      1.00000
      2     -42.0343      1.00000
      3     -41.8558      1.00000
      4     -41.8350      1.00000
      5     -41.7241      1.00000
      6     -41.7205      1.00000
      7       6.8537      1.00000
      8       6.9341      1.00000
      9       7.8858      1.00000
     10       7.9006      1.00000
     11       8.6620      1.00000
     12       8.7311      1.00000
     13      11.3014      0.00000
     14      11.3263      0.00000
     15      11.5267      0.00000
     16      11.5392      0.00000
     17      14.4948      0.00000
     18      15.0176      0.00000
     19      18.3892      0.00000
     20      19.0491      0.00000
     21      23.0061      0.00000
     22      24.1222      0.00000
     23      25.2312      0.00000
     24      26.3284      0.00000

 k-point    32 :       0.3500    0.3500    0.3500
  band No.  band energies     occupation 
      1     -42.0110      1.00000
      2     -41.9604      1.00000
      3     -41.9604      1.00000
      4     -41.7719      1.00000
      5     -41.7719      1.00000
      6     -41.7219      1.00000
      7       6.9267      1.00000
      8       7.5013      1.00000
      9       7.9287      1.00000
     10       7.9287      1.00000
     11       8.0752      1.00000
     12       8.0752      1.00000
     13      11.3768      0.00000
     14      11.3768      0.00000
     15      11.4156      0.00000
     16      11.4156      0.00000
     17      13.8662      0.00000
     18      17.4980      0.00000
     19      17.4980      0.00000
     20      19.8851      0.00000
     21      22.8244      0.00000
     22      22.8244      0.00000
     23      24.1435      0.00000
     24      28.0391      0.00000

 k-point    33 :       0.4500    0.3500    0.3500
  band No.  band energies     occupation 
      1     -42.0057      1.00000
      2     -41.9898      1.00000
      3     -41.8977      1.00000
      4     -41.8328      1.00000
      5     -41.7556      1.00000
      6     -41.7368      1.00000
      7       7.2805      1.00000
      8       7.3830      1.00000
      9       7.8732      1.00000
     10       7.9216      1.00000
     11       8.0477      1.00000
     12       8.2181      1.00000
     13      11.3601      0.00000
     14      11.3852      0.00000
     15      11.5030      0.00000
     16      11.5142      0.00000
     17      14.8069      0.00000
     18      16.0284      0.00000
     19      19.1315      0.00000
     20      20.4286      0.00000
     21      20.9122      0.00000
     22      21.6686      0.00000
     23      24.5499      0.00000
     24      26.0861      0.00000

 k-point    34 :       0.4500    0.4500    0.3500
  band No.  band energies     occupation 
      1     -41.9883      1.00000
      2     -41.9773      1.00000
      3     -41.8842      1.00000
      4     -41.8478      1.00000
      5     -41.7781      1.00000
      6     -41.7636      1.00000
      7       7.4292      1.00000
      8       7.4430      1.00000
      9       7.8035      1.00000
     10       7.8463      1.00000
     11       8.1739      1.00000
     12       8.2621      1.00000
     13      11.4439      0.00000
     14      11.4548      0.00000
     15      11.5334      0.00000
     16      11.5379      0.00000
     17      15.8067      0.00000
     18      16.5893      0.00000
     19      18.5409      0.00000
     20      19.5008      0.00000
     21      21.0119      0.00000
     22      22.1193      0.00000
     23      22.9673      0.00000
     24      24.1585      0.00000

 k-point    35 :       0.4500    0.4500    0.4500
  band No.  band energies     occupation 
      1     -41.9435      1.00000
      2     -41.9108      1.00000
      3     -41.9108      1.00000
      4     -41.8424      1.00000
      5     -41.8424      1.00000
      6     -41.8099      1.00000
      7       7.6638      1.00000
      8       7.8102      1.00000
      9       7.8102      1.00000
     10       7.9089      1.00000
     11       7.9545      1.00000
     12       7.9545      1.00000
     13      11.5395      0.00000
     14      11.5395      0.00000
     15      11.5425      0.00000
     16      11.5425      0.00000
     17      17.1211      0.00000
     18      18.3155      0.00000
     19      18.3155      0.00000
     20      20.0011      0.00000
     21      20.1683      0.00000
     22      20.1683      0.00000
     23      21.5153      0.00000
     24      22.3084      0.00000


--------------------------------------------------------------------------------------------------------


 soft charge-density along one line, spin component           1
         0         1         2         3         4         5         6         7         8         9
 total charge-density along one line
 
 soft charge-density along one line, spin component           2
         0         1         2         3         4         5         6         7         8         9
 total charge-density along one line
 
 pseudopotential strength for first ion, spin component:           1
-44.858   0.000  -0.000   7.570  -0.000   0.000   0.000  -0.000
  0.000 -44.858   0.000  -0.000   7.570  -0.000  -0.000   0.000
 -0.000   0.000 -44.858   0.000  -0.000   7.570   0.000  -0.000
  7.570  -0.000   0.000   5.637  -0.000   0.000  -0.000   0.000
 -0.000   7.570  -0.000  -0.000   5.637   0.000   0.000  -0.000
  0.000  -0.000   7.570   0.000   0.000   5.637  -0.000   0.000
  0.000  -0.000   0.000  -0.000   0.000  -0.000  -1.981   0.000
 -0.000   0.000  -0.000   0.000  -0.000   0.000   0.000  -1.981
 -0.000  -0.000  -0.000   0.000   0.000  -0.000   0.000   0.000
 -0.000   0.000  -0.000   0.000  -0.000   0.000   0.000  -0.000
 -0.000   0.000   0.000   0.000  -0.000   0.000  -0.000  -0.000
  0.000  -0.000   0.000  -0.000   0.000  -0.000  -2.495   0.000
 -0.000   0.000  -0.000   0.000  -0.000   0.000   0.000  -2.495
 -0.000  -0.000  -0.000   0.000   0.000  -0.000   0.000   0.000
 -0.000  -0.000  -0.000   0.000  -0.000   0.000   0.000  -0.000
 -0.000   0.000   0.000   0.000  -0.000  -0.000  -0.000  -0.000
 -0.000   0.000  -0.000  -0.000   0.000   0.000   0.000  -0.000
 -0.000   0.000  -0.000  -0.000   0.000   0.000   0.000  -0.000
 pseudopotential strength for first ion, spin component:           2
-42.886   0.000  -0.000   6.737  -0.000   0.000   0.000  -0.000
  0.000 -42.886  -0.000  -0.000   6.737   0.000  -0.000   0.000
 -0.000  -0.000 -42.886   0.000   0.000   6.737   0.000  -0.000
  6.737  -0.000   0.000   5.865   0.000   0.000   0.000   0.000
 -0.000   6.737   0.000   0.000   5.865   0.000   0.000  -0.000
  0.000   0.000   6.737   0.000   0.000   5.865  -0.000   0.000
  0.000  -0.000   0.000   0.000   0.000  -0.000  -0.454  -0.000
 -0.000   0.000  -0.000   0.000  -0.000   0.000  -0.000  -0.454
 -0.000  -0.000   0.000   0.000   0.000  -0.000   0.000  -0.000
 -0.000  -0.000  -0.000   0.000   0.000   0.000  -0.000  -0.000
 -0.000   0.000  -0.000   0.000  -0.000   0.000   0.000  -0.000
  0.000  -0.000   0.000  -0.000   0.000  -0.000  -0.995  -0.000
 -0.000   0.000  -0.000   0.000  -0.000   0.000  -0.000  -0.995
 -0.000  -0.000   0.000   0.000   0.000  -0.000   0.000  -0.000
 -0.000  -0.000  -0.000   0.000   0.000   0.000  -0.000  -0.000
 -0.000   0.000  -0.000   0.000  -0.000   0.000   0.000  -0.000
 -0.000   0.000   0.000  -0.000   0.000   0.000   0.000  -0.000
 -0.000   0.000   0.000  -0.000   0.000   0.000   0.000  -0.000
 total augmentation occupancy for first ion, spin component:           1
  1.992   0.000   0.000  -0.026   0.000   0.000   0.000   0.000  -0.000   0.000   0.000   0.000   0.000   0.000   0.000  -0.000
  0.000   1.992   0.000   0.000  -0.026  -0.000  -0.000   0.000   0.000   0.000   0.000   0.000   0.000   0.000   0.000   0.000
  0.000   0.000   1.992   0.000   0.000  -0.026   0.000  -0.000  -0.000   0.000  -0.000   0.000   0.000   0.000   0.000  -0.000
 -0.026   0.000   0.000   0.201  -0.000   0.000   0.000   0.000  -0.000   0.000  -0.000   0.000   0.000  -0.000  -0.000   0.000
  0.000  -0.026  -0.000   0.000   0.201   0.000   0.000   0.000   0.000   0.000  -0.000  -0.000   0.000   0.000   0.000   0.000
  0.000   0.000  -0.026   0.000  -0.000   0.201   0.000   0.000   0.000   0.000  -0.000   0.000  -0.000  -0.000   0.000   0.000
  0.000  -0.000   0.000   0.000   0.000   0.000   2.167  -0.000   0.000  -0.000  -0.000  -1.221   0.000   0.000  -0.000   0.000
  0.000   0.000  -0.000   0.000   0.000   0.000   0.000   2.167   0.000  -0.000  -0.000   0.000  -1.221   0.000   0.000   0.000
  0.000   0.000  -0.000  -0.000   0.000   0.000   0.000   0.000   3.405   0.000   0.000   0.000  -0.000  -2.182   0.000  -0.000
  0.000   0.000   0.000   0.000   0.000   0.000   0.000  -0.000   0.000   2.167  -0.000   0.000   0.000   0.000  -1.221   0.000
  0.000   0.000   0.000   0.000   0.000   0.000  -0.000  -0.000   0.000   0.000   3.405  -0.000  -0.000   0.000  -0.000  -2.182
  0.000   0.000   0.000   0.000  -0.000   0.000  -1.221  -0.000   0.000   0.000  -0.000   1.649   0.000   0.000  -0.000  -0.000
  0.000   0.000  -0.000   0.000   0.000  -0.000  -0.000  -1.221   0.000   0.000   0.000   0.000   1.649  -0.000  -0.000  -0.000
  0.000   0.000   0.000  -0.000   0.000  -0.000   0.000  -0.000  -2.182  -0.000   0.000   0.000   0.000   2.222  -0.000   0.000
 -0.000   0.000   0.000  -0.000   0.000   0.000  -0.000   0.000   0.000  -1.221   0.000  -0.000  -0.000   0.000   1.649  -0.000
  0.000   0.000   0.000   0.000   0.000   0.000  -0.000  -0.000   0.000   0.000  -2.182  -0.000  -0.000   0.000  -0.000   2.222
  0.000   0.000   0.000   0.000   0.000   0.000  -0.000  -0.000  -0.000   0.000   0.000   0.000   0.000   0.000  -0.000   0.000
  0.000   0.000   0.000   0.000   0.000   0.000   0.000   0.000   0.000   0.000  -0.000   0.000   0.000  -0.000  -0.000   0.000
 total augmentation occupancy for first ion, spin component:           2
 -0.002   0.000   0.000  -0.009  -0.000  -0.000   0.000   0.000   0.000   0.000   0.000   0.000   0.000   0.000   0.000   0.000
  0.000  -0.002   0.000  -0.000  -0.009  -0.000   0.000   0.000   0.000   0.000   0.000  -0.000   0.000   0.000   0.000   0.000
  0.000   0.000  -0.002  -0.000   0.000  -0.009   0.000   0.000  -0.000   0.000   0.000   0.000   0.000   0.000   0.000   0.000
 -0.009  -0.000   0.000  -0.020   0.000   0.000   0.000   0.000   0.000   0.000   0.000   0.000   0.000   0.000  -0.000   0.000
  0.000  -0.009  -0.000   0.000  -0.020  -0.000   0.000   0.000   0.000   0.000  -0.000   0.000   0.000   0.000   0.000   0.000
  0.000   0.000  -0.009   0.000   0.000  -0.020   0.000   0.000   0.000   0.000  -0.000   0.000  -0.000  -0.000   0.000   0.000
  0.000   0.000   0.000   0.000   0.000   0.000   1.758  -0.000   0.000   0.000   0.000  -0.660   0.000   0.000   0.000  -0.000
  0.000   0.000   0.000   0.000   0.000   0.000   0.000   1.758   0.000  -0.000   0.000  -0.000  -0.660   0.000   0.000  -0.000
  0.000   0.000   0.000  -0.000   0.000  -0.000   0.000   0.000   2.820  -0.000   0.000   0.000   0.000  -1.162  -0.000  -0.000
  0.000   0.000   0.000   0.000   0.000   0.000   0.000   0.000  -0.000   1.758  -0.000  -0.000   0.000   0.000  -0.660   0.000
  0.000   0.000   0.000  -0.000  -0.000   0.000   0.000   0.000  -0.000  -0.000   2.820   0.000  -0.000   0.000  -0.000  -1.162
  0.000   0.000   0.000   0.000   0.000   0.000  -0.660   0.000   0.000  -0.000   0.000  -0.007  -0.000   0.000  -0.000   0.000
  0.000   0.000  -0.000   0.000   0.000  -0.000   0.000  -0.660  -0.000   0.000  -0.000   0.000  -0.007  -0.000   0.000   0.000
  0.000   0.000   0.000  -0.000   0.000  -0.000   0.000  -0.000  -1.162   0.000   0.000  -0.000  -0.000   0.238   0.000  -0.000
  0.000   0.000   0.000  -0.000   0.000   0.000   0.000  -0.000  -0.000  -0.660  -0.000   0.000   0.000  -0.000  -0.007  -0.000
  0.000   0.000  -0.000   0.000   0.000  -0.000   0.000  -0.000   0.000   0.000  -1.162   0.000  -0.000  -0.000   0.000   0.238
 -0.000   0.000   0.000  -0.000   0.000   0.000   0.000   0.000  -0.000  -0.000  -0.000  -0.000   0.000  -0.000   0.000  -0.000
 -0.000   0.000   0.000  -0.000   0.000  -0.000   0.000   0.000  -0.000   0.000   0.000  -0.000   0.000   0.000  -0.000  -0.000


------------------------ aborting loop because EDIFF is reached ----------------------------------------


 


 total charge     
 
# of ion       s       p       d       tot
------------------------------------------
    1        0.385   6.378   6.074  12.837
    2        0.385   6.378   6.074  12.837
--------------------------------------------------
tot          0.770  12.756  12.149  25.675
 


 magnetization (x)
 
# of ion       s       p       d       tot
------------------------------------------
    1       -0.008  -0.042   2.292   2.243
    2       -0.008  -0.042   2.292   2.243
--------------------------------------------------
tot         -0.015  -0.083   4.584   4.485
 
    CHARGE:  cpu time    0.0093: real time    0.0093
    FORLOC:  cpu time    0.0001: real time    0.0001
    FORNL :  cpu time    0.0584: real time    0.0587
    STRESS:  cpu time    0.1731: real time    0.1735
    FORCOR:  cpu time    0.0041: real time    0.0041
    FORHAR:  cpu time    0.0006: real time    0.0006
    MIXING:  cpu time    0.0005: real time    0.0005
    OFIELD:  cpu time    0.0001: real time    0.0001

  FORCE on cell =-STRESS in cart. coord.  units (eV):
  Direction    XX          YY          ZZ          XY          YZ          ZX
  --------------------------------------------------------------------------------------
  Alpha Z   218.87049   218.87049   218.87049
  Ewald   -1205.52018 -1205.52018 -1205.52018    -0.00000    -0.00000    -0.00000
  Hartree   363.31859   363.31859   363.31859    -0.00000    -0.00000    -0.00000
  E(xc)    -179.77778  -179.77778  -179.77778     0.00000    -0.00000    -0.00000
  Local     289.66510   289.66510   289.66510    -0.00000    -0.00000     0.00000
  n-local   -60.34227   -54.35120   -50.75261     2.76491    -1.54264     0.59315
  augment   285.37945   285.37945   285.37945     0.00000     0.00000    -0.00000
  Kinetic   284.05600   282.61217   281.86963     2.95559    -0.75478    -0.08107
  Fock        0.00000     0.00000     0.00000     0.00000     0.00000     0.00000
  -------------------------------------------------------------------------------------
  Total      -0.36709    -0.36709    -0.36709    -0.00000     0.00000     0.00000
  in kB     -25.67473   -25.67473   -25.67473    -0.00000     0.00000     0.00000
  external pressure =      -25.67 kB  Pullay stress =        0.00 kB


 VOLUME and BASIS-vectors are now :
 -----------------------------------------------------------------------------
  energy-cutoff  :      460.00
  volume of cell :       22.91
      direct lattice vectors                 reciprocal lattice vectors
     2.840052000  0.000000000  0.000000000     0.352106229  0.000000000  0.000000000
     0.000000000  2.840052000  0.000000000     0.000000000  0.352106229  0.000000000
     0.000000000  0.000000000  2.840052000     0.000000000  0.000000000  0.352106229

  length of vectors
     2.840052000  2.840052000  2.840052000     0.352106229  0.352106229  0.352106229


 FORCES acting on ions
    electron-ion (+dipol)            ewald-force                    non-local-force                 convergence-correction
 -----------------------------------------------------------------------------------------------
   0.555E-14 0.258E-13 0.397E-14   -.529E-15 -.103E-14 -.897E-14   0.000E+00 0.162E-26 0.000E+00   0.107E-13 0.174E-14 -.105E-12
   -.179E-12 0.344E-11 0.444E-12   0.472E-14 0.447E-14 0.926E-14   0.000E+00 0.162E-26 0.000E+00   0.173E-13 -.821E-14 0.353E-13
 -----------------------------------------------------------------------------------------------
   -.174E-12 0.346E-11 0.448E-12   0.419E-14 0.343E-14 0.284E-15   0.000E+00 0.323E-26 0.000E+00   0.280E-13 -.647E-14 -.700E-13
 
 
 POSITION                                       TOTAL-FORCE (eV/Angst)
 -----------------------------------------------------------------------------------
      0.00000      0.00000      0.00000         0.000000      0.000000      0.000000
      1.42003      1.42003      1.42003        -0.000000     -0.000000     -0.000000
 -----------------------------------------------------------------------------------
    total drift:                               -0.000000      0.000000      0.000000


--------------------------------------------------------------------------------------------------------



  FREE ENERGIE OF THE ION-ELECTRON SYSTEM (eV)
  ---------------------------------------------------
  free  energy   TOTEN  =       -16.51107235 eV

  energy  without entropy=      -16.51107235  energy(sigma->0) =      -16.51107235
 


--------------------------------------------------------------------------------------------------------


    POTLOK:  cpu time    0.0089: real time    0.0089


--------------------------------------------------------------------------------------------------------


     LOOP+:  cpu time    7.6832: real time    7.7165
    4ORBIT:  cpu time    0.0000: real time    0.0000
 


 total charge     
 
# of ion       s       p       d       tot
------------------------------------------
    1        0.385   6.378   6.074  12.837
    2        0.385   6.378   6.074  12.837
--------------------------------------------------
tot          0.770  12.756  12.149  25.675
 


 magnetization (x)
 
# of ion       s       p       d       tot
------------------------------------------
    1       -0.008  -0.042   2.292   2.243
    2       -0.008  -0.042   2.292   2.243
--------------------------------------------------
tot         -0.015  -0.083   4.584   4.485
 
 BZINTS: Fermi energy:  9.623192; 28.000000 electrons
         Band energy:-399.250593;  BLOECHL correction: -0.034699

 total amount of memory used by VASP MPI-rank0    31878. kBytes
=======================================================================

   base      :      30000. kBytes
   nonlr-proj:        575. kBytes
   fftplans  :        172. kBytes
   grid      :        402. kBytes
   one-center:         31. kBytes
   wavefun   :        698. kBytes
 
  
  
 General timing and accounting informations for this job:
 ========================================================
  
                  Total CPU time used (sec):        8.374
                            User time (sec):        8.230
                          System time (sec):        0.144
                         Elapsed time (sec):        8.437
  
                   Maximum memory used (kb):       56648.
                   Average memory used (kb):           0.
  
                          Minor page faults:        12511
                          Major page faults:            0
                 Voluntary context switches:          171
