<?xml version="1.0" encoding="ISO-8859-1"?>
<modeling>
 <generator>
  <i name="program" type="string">vasp </i>
  <i name="version" type="string">5.4.4.18Apr17-6-g9f103f2a35  </i>
  <i name="subversion" type="string">(build Apr 28 2018 00:24:27) complex            parallel </i>
  <i name="platform" type="string">LinuxIFC </i>
  <i name="date" type="string">2021 09 07 </i>
  <i name="time" type="string">01:10:07 </i>
 </generator>
 <incar>
  <i type="string" name="PREC">accurate</i>
  <i type="string" name="ALGO"> Normal</i>
  <i type="int" name="ISPIN">     2</i>
  <i type="int" name="NELM">   100</i>
  <i type="int" name="IBRION">    -1</i>
  <i name="EDIFF">      0.00000010</i>
  <i type="int" name="NSW">     0</i>
  <i type="int" name="ISIF">     3</i>
  <i name="ENCUT">    460.00000000</i>
  <v name="MAGMOM">      5.00000000      5.00000000</v>
  <i type="string" name="LREAL"> Auto</i>
  <i type="int" name="ISMEAR">    -5</i>
  <i name="SIGMA">      0.05000000</i>
  <i type="logical" name="LWAVE"> F  </i>
  <i type="logical" name="LCHARG"> F  </i>
  <i type="logical" name="LVHAR"> F  </i>
  <i type="int" name="LORBIT">    11</i>
  <i type="logical" name="LASPH"> F  </i>
  <i type="logical" name="LAECHG"> F  </i>
  <v type="int" name="KPOINT_BSE">    -1     0     0     0</v>
  <i type="int" name="NELM">   100</i>
  <i type="logical" name="LASPH"> F  </i>
  <i type="int" name="LMAXTAU">     0</i>
 </incar>
 <structure name="primitive_cell" >
  <crystal>
   <varray name="basis" >
    <v>       1.42002600       1.42002600       1.42002600 </v>
    <v>       1.42002600      -1.42002600      -1.42002600 </v>
    <v>      -1.42002600       1.42002600      -1.42002600 </v>
   </varray>
   <i name="volume">     11.45378113 </i>
   <varray name="rec_basis" >
    <v>       0.35210623       0.35210623       0.00000000 </v>
    <v>       0.35210623       0.00000000      -0.35210623 </v>
    <v>       0.00000000       0.35210623      -0.35210623 </v>
   </varray>
  </crystal>
  <varray name="positions" >
   <v>       0.00000000       0.00000000       0.00000000 </v>
  </varray>
 </structure>
 <varray name="primitive_index" >
  <v type="int" >        1 </v>
 </varray>
 <kpoints>
  <generation param="Monkhorst-Pack">
   <v type="int" name="divisions">      10       10       10 </v>
   <v name="usershift">      0.00000000       0.00000000       0.00000000 </v>
   <v name="genvec1">      0.10000000       0.00000000       0.00000000 </v>
   <v name="genvec2">      0.00000000       0.10000000       0.00000000 </v>
   <v name="genvec3">      0.00000000       0.00000000       0.10000000 </v>
   <v name="shift">      0.50000000       0.50000000       0.50000000 </v>
  </generation>
  <varray name="kpointlist" >
   <v>       0.05000000       0.05000000       0.05000000 </v>
   <v>       0.15000000       0.05000000       0.05000000 </v>
   <v>       0.25000000       0.05000000       0.05000000 </v>
   <v>       0.35000000       0.05000000       0.05000000 </v>
   <v>       0.45000000       0.05000000       0.05000000 </v>
   <v>       0.15000000       0.15000000       0.05000000 </v>
   <v>       0.25000000       0.15000000       0.05000000 </v>
   <v>       0.35000000       0.15000000       0.05000000 </v>
   <v>       0.45000000       0.15000000       0.05000000 </v>
   <v>       0.25000000       0.25000000       0.05000000 </v>
   <v>       0.35000000       0.25000000       0.05000000 </v>
   <v>       0.45000000       0.25000000       0.05000000 </v>
   <v>       0.35000000       0.35000000       0.05000000 </v>
   <v>       0.45000000       0.35000000       0.05000000 </v>
   <v>       0.45000000       0.45000000       0.05000000 </v>
   <v>       0.15000000       0.15000000       0.15000000 </v>
   <v>       0.25000000       0.15000000       0.15000000 </v>
   <v>       0.35000000       0.15000000       0.15000000 </v>
   <v>       0.45000000       0.15000000       0.15000000 </v>
   <v>       0.25000000       0.25000000       0.15000000 </v>
   <v>       0.35000000       0.25000000       0.15000000 </v>
   <v>       0.45000000       0.25000000       0.15000000 </v>
   <v>       0.35000000       0.35000000       0.15000000 </v>
   <v>       0.45000000       0.35000000       0.15000000 </v>
   <v>       0.45000000       0.45000000       0.15000000 </v>
   <v>       0.25000000       0.25000000       0.25000000 </v>
   <v>       0.35000000       0.25000000       0.25000000 </v>
   <v>       0.45000000       0.25000000       0.25000000 </v>
   <v>       0.35000000       0.35000000       0.25000000 </v>
   <v>       0.45000000       0.35000000       0.25000000 </v>
   <v>       0.45000000       0.45000000       0.25000000 </v>
   <v>       0.35000000       0.35000000       0.35000000 </v>
   <v>       0.45000000       0.35000000       0.35000000 </v>
   <v>       0.45000000       0.45000000       0.35000000 </v>
   <v>       0.45000000       0.45000000       0.45000000 </v>
  </varray>
  <varray name="weights" >
   <v>       0.00800000 </v>
   <v>       0.02400000 </v>
   <v>       0.02400000 </v>
   <v>       0.02400000 </v>
   <v>       0.02400000 </v>
   <v>       0.02400000 </v>
   <v>       0.04800000 </v>
   <v>       0.04800000 </v>
   <v>       0.04800000 </v>
   <v>       0.02400000 </v>
   <v>       0.04800000 </v>
   <v>       0.04800000 </v>
   <v>       0.02400000 </v>
   <v>       0.04800000 </v>
   <v>       0.02400000 </v>
   <v>       0.00800000 </v>
   <v>       0.02400000 </v>
   <v>       0.02400000 </v>
   <v>       0.02400000 </v>
   <v>       0.02400000 </v>
   <v>       0.04800000 </v>
   <v>       0.04800000 </v>
   <v>       0.02400000 </v>
   <v>       0.04800000 </v>
   <v>       0.02400000 </v>
   <v>       0.00800000 </v>
   <v>       0.02400000 </v>
   <v>       0.02400000 </v>
   <v>       0.02400000 </v>
   <v>       0.04800000 </v>
   <v>       0.02400000 </v>
   <v>       0.00800000 </v>
   <v>       0.02400000 </v>
   <v>       0.02400000 </v>
   <v>       0.00800000 </v>
  </varray>
  <varray name="tetrahedronlist"  type="int" >
   <v type="int" >       24        1        2        2        6 </v>
   <v type="int" >       18        2        2        6        6 </v>
   <v type="int" >       12        2        6        6       16 </v>
   <v type="int" >       12        2        3        6        7 </v>
   <v type="int" >       24        2        6        6        7 </v>
   <v type="int" >       12        6        6        7       16 </v>
   <v type="int" >       24        3        6        7        7 </v>
   <v type="int" >       24        6        7        7       17 </v>
   <v type="int" >       24        6        7       16       17 </v>
   <v type="int" >       12        3        4        7        8 </v>
   <v type="int" >       24        3        7        7        8 </v>
   <v type="int" >       12        7        7        8       17 </v>
   <v type="int" >       24        4        7        8        8 </v>
   <v type="int" >       12        7        8        8       18 </v>
   <v type="int" >       12        7        8       17       18 </v>
   <v type="int" >       12        4        5        8        9 </v>
   <v type="int" >       24        4        8        8        9 </v>
   <v type="int" >       12        8        8        9       18 </v>
   <v type="int" >       24        5        8        9        9 </v>
   <v type="int" >       12        8        9        9       19 </v>
   <v type="int" >       12        8        9       18       19 </v>
   <v type="int" >       30        5        5        9        9 </v>
   <v type="int" >       36        5        9        9        9 </v>
   <v type="int" >       12        9        9        9       19 </v>
   <v type="int" >        6        9        9       19       19 </v>
   <v type="int" >       18        1        1        2        2 </v>
   <v type="int" >       24        1        2        2        2 </v>
   <v type="int" >       12        2        2        2        6 </v>
   <v type="int" >       12        6        7       10       16 </v>
   <v type="int" >       12        7       10       16       17 </v>
   <v type="int" >       12       10       16       17       20 </v>
   <v type="int" >       12        7        8       11       17 </v>
   <v type="int" >       12        7       10       11       17 </v>
   <v type="int" >       12       10       11       17       20 </v>
   <v type="int" >       12        8       11       17       18 </v>
   <v type="int" >       12       11       17       18       21 </v>
   <v type="int" >       12       11       17       20       21 </v>
   <v type="int" >       12        8        9       12       18 </v>
   <v type="int" >       12        8       11       12       18 </v>
   <v type="int" >       12       11       12       18       21 </v>
   <v type="int" >       12        9       12       18       19 </v>
   <v type="int" >       12       12       18       19       22 </v>
   <v type="int" >       12       12       18       21       22 </v>
   <v type="int" >       12        9        9       12       19 </v>
   <v type="int" >       12        9       12       12       19 </v>
   <v type="int" >       12       12       12       19       22 </v>
   <v type="int" >       12        9       12       19       19 </v>
   <v type="int" >       12       12       19       19       22 </v>
   <v type="int" >       12       12       19       22       22 </v>
   <v type="int" >       12        8        9       11       19 </v>
   <v type="int" >       12        9       11       12       19 </v>
   <v type="int" >       12       11       12       19       22 </v>
   <v type="int" >       12        8       11       18       19 </v>
   <v type="int" >       12       11       18       19       21 </v>
   <v type="int" >       12       11       19       21       22 </v>
   <v type="int" >       12        7        8       10       18 </v>
   <v type="int" >       12        8       10       11       18 </v>
   <v type="int" >       12       10       11       18       21 </v>
   <v type="int" >       12        7       10       17       18 </v>
   <v type="int" >       12       10       17       18       20 </v>
   <v type="int" >       12       10       18       20       21 </v>
   <v type="int" >       12        7        7       10       17 </v>
   <v type="int" >       12        7       10       17       20 </v>
   <v type="int" >       12        7       16       17       17 </v>
   <v type="int" >       12        7       17       17       20 </v>
   <v type="int" >       12        2        3        6       16 </v>
   <v type="int" >       12        3        6        7       16 </v>
   <v type="int" >       12        3        7       16       17 </v>
   <v type="int" >       12        2        2        3        6 </v>
   <v type="int" >       12        2        3        3        6 </v>
   <v type="int" >       12        3        3        6        7 </v>
   <v type="int" >       12        2        3        6        6 </v>
   <v type="int" >       12        3        6        6        7 </v>
   <v type="int" >       12       10       11       13       20 </v>
   <v type="int" >       12       11       13       20       21 </v>
   <v type="int" >       12       13       20       21       23 </v>
   <v type="int" >       12       11       12       14       21 </v>
   <v type="int" >       12       11       13       14       21 </v>
   <v type="int" >       12       13       14       21       23 </v>
   <v type="int" >       12       12       14       21       22 </v>
   <v type="int" >       12       14       21       22       24 </v>
   <v type="int" >       12       14       21       23       24 </v>
   <v type="int" >       12       12       12       14       22 </v>
   <v type="int" >       12       12       14       14       22 </v>
   <v type="int" >       12       14       14       22       24 </v>
   <v type="int" >       12       12       14       22       22 </v>
   <v type="int" >       12       14       22       22       24 </v>
   <v type="int" >       12       14       22       24       24 </v>
   <v type="int" >       12       11       12       13       22 </v>
   <v type="int" >       12       12       13       14       22 </v>
   <v type="int" >       12       13       14       22       24 </v>
   <v type="int" >       12       11       13       21       22 </v>
   <v type="int" >       12       13       21       22       23 </v>
   <v type="int" >       12       13       22       23       24 </v>
   <v type="int" >       12       10       11       11       21 </v>
   <v type="int" >       12       11       11       13       21 </v>
   <v type="int" >       12       11       13       21       23 </v>
   <v type="int" >       12       10       11       20       21 </v>
   <v type="int" >       12       11       20       21       21 </v>
   <v type="int" >       12       11       21       21       23 </v>
   <v type="int" >       12        7        8       10       20 </v>
   <v type="int" >       12        8       10       11       20 </v>
   <v type="int" >       12        8       11       20       21 </v>
   <v type="int" >       12        7        8       17       20 </v>
   <v type="int" >       12        8       17       18       20 </v>
   <v type="int" >       12        8       18       20       21 </v>
   <v type="int" >       12        3        4        7       17 </v>
   <v type="int" >       12        4        7        8       17 </v>
   <v type="int" >       12        4        8       17       18 </v>
   <v type="int" >       12        3        3        4        7 </v>
   <v type="int" >       12        3        4        4        7 </v>
   <v type="int" >       12        4        4        7        8 </v>
   <v type="int" >       12        3        4        7        7 </v>
   <v type="int" >       12        4        7        7        8 </v>
   <v type="int" >       12       13       14       15       23 </v>
   <v type="int" >       12       14       15       23       24 </v>
   <v type="int" >       12       15       23       24       25 </v>
   <v type="int" >       24       14       14       15       24 </v>
   <v type="int" >       12       14       15       15       24 </v>
   <v type="int" >       12       15       15       24       25 </v>
   <v type="int" >       12       14       15       24       24 </v>
   <v type="int" >       12       15       24       24       25 </v>
   <v type="int" >       12       15       24       25       25 </v>
   <v type="int" >       12       13       14       14       24 </v>
   <v type="int" >       12       14       15       24       25 </v>
   <v type="int" >       12       13       14       23       24 </v>
   <v type="int" >       12       14       23       24       24 </v>
   <v type="int" >       24       14       24       24       25 </v>
   <v type="int" >       12       11       12       13       23 </v>
   <v type="int" >       12       12       13       14       23 </v>
   <v type="int" >       12       12       14       23       24 </v>
   <v type="int" >       12       11       12       21       23 </v>
   <v type="int" >       12       12       21       22       23 </v>
   <v type="int" >       12       12       22       23       24 </v>
   <v type="int" >       12        8        9       11       21 </v>
   <v type="int" >       12        9       11       12       21 </v>
   <v type="int" >       12        9       12       21       22 </v>
   <v type="int" >       12        8        9       18       21 </v>
   <v type="int" >       12        9       18       19       21 </v>
   <v type="int" >       12        9       19       21       22 </v>
   <v type="int" >       12        4        5        8       18 </v>
   <v type="int" >       12        5        8        9       18 </v>
   <v type="int" >       12        5        9       18       19 </v>
   <v type="int" >       12        4        4        5        8 </v>
   <v type="int" >       12        4        5        5        8 </v>
   <v type="int" >       12        5        5        8        9 </v>
   <v type="int" >       12        4        5        8        8 </v>
   <v type="int" >       12        5        8        8        9 </v>
   <v type="int" >       12       15       15       15       25 </v>
   <v type="int" >       12       15       15       25       25 </v>
   <v type="int" >       12       15       25       25       25 </v>
   <v type="int" >       12       14       14       15       25 </v>
   <v type="int" >       12       14       15       15       25 </v>
   <v type="int" >       12       14       15       25       25 </v>
   <v type="int" >       12       14       14       24       25 </v>
   <v type="int" >       12       14       24       25       25 </v>
   <v type="int" >       12       12       12       14       24 </v>
   <v type="int" >       12       12       14       14       24 </v>
   <v type="int" >       12       12       14       24       24 </v>
   <v type="int" >       12       12       12       22       24 </v>
   <v type="int" >       12       12       22       22       24 </v>
   <v type="int" >       12       12       22       24       24 </v>
   <v type="int" >       12        9        9       12       22 </v>
   <v type="int" >       12        9       12       12       22 </v>
   <v type="int" >       12        9       12       22       22 </v>
   <v type="int" >       12        9        9       19       22 </v>
   <v type="int" >       12        9       19       19       22 </v>
   <v type="int" >       12        9       19       22       22 </v>
   <v type="int" >       12        5        5        9       19 </v>
   <v type="int" >       12        5        9        9       19 </v>
   <v type="int" >       12        5        9       19       19 </v>
   <v type="int" >       24        5        5        5        9 </v>
   <v type="int" >       12       13       14       15       25 </v>
   <v type="int" >       12       13       14       24       25 </v>
   <v type="int" >       12       13       23       24       25 </v>
   <v type="int" >       12       11       12       14       24 </v>
   <v type="int" >       12       11       13       14       24 </v>
   <v type="int" >       12       11       13       23       24 </v>
   <v type="int" >       12       11       12       22       24 </v>
   <v type="int" >       12       11       21       22       24 </v>
   <v type="int" >       12       11       21       23       24 </v>
   <v type="int" >       12        8        9       12       22 </v>
   <v type="int" >       12        8       11       12       22 </v>
   <v type="int" >       12        8       11       21       22 </v>
   <v type="int" >       12        8        9       19       22 </v>
   <v type="int" >       12        8       18       19       22 </v>
   <v type="int" >       12        8       18       21       22 </v>
   <v type="int" >       12        4        5        9       19 </v>
   <v type="int" >       12        4        8        9       19 </v>
   <v type="int" >       12        4        8       18       19 </v>
   <v type="int" >       12        4        5        5        9 </v>
   <v type="int" >       12        4        4        5        9 </v>
   <v type="int" >       12        4        4        8        9 </v>
   <v type="int" >       12        4        5        9        9 </v>
   <v type="int" >       12        4        8        9        9 </v>
   <v type="int" >       12       10       11       13       23 </v>
   <v type="int" >       12       10       11       21       23 </v>
   <v type="int" >       12       10       20       21       23 </v>
   <v type="int" >       12        7        8       11       21 </v>
   <v type="int" >       12        7       10       11       21 </v>
   <v type="int" >       12        7       10       20       21 </v>
   <v type="int" >       12        7        8       18       21 </v>
   <v type="int" >       12        7       17       18       21 </v>
   <v type="int" >       12        7       17       20       21 </v>
   <v type="int" >       12        3        4        8       18 </v>
   <v type="int" >       12        3        7        8       18 </v>
   <v type="int" >       12        3        7       17       18 </v>
   <v type="int" >       12        3        4        4        8 </v>
   <v type="int" >       12        3        3        4        8 </v>
   <v type="int" >       12        3        3        7        8 </v>
   <v type="int" >       12        3        4        8        8 </v>
   <v type="int" >       12        3        7        8        8 </v>
   <v type="int" >       12        6        7       10       20 </v>
   <v type="int" >       12        6        7       17       20 </v>
   <v type="int" >       12        6       16       17       20 </v>
   <v type="int" >       12        2        3        7       17 </v>
   <v type="int" >       12        2        6        7       17 </v>
   <v type="int" >       12        2        6       16       17 </v>
   <v type="int" >       12        2        3        3        7 </v>
   <v type="int" >       12        2        2        3        7 </v>
   <v type="int" >       12        2        2        6        7 </v>
   <v type="int" >       12        2        3        7        7 </v>
   <v type="int" >       12        2        6        7        7 </v>
   <v type="int" >       12        1        2        6       16 </v>
   <v type="int" >       12        1        1        2        6 </v>
   <v type="int" >       12        1        2        6        6 </v>
   <v type="int" >       12        1        1        1        2 </v>
   <v type="int" >       12       16       17       17       20 </v>
   <v type="int" >       12       17       17       20       20 </v>
   <v type="int" >       12       17       20       20       26 </v>
   <v type="int" >       12       17       18       20       21 </v>
   <v type="int" >       12       17       20       20       21 </v>
   <v type="int" >       12       20       20       21       26 </v>
   <v type="int" >       12       18       20       21       21 </v>
   <v type="int" >       24       20       21       21       27 </v>
   <v type="int" >       24       20       21       26       27 </v>
   <v type="int" >       12       18       19       21       22 </v>
   <v type="int" >       12       18       21       21       22 </v>
   <v type="int" >       12       21       21       22       27 </v>
   <v type="int" >       12       19       21       22       22 </v>
   <v type="int" >       12       21       22       22       28 </v>
   <v type="int" >       12       21       22       27       28 </v>
   <v type="int" >        6       19       19       22       22 </v>
   <v type="int" >       12       19       22       22       22 </v>
   <v type="int" >       12       22       22       22       28 </v>
   <v type="int" >        6       22       22       28       28 </v>
   <v type="int" >        6        6        6        7        7 </v>
   <v type="int" >       12        6        7        7        7 </v>
   <v type="int" >       12        7        7        7       10 </v>
   <v type="int" >        6        7        7       10       10 </v>
   <v type="int" >       12       20       21       23       26 </v>
   <v type="int" >       12       21       23       26       27 </v>
   <v type="int" >       12       23       26       27       29 </v>
   <v type="int" >       12       21       22       24       27 </v>
   <v type="int" >       12       21       23       24       27 </v>
   <v type="int" >       12       23       24       27       29 </v>
   <v type="int" >       12       22       24       27       28 </v>
   <v type="int" >       12       24       27       28       30 </v>
   <v type="int" >       12       24       27       29       30 </v>
   <v type="int" >       12       22       22       24       28 </v>
   <v type="int" >       12       22       24       24       28 </v>
   <v type="int" >       12       24       24       28       30 </v>
   <v type="int" >       12       22       24       28       28 </v>
   <v type="int" >       12       24       28       28       30 </v>
   <v type="int" >       12       24       28       30       30 </v>
   <v type="int" >       12       21       22       23       28 </v>
   <v type="int" >       12       22       23       24       28 </v>
   <v type="int" >       12       23       24       28       30 </v>
   <v type="int" >       12       21       23       27       28 </v>
   <v type="int" >       12       23       27       28       29 </v>
   <v type="int" >       12       23       28       29       30 </v>
   <v type="int" >       12       21       21       23       27 </v>
   <v type="int" >       12       21       23       27       29 </v>
   <v type="int" >       12       21       26       27       27 </v>
   <v type="int" >       12       21       27       27       29 </v>
   <v type="int" >       12       17       18       20       26 </v>
   <v type="int" >       12       18       20       21       26 </v>
   <v type="int" >       12       18       21       26       27 </v>
   <v type="int" >       12        7        7        8       10 </v>
   <v type="int" >       12        7        8        8       10 </v>
   <v type="int" >       12        8        8       10       11 </v>
   <v type="int" >       12        7        8       10       10 </v>
   <v type="int" >       12        8       10       10       11 </v>
   <v type="int" >       12        8       10       11       11 </v>
   <v type="int" >       12       23       24       25       29 </v>
   <v type="int" >       12       24       25       29       30 </v>
   <v type="int" >       12       25       29       30       31 </v>
   <v type="int" >       24       24       24       25       30 </v>
   <v type="int" >       12       24       25       25       30 </v>
   <v type="int" >       12       25       25       30       31 </v>
   <v type="int" >       12       24       25       30       30 </v>
   <v type="int" >       12       25       30       30       31 </v>
   <v type="int" >       12       25       30       31       31 </v>
   <v type="int" >       12       23       24       24       30 </v>
   <v type="int" >       12       24       25       30       31 </v>
   <v type="int" >       12       23       24       29       30 </v>
   <v type="int" >       12       24       29       30       30 </v>
   <v type="int" >       24       24       30       30       31 </v>
   <v type="int" >       12       21       22       23       29 </v>
   <v type="int" >       12       22       23       24       29 </v>
   <v type="int" >       12       22       24       29       30 </v>
   <v type="int" >       12       21       22       27       29 </v>
   <v type="int" >       12       22       27       28       29 </v>
   <v type="int" >       12       22       28       29       30 </v>
   <v type="int" >       12       18       19       21       27 </v>
   <v type="int" >       12       19       21       22       27 </v>
   <v type="int" >       12       19       22       27       28 </v>
   <v type="int" >       12        8        8        9       11 </v>
   <v type="int" >       12        8        9        9       11 </v>
   <v type="int" >       12        9        9       11       12 </v>
   <v type="int" >       12        8        9       11       11 </v>
   <v type="int" >       12        9       11       11       12 </v>
   <v type="int" >       12        9       11       12       12 </v>
   <v type="int" >       12       25       25       25       31 </v>
   <v type="int" >       12       25       25       31       31 </v>
   <v type="int" >       12       25       31       31       31 </v>
   <v type="int" >       12       24       24       25       31 </v>
   <v type="int" >       12       24       25       25       31 </v>
   <v type="int" >       12       24       25       31       31 </v>
   <v type="int" >       12       24       24       30       31 </v>
   <v type="int" >       12       24       30       31       31 </v>
   <v type="int" >       12       22       22       24       30 </v>
   <v type="int" >       12       22       24       24       30 </v>
   <v type="int" >       12       22       24       30       30 </v>
   <v type="int" >       12       22       22       28       30 </v>
   <v type="int" >       12       22       28       28       30 </v>
   <v type="int" >       12       22       28       30       30 </v>
   <v type="int" >       12       19       19       22       28 </v>
   <v type="int" >       12       19       22       22       28 </v>
   <v type="int" >       12       19       22       28       28 </v>
   <v type="int" >       24        9        9        9       12 </v>
   <v type="int" >       24        9        9       12       12 </v>
   <v type="int" >       24        9       12       12       12 </v>
   <v type="int" >       12       23       24       25       31 </v>
   <v type="int" >       12       23       24       30       31 </v>
   <v type="int" >       12       23       29       30       31 </v>
   <v type="int" >       12       21       22       24       30 </v>
   <v type="int" >       12       21       23       24       30 </v>
   <v type="int" >       12       21       23       29       30 </v>
   <v type="int" >       12       21       22       28       30 </v>
   <v type="int" >       12       21       27       28       30 </v>
   <v type="int" >       12       21       27       29       30 </v>
   <v type="int" >       12       18       19       22       28 </v>
   <v type="int" >       12       18       21       22       28 </v>
   <v type="int" >       12       18       21       27       28 </v>
   <v type="int" >       12        8        9        9       12 </v>
   <v type="int" >       12        8        8        9       12 </v>
   <v type="int" >       12        8        8       11       12 </v>
   <v type="int" >       12        8        9       12       12 </v>
   <v type="int" >       12        8       11       12       12 </v>
   <v type="int" >       12        8       11       11       12 </v>
   <v type="int" >       12       20       21       23       29 </v>
   <v type="int" >       12       20       21       27       29 </v>
   <v type="int" >       12       20       26       27       29 </v>
   <v type="int" >       12       17       18       21       27 </v>
   <v type="int" >       12       17       20       21       27 </v>
   <v type="int" >       12       17       20       26       27 </v>
   <v type="int" >       12        7        8        8       11 </v>
   <v type="int" >       12        7        7        8       11 </v>
   <v type="int" >       12        7        7       10       11 </v>
   <v type="int" >       12        7        8       11       11 </v>
   <v type="int" >       12        7       10       11       11 </v>
   <v type="int" >       12        7       10       10       11 </v>
   <v type="int" >       12       16       17       20       26 </v>
   <v type="int" >       12        6        7        7       10 </v>
   <v type="int" >       12        6        6        7       10 </v>
   <v type="int" >       12        6        7       10       10 </v>
   <v type="int" >       12        2        2        2        3 </v>
   <v type="int" >       12        2        2        3        3 </v>
   <v type="int" >       12        2        3        3        3 </v>
   <v type="int" >       12       26       27       27       29 </v>
   <v type="int" >       12       27       27       29       29 </v>
   <v type="int" >       12       27       29       29       32 </v>
   <v type="int" >       12       27       28       29       30 </v>
   <v type="int" >       12       27       29       29       30 </v>
   <v type="int" >       12       29       29       30       32 </v>
   <v type="int" >       12       28       29       30       30 </v>
   <v type="int" >       24       29       30       30       33 </v>
   <v type="int" >       24       29       30       32       33 </v>
   <v type="int" >        6       28       28       30       30 </v>
   <v type="int" >       12       28       30       30       30 </v>
   <v type="int" >       12       30       30       30       33 </v>
   <v type="int" >        6       30       30       33       33 </v>
   <v type="int" >        6       10       10       11       11 </v>
   <v type="int" >       12       10       11       11       11 </v>
   <v type="int" >       12       11       11       11       13 </v>
   <v type="int" >        6       11       11       13       13 </v>
   <v type="int" >       12       29       30       31       32 </v>
   <v type="int" >       12       30       31       32       33 </v>
   <v type="int" >       12       31       32       33       34 </v>
   <v type="int" >       24       30       30       31       33 </v>
   <v type="int" >       12       30       31       31       33 </v>
   <v type="int" >       12       31       31       33       34 </v>
   <v type="int" >       12       30       31       33       33 </v>
   <v type="int" >       12       31       33       33       34 </v>
   <v type="int" >       12       31       33       34       34 </v>
   <v type="int" >       12       30       31       33       34 </v>
   <v type="int" >       12       30       32       33       33 </v>
   <v type="int" >       24       30       33       33       34 </v>
   <v type="int" >       12       27       28       29       32 </v>
   <v type="int" >       12       28       29       30       32 </v>
   <v type="int" >       12       28       30       32       33 </v>
   <v type="int" >       12       11       11       12       13 </v>
   <v type="int" >       12       11       12       12       13 </v>
   <v type="int" >       12       12       12       13       14 </v>
   <v type="int" >       12       11       12       13       13 </v>
   <v type="int" >       12       12       13       13       14 </v>
   <v type="int" >       12       12       13       14       14 </v>
   <v type="int" >       12       31       31       31       34 </v>
   <v type="int" >       12       31       31       34       34 </v>
   <v type="int" >       12       31       34       34       34 </v>
   <v type="int" >       12       30       30       31       34 </v>
   <v type="int" >       12       30       31       31       34 </v>
   <v type="int" >       12       30       31       34       34 </v>
   <v type="int" >       12       30       30       33       34 </v>
   <v type="int" >       12       30       33       34       34 </v>
   <v type="int" >       12       28       28       30       33 </v>
   <v type="int" >       12       28       30       30       33 </v>
   <v type="int" >       12       28       30       33       33 </v>
   <v type="int" >       24       12       12       12       14 </v>
   <v type="int" >       24       12       12       14       14 </v>
   <v type="int" >       24       12       14       14       14 </v>
   <v type="int" >       12       29       30       31       34 </v>
   <v type="int" >       12       29       30       33       34 </v>
   <v type="int" >       12       29       32       33       34 </v>
   <v type="int" >       12       27       28       30       33 </v>
   <v type="int" >       12       27       29       30       33 </v>
   <v type="int" >       12       27       29       32       33 </v>
   <v type="int" >       12       11       12       12       14 </v>
   <v type="int" >       12       11       11       12       14 </v>
   <v type="int" >       12       11       11       13       14 </v>
   <v type="int" >       12       11       12       14       14 </v>
   <v type="int" >       12       11       13       14       14 </v>
   <v type="int" >       12       11       13       13       14 </v>
   <v type="int" >       12       26       27       29       32 </v>
   <v type="int" >       12       10       11       11       13 </v>
   <v type="int" >       12       10       10       11       13 </v>
   <v type="int" >       12       10       11       13       13 </v>
   <v type="int" >       12        3        3        3        4 </v>
   <v type="int" >       12        3        3        4        4 </v>
   <v type="int" >       12        3        4        4        4 </v>
   <v type="int" >       12       32       33       33       34 </v>
   <v type="int" >       18       33       33       34       34 </v>
   <v type="int" >       24       33       34       34       35 </v>
   <v type="int" >       12       33       34       34       34 </v>
   <v type="int" >       24       34       34       34       35 </v>
   <v type="int" >       18       34       34       35       35 </v>
   <v type="int" >        6       13       13       14       14 </v>
   <v type="int" >       12       13       14       14       14 </v>
   <v type="int" >       36       14       14       14       15 </v>
   <v type="int" >       30       14       14       15       15 </v>
   <v type="int" >       12       34       35       35       35 </v>
   <v type="int" >       12       33       33       34       35 </v>
   <v type="int" >       12       33       34       35       35 </v>
   <v type="int" >       24       14       15       15       15 </v>
   <v type="int" >       12       32       33       34       35 </v>
   <v type="int" >       12       13       14       14       15 </v>
   <v type="int" >       12       13       13       14       15 </v>
   <v type="int" >       12       13       14       15       15 </v>
   <v type="int" >       12        4        4        4        5 </v>
   <v type="int" >       12        4        4        5        5 </v>
   <v type="int" >       12        4        5        5        5 </v>
   <v type="int" >        6       35       35       35       35 </v>
   <v type="int" >       18       15       15       15       15 </v>
   <v type="int" >       18        5        5        5        5 </v>
   <v type="int" >        6        1        1        1        1 </v>
  </varray>
  <i name="volumeweight">      0.00016667 </i>
 </kpoints>
 <parameters>
  <separator name="general" >
   <i type="string" name="SYSTEM">unknown system</i>
   <i type="logical" name="LCOMPAT"> F  </i>
  </separator>
  <separator name="electronic" >
   <i type="string" name="PREC">accura</i>
   <i name="ENMAX">    460.00000000</i>
   <i name="ENAUG">    578.34200000</i>
   <i name="EDIFF">      0.00000010</i>
   <i type="int" name="IALGO">    38</i>
   <i type="int" name="IWAVPR">    10</i>
   <i type="int" name="NBANDS">    24</i>
   <i name="NELECT">     28.00000000</i>
   <i type="int" name="TURBO">     0</i>
   <i type="int" name="IRESTART">     0</i>
   <i type="int" name="NREBOOT">     0</i>
   <i type="int" name="NMIN">     0</i>
   <i name="EREF">      0.00000000</i>
   <separator name="electronic smearing" >
    <i type="int" name="ISMEAR">    -5</i>
    <i name="SIGMA">      0.05000000</i>
    <i name="KSPACING">      0.50000000</i>
    <i type="logical" name="KGAMMA"> T  </i>
   </separator>
   <separator name="electronic projectors" >
    <i type="logical" name="LREAL"> T  </i>
    <v name="ROPT">     -0.00025000</v>
    <i type="int" name="LMAXPAW">  -100</i>
    <i type="int" name="LMAXMIX">     2</i>
    <i type="logical" name="NLSPLINE"> F  </i>
   </separator>
   <separator name="electronic startup" >
    <i type="int" name="ISTART">     0</i>
    <i type="int" name="ICHARG">     2</i>
    <i type="int" name="INIWAV">     1</i>
   </separator>
   <separator name="electronic spin" >
    <i type="int" name="ISPIN">     2</i>
    <i type="logical" name="LNONCOLLINEAR"> F  </i>
    <v name="MAGMOM">      5.00000000      5.00000000</v>
    <i name="NUPDOWN">     -1.00000000</i>
    <i type="logical" name="LSORBIT"> F  </i>
    <v name="SAXIS">      0.00000000      0.00000000      1.00000000</v>
    <i type="logical" name="LSPIRAL"> F  </i>
    <v name="QSPIRAL">      0.00000000      0.00000000      0.00000000</v>
    <i type="logical" name="LZEROZ"> F  </i>
   </separator>
   <separator name="electronic exchange-correlation" >
    <i type="logical" name="LASPH"> F  </i>
    <i type="logical" name="LMETAGGA"> F  </i>
   </separator>
   <separator name="electronic convergence" >
    <i type="int" name="NELM">   100</i>
    <i type="int" name="NELMDL">    -5</i>
    <i type="int" name="NELMIN">     2</i>
    <i name="ENINI">    460.00000000</i>
    <separator name="electronic convergence detail" >
     <i type="logical" name="LDIAG"> T  </i>
     <i type="logical" name="LSUBROT"> F  </i>
     <i name="WEIMIN">      0.00000000</i>
     <i name="EBREAK">      0.00000000</i>
     <i name="DEPER">      0.30000000</i>
     <i type="int" name="NRMM">     4</i>
     <i name="TIME">      0.40000000</i>
    </separator>
   </separator>
   <separator name="electronic mixer" >
    <i name="AMIX">      0.40000000</i>
    <i name="BMIX">      1.00000000</i>
    <i name="AMIN">      0.10000000</i>
    <i name="AMIX_MAG">      1.60000000</i>
    <i name="BMIX_MAG">      1.00000000</i>
    <separator name="electronic mixer details" >
     <i type="int" name="IMIX">     4</i>
     <i type="logical" name="MIXFIRST"> F  </i>
     <i type="int" name="MAXMIX">   -45</i>
     <i name="WC">    100.00000000</i>
     <i type="int" name="INIMIX">     1</i>
     <i type="int" name="MIXPRE">     1</i>
     <i type="int" name="MREMOVE">     5</i>
    </separator>
   </separator>
   <separator name="electronic dipolcorrection" >
    <i type="logical" name="LDIPOL"> F  </i>
    <i type="logical" name="LMONO"> F  </i>
    <i type="int" name="IDIPOL">     0</i>
    <i name="EPSILON">      1.00000000</i>
    <v name="DIPOL">   -100.00000000   -100.00000000   -100.00000000</v>
    <i name="EFIELD">      0.00000000</i>
   </separator>
  </separator>
  <separator name="grids" >
   <i type="int" name="NGX">    20</i>
   <i type="int" name="NGY">    20</i>
   <i type="int" name="NGZ">    20</i>
   <i type="int" name="NGXF">    40</i>
   <i type="int" name="NGYF">    40</i>
   <i type="int" name="NGZF">    40</i>
   <i type="logical" name="ADDGRID"> F  </i>
  </separator>
  <separator name="ionic" >
   <i type="int" name="NSW">     0</i>
   <i type="int" name="IBRION">    -1</i>
   <i type="int" name="MDALGO">     0</i>
   <i type="int" name="ISIF">     3</i>
   <i name="PSTRESS">      0.00000000</i>
   <i name="EDIFFG">      0.00000100</i>
   <i type="int" name="NFREE">     0</i>
   <i name="POTIM">      0.50000000</i>
   <i name="SMASS">     -3.00000000</i>
   <i name="SCALEE">      1.00000000</i>
  </separator>
  <separator name="ionic md" >
   <i name="TEBEG">      0.00010000</i>
   <i name="TEEND">      0.00010000</i>
   <i type="int" name="NBLOCK">     1</i>
   <i type="int" name="KBLOCK">     1</i>
   <i type="int" name="NPACO">   256</i>
   <i name="APACO">     16.00000000</i>
  </separator>
  <separator name="symmetry" >
   <i type="int" name="ISYM">     2</i>
   <i name="SYMPREC">      0.00001000</i>
  </separator>
  <separator name="dos" >
   <i type="int" name="LORBIT">    11</i>
   <v name="RWIGS">     -1.00000000</v>
   <i type="int" name="NEDOS">   301</i>
   <i name="EMIN">     10.00000000</i>
   <i name="EMAX">    -10.00000000</i>
   <i name="EFERMI">      0.00000000</i>
  </separator>
  <separator name="writing" >
   <i type="int" name="NWRITE">     2</i>
   <i type="logical" name="LWAVE"> F  </i>
   <i type="logical" name="LDOWNSAMPLE"> F  </i>
   <i type="logical" name="LCHARG"> F  </i>
   <i type="logical" name="LPARD"> F  </i>
   <i type="logical" name="LVTOT"> F  </i>
   <i type="logical" name="LVHAR"> F  </i>
   <i type="logical" name="LELF"> F  </i>
   <i type="logical" name="LOPTICS"> F  </i>
   <v name="STM">      0.00000000      0.00000000      0.00000000      0.00000000      0.00000000      0.00000000      0.00000000</v>
  </separator>
  <separator name="performance" >
   <i type="int" name="NPAR">     6</i>
   <i type="int" name="NSIM">     4</i>
   <i type="int" name="NBLK">    -1</i>
   <i type="logical" name="LPLANE"> T  </i>
   <i type="logical" name="LSCALAPACK"> T  </i>
   <i type="logical" name="LSCAAWARE"> F  </i>
   <i type="logical" name="LSCALU"> F  </i>
   <i type="logical" name="LASYNC"> F  </i>
   <i type="logical" name="LORBITALREAL"> F  </i>
  </separator>
  <separator name="miscellaneous" >
   <i type="int" name="IDIOT">     3</i>
   <i type="int" name="ISPECIAL">     0</i>
   <i type="logical" name="LMUSIC"> F  </i>
   <v name="POMASS">     55.84700000</v>
   <v name="DARWINR">      0.00000000</v>
   <v name="DARWINV">      1.00000000</v>
   <i type="logical" name="LCORR"> T  </i>
  </separator>
  <i type="logical" name="GGA_COMPAT"> T  </i>
  <i type="logical" name="LBERRY"> F  </i>
  <i type="int" name="ICORELEVEL">     0</i>
  <i type="logical" name="LDAU"> F  </i>
  <i type="int" name="I_CONSTRAINED_M">     0</i>
  <separator name="electronic exchange-correlation" >
   <i type="string" name="GGA">--</i>
   <i type="int" name="VOSKOWN">     0</i>
   <i type="logical" name="LHFCALC"> F  </i>
   <i type="string" name="PRECFOCK"></i>
   <i type="logical" name="LSYMGRAD"> F  </i>
   <i type="logical" name="LHFONE"> F  </i>
   <i type="logical" name="LRHFCALC"> F  </i>
   <i type="logical" name="LTHOMAS"> F  </i>
   <i type="logical" name="LMODELHF"> F  </i>
   <i name="ENCUT4O">     -1.00000000</i>
   <i type="int" name="EXXOEP">     0</i>
   <i type="int" name="FOURORBIT">     0</i>
   <i name="AEXX">      0.00000000</i>
   <i name="HFALPHA">      0.00000000</i>
   <i name="MCALPHA">      0.00000000</i>
   <i name="ALDAX">      1.00000000</i>
   <i name="AGGAX">      1.00000000</i>
   <i name="ALDAC">      1.00000000</i>
   <i name="AGGAC">      1.00000000</i>
   <i type="int" name="NKREDX">     1</i>
   <i type="int" name="NKREDY">     1</i>
   <i type="int" name="NKREDZ">     1</i>
   <i type="logical" name="SHIFTRED"> F  </i>
   <i type="logical" name="ODDONLY"> F  </i>
   <i type="logical" name="EVENONLY"> F  </i>
   <i type="int" name="LMAXFOCK">     0</i>
   <i type="int" name="NMAXFOCKAE">     0</i>
   <i type="logical" name="LFOCKAEDFT"> F  </i>
   <i name="HFSCREEN">      0.00000000</i>
   <i name="HFSCREENC">      0.00000000</i>
   <i type="int" name="NBANDSGWLOW">     0</i>
  </separator>
  <separator name="vdW DFT" >
   <i type="logical" name="LUSE_VDW"> F  </i>
   <i name="Zab_VDW">     -0.84910000</i>
   <i name="PARAM1">      0.12340000</i>
   <i name="PARAM2">      1.00000000</i>
   <i name="PARAM3">      0.00000000</i>
  </separator>
  <separator name="model GW" >
   <i type="int" name="MODEL_GW">     0</i>
   <i name="MODEL_EPS0">      6.87226868</i>
   <i name="MODEL_ALPHA">      1.00000000</i>
  </separator>
  <separator name="linear response parameters" >
   <i type="logical" name="LEPSILON"> F  </i>
   <i type="logical" name="LRPA"> F  </i>
   <i type="logical" name="LNABLA"> F  </i>
   <i type="logical" name="LVEL"> F  </i>
   <i type="int" name="KINTER">     0</i>
   <i name="CSHIFT">      0.10000000</i>
   <i name="OMEGAMAX">     -1.00000000</i>
   <i name="DEG_THRESHOLD">      0.00200000</i>
   <i name="RTIME">     -0.10000000</i>
   <i name="WPLASMAI">      0.00000000</i>
   <v name="DFIELD">      0.00000000      0.00000000      0.00000000</v>
   <v name="WPLASMA">      0.00000000      0.00000000      0.00000000      0.00000000      0.00000000      0.00000000      0.00000000      0.00000000      0.00000000</v>
  </separator>
  <separator name="orbital magnetization" >
   <i type="logical" name="NUCIND"> F  </i>
   <v name="MAGPOS">      0.00000000      0.00000000      0.00000000</v>
   <i type="logical" name="LNICSALL"> T  </i>
   <i type="logical" name="ORBITALMAG"> F  </i>
   <i type="logical" name="LMAGBLOCH"> F  </i>
   <i type="logical" name="LCHIMAG"> F  </i>
   <i type="logical" name="LGAUGE"> T  </i>
   <i type="int" name="MAGATOM">     0</i>
   <v name="MAGDIPOL">      0.00000000      0.00000000      0.00000000</v>
   <v name="AVECCONST">      0.00000000      0.00000000      0.00000000</v>
  </separator>
  <separator name="response functions" >
   <i type="logical" name="LADDER"> F  </i>
   <i type="logical" name="LRPAFORCE"> F  </i>
   <i type="logical" name="LFXC"> F  </i>
   <i type="logical" name="LHARTREE"> T  </i>
   <i type="int" name="IBSE">     0</i>
   <v type="int" name="KPOINT">    -1     0     0     0</v>
   <i type="logical" name="LTCTE"> F  </i>
   <i type="logical" name="LTETE"> F  </i>
   <i type="logical" name="LTRIPLET"> F  </i>
   <i type="logical" name="LFXCEPS"> F  </i>
   <i type="logical" name="LFXHEG"> F  </i>
   <i type="int" name="NATURALO">     2</i>
   <i type="logical" name="L2ORDER"> F  </i>
   <i type="logical" name="LMP2LT"> F  </i>
   <i type="logical" name="LUSEW"> F  </i>
   <i name="ENCUTGW">     -2.00000000</i>
   <i name="ENCUTGWSOFT">     -2.00000000</i>
   <i name="ENCUTLF">     -1.00000000</i>
   <i type="int" name="LMAXMP2">    -1</i>
   <i name="SCISSOR">      0.00000000</i>
   <i type="int" name="NOMEGA">     0</i>
   <i type="int" name="NOMEGAR">     0</i>
   <i type="int" name="NBANDSGW">    -1</i>
   <i type="int" name="NBANDSO">    -1</i>
   <i type="int" name="NBANDSV">    -1</i>
   <i type="int" name="NELM">   100</i>
   <i type="int" name="NELMHF">     1</i>
   <i type="int" name="DIM">     3</i>
   <i type="int" name="ANTIRES">     0</i>
   <i name="OMEGAMAX">    -30.00000000</i>
   <i name="OMEGAMIN">    -30.00000000</i>
   <i name="OMEGATL">   -200.00000000</i>
   <i type="int" name="OMEGAGRID">   140</i>
   <i name="CSHIFT">     -0.10000000</i>
   <i type="logical" name="SELFENERGY"> F  </i>
   <i type="logical" name="LSPECTRAL"> F  </i>
   <i type="logical" name="LSPECTRALGW"> F  </i>
   <i type="logical" name="LSINGLES"> F  </i>
   <i type="logical" name="LFERMIGW"> F  </i>
   <i type="logical" name="ODDONLYGW"> F  </i>
   <i type="logical" name="EVENONLYGW"> F  </i>
   <i type="int" name="NKREDLFX">     1</i>
   <i type="int" name="NKREDLFY">     1</i>
   <i type="int" name="NKREDLFZ">     1</i>
   <i type="int" name="MAXMEM">  2800</i>
   <i type="int" name="TELESCOPE">     0</i>
   <i type="int" name="TAUPAR">     1</i>
   <i type="int" name="OMEGAPAR">    -1</i>
   <i name="LAMBDA">      1.00000000</i>
  </separator>
  <separator name="External order field" >
   <i name="OFIELD_KAPPA">      0.00000000</i>
   <v name="OFIELD_K">      0.00000000      0.00000000      0.00000000</v>
   <i name="OFIELD_Q6_NEAR">      0.00000000</i>
   <i name="OFIELD_Q6_FAR">      0.00000000</i>
   <i name="OFIELD_A">      0.00000000</i>
  </separator>
 </parameters>
 <atominfo>
  <atoms>       2 </atoms>
  <types>       1 </types>
  <array name="atoms" >
   <dimension dim="1">ion</dimension>
   <field type="string">element</field>
   <field type="int">atomtype</field>
   <set>
    <rc><c>Fe</c><c>   1</c></rc>
    <rc><c>Fe</c><c>   1</c></rc>
   </set>
  </array>
  <array name="atomtypes" >
   <dimension dim="1">type</dimension>
   <field type="int">atomspertype</field>
   <field type="string">element</field>
   <field>mass</field>
   <field>valence</field>
   <field type="string">pseudopotential</field>
   <set>
    <rc><c>   2</c><c>Fe</c><c>     55.84700000</c><c>     14.00000000</c><c>  PAW_PBE Fe_pv 02Aug2007               </c></rc>
   </set>
  </array>
 </atominfo>
 <structure name="initialpos" >
  <crystal>
   <varray name="basis" >
    <v>       2.84005200       0.00000000       0.00000000 </v>
    <v>       0.00000000       2.84005200       0.00000000 </v>
    <v>       0.00000000       0.00000000       2.84005200 </v>
   </varray>
   <i name="volume">     22.90756226 </i>
   <varray name="rec_basis" >
    <v>       0.35210623       0.00000000       0.00000000 </v>
    <v>       0.00000000       0.35210623       0.00000000 </v>
    <v>       0.00000000       0.00000000       0.35210623 </v>
   </varray>
  </crystal>
  <varray name="positions" >
   <v>       0.00000000       0.00000000       0.00000000 </v>
   <v>       0.50000000       0.50000000       0.50000000 </v>
  </varray>
 </structure>
 <calculation>
  <scstep>
   <time name="dav">    0.41    0.42</time>
   <time name="total">    0.46    0.47</time>
   <energy>
    <i name="alphaZ">    218.87048721 </i>
    <i name="ewald">  -3616.56080017 </i>
    <i name="hartreedc">  -1162.86386254 </i>
    <i name="XCdc">    147.54620390 </i>
    <i name="pawpsdc">   3997.93860218 </i>
    <i name="pawaedc">  -4177.34792201 </i>
    <i name="eentropy">      0.00000000 </i>
    <i name="bandstr">   -127.29969505 </i>
    <i name="atom">   4914.82259324 </i>
    <i name="e_fr_energy">    195.10560676 </i>
    <i name="e_wo_entrp">    195.10560676 </i>
    <i name="e_0_energy">    195.10560676 </i>
   </energy>
  </scstep>
  <scstep>
   <time name="dav">    0.38    0.39</time>
   <time name="total">    0.42    0.42</time>
   <energy>
    <i name="e_fr_energy">    -10.84536214 </i>
    <i name="e_wo_entrp">    -10.84536214 </i>
    <i name="e_0_energy">    -10.84536214 </i>
   </energy>
  </scstep>
  <scstep>
   <time name="dav">    0.41    0.42</time>
   <time name="total">    0.45    0.45</time>
   <energy>
    <i name="e_fr_energy">    -16.22935201 </i>
    <i name="e_wo_entrp">    -16.22935201 </i>
    <i name="e_0_energy">    -16.22935201 </i>
   </energy>
  </scstep>
  <scstep>
   <time name="dav">    0.44    0.44</time>
   <time name="total">    0.47    0.47</time>
   <energy>
    <i name="e_fr_energy">    -16.27123134 </i>
    <i name="e_wo_entrp">    -16.27123134 </i>
    <i name="e_0_energy">    -16.27123134 </i>
   </energy>
  </scstep>
  <scstep>
   <time name="dav">    0.42    0.42</time>
   <time name="total">    0.46    0.46</time>
   <energy>
    <i name="e_fr_energy">    -16.27200019 </i>
    <i name="e_wo_entrp">    -16.27200019 </i>
    <i name="e_0_energy">    -16.27200019 </i>
   </energy>
  </scstep>
  <scstep>
   <time name="dav">    0.38    0.38</time>
   <time name="total">    0.44    0.44</time>
   <energy>
    <i name="e_fr_energy">    -16.43550233 </i>
    <i name="e_wo_entrp">    -16.43550233 </i>
    <i name="e_0_energy">    -16.43550233 </i>
   </energy>
  </scstep>
  <scstep>
   <time name="dav">    0.38    0.38</time>
   <time name="total">    0.43    0.43</time>
   <energy>
    <i name="e_fr_energy">    -16.50658268 </i>
    <i name="e_wo_entrp">    -16.50658268 </i>
    <i name="e_0_energy">    -16.50658268 </i>
   </energy>
  </scstep>
  <scstep>
   <time name="dav">    0.42    0.42</time>
   <time name="total">    0.47    0.47</time>
   <energy>
    <i name="e_fr_energy">    -16.51846648 </i>
    <i name="e_wo_entrp">    -16.51846648 </i>
    <i name="e_0_energy">    -16.51846648 </i>
   </energy>
  </scstep>
  <scstep>
   <time name="dav">    0.39    0.39</time>
   <time name="total">    0.45    0.45</time>
   <energy>
    <i name="e_fr_energy">    -16.51105653 </i>
    <i name="e_wo_entrp">    -16.51105653 </i>
    <i name="e_0_energy">    -16.51105653 </i>
   </energy>
  </scstep>
  <scstep>
   <time name="dav">    0.38    0.38</time>
   <time name="total">    0.44    0.44</time>
   <energy>
    <i name="e_fr_energy">    -16.51100493 </i>
    <i name="e_wo_entrp">    -16.51100493 </i>
    <i name="e_0_energy">    -16.51100493 </i>
   </energy>
  </scstep>
  <scstep>
   <time name="dav">    0.40    0.40</time>
   <time name="total">    0.46    0.46</time>
   <energy>
    <i name="e_fr_energy">    -16.51107332 </i>
    <i name="e_wo_entrp">    -16.51107332 </i>
    <i name="e_0_energy">    -16.51107332 </i>
   </energy>
  </scstep>
  <scstep>
   <time name="dav">    0.41    0.42</time>
   <time name="total">    0.47    0.47</time>
   <energy>
    <i name="e_fr_energy">    -16.51108057 </i>
    <i name="e_wo_entrp">    -16.51108057 </i>
    <i name="e_0_energy">    -16.51108057 </i>
   </energy>
  </scstep>
  <scstep>
   <time name="dav">    0.39    0.39</time>
   <time name="total">    0.44    0.45</time>
   <energy>
    <i name="e_fr_energy">    -16.51107274 </i>
    <i name="e_wo_entrp">    -16.51107274 </i>
    <i name="e_0_energy">    -16.51107274 </i>
   </energy>
  </scstep>
  <scstep>
   <time name="dav">    0.33    0.33</time>
   <time name="total">    0.38    0.38</time>
   <energy>
    <i name="e_fr_energy">    -16.51107232 </i>
    <i name="e_wo_entrp">    -16.51107232 </i>
    <i name="e_0_energy">    -16.51107232 </i>
   </energy>
  </scstep>
  <scstep>
   <time name="dav">    0.25    0.25</time>
   <time name="total">    0.30    0.30</time>
   <energy>
    <i name="e_fr_energy">    -16.51107246 </i>
    <i name="e_wo_entrp">    -16.51107246 </i>
    <i name="e_0_energy">    -16.51107246 </i>
   </energy>
  </scstep>
  <scstep>
   <time name="dav">    0.25    0.25</time>
   <time name="total">    0.30    0.31</time>
   <energy>
    <i name="e_fr_energy">    -16.51107223 </i>
    <i name="e_wo_entrp">    -16.51107223 </i>
    <i name="e_0_energy">    -16.51107223 </i>
   </energy>
  </scstep>
  <scstep>
   <time name="dav">    0.25    0.25</time>
   <time name="total">    0.30    0.30</time>
   <energy>
    <i name="e_fr_energy">    -16.51107235 </i>
    <i name="e_wo_entrp">    -16.51107235 </i>
    <i name="e_0_energy">    -16.51107235 </i>
   </energy>
  </scstep>
  <scstep>
   <time name="dav">    0.25    0.25</time>
   <time name="total">    0.29    0.29</time>
   <energy>
    <i name="alphaZ">    218.87048721 </i>
    <i name="ewald">  -3616.56080017 </i>
    <i name="hartreedc">  -1089.95583597 </i>
    <i name="XCdc">    140.87605430 </i>
    <i name="pawpsdc">   4375.06583741 </i>
    <i name="pawaedc">  -4560.37881534 </i>
    <i name="eentropy">      0.00000000 </i>
    <i name="bandstr">   -399.25059302 </i>
    <i name="atom">   4914.82259324 </i>
    <i name="e_fr_energy">    -16.51107235 </i>
    <i name="e_wo_entrp">    -16.51107235 </i>
    <i name="e_0_energy">    -16.51107235 </i>
   </energy>
  </scstep>
  <structure>
   <crystal>
    <varray name="basis" >
     <v>       2.84005200       0.00000000       0.00000000 </v>
     <v>       0.00000000       2.84005200       0.00000000 </v>
     <v>       0.00000000       0.00000000       2.84005200 </v>
    </varray>
    <i name="volume">     22.90756226 </i>
    <varray name="rec_basis" >
     <v>       0.35210623       0.00000000       0.00000000 </v>
     <v>       0.00000000       0.35210623       0.00000000 </v>
     <v>       0.00000000       0.00000000       0.35210623 </v>
    </varray>
   </crystal>
   <varray name="positions" >
    <v>       0.00000000       0.00000000       0.00000000 </v>
    <v>       0.50000000       0.50000000       0.50000000 </v>
   </varray>
  </structure>
  <varray name="forces" >
   <v>       0.00000000       0.00000000       0.00000000 </v>
   <v>      -0.00000000      -0.00000000      -0.00000000 </v>
  </varray>
  <varray name="stress" >
   <v>     -25.67472686      -0.00000000       0.00000000 </v>
   <v>      -0.00000000     -25.67472686       0.00000000 </v>
   <v>      -0.00000000       0.00000000     -25.67472686 </v>
  </varray>
  <energy>
   <i name="e_fr_energy">    -16.51107235 </i>
   <i name="e_wo_entrp">    -16.51107235 </i>
   <i name="e_0_energy">      0.00000000 </i>
  </energy>
  <time name="totalsc">    7.68    7.72</time>
  <eigenvalues>
   <array>
    <dimension dim="1">band</dimension>
    <dimension dim="2">kpoint</dimension>
    <dimension dim="3">spin</dimension>
    <field>eigene</field>
    <field>occ</field>
    <set>
     <set comment="spin 1">
      <set comment="kpoint 1">
       <r>  -44.5596    1.0000 </r>
       <r>  -44.5596    1.0000 </r>
       <r>  -44.5455    1.0000 </r>
       <r>  -44.2881    1.0000 </r>
       <r>  -44.2736    1.0000 </r>
       <r>  -44.2736    1.0000 </r>
       <r>    1.3970    1.0000 </r>
       <r>    4.9394    1.0000 </r>
       <r>    4.9394    1.0000 </r>
       <r>    7.3057    1.0000 </r>
       <r>    7.3057    1.0000 </r>
       <r>    7.4320    1.0000 </r>
       <r>    8.5818    1.0000 </r>
       <r>    8.5818    1.0000 </r>
       <r>    9.4954    1.0000 </r>
       <r>    9.6877    0.6007 </r>
       <r>    9.6877    0.0098 </r>
       <r>   19.1988    0.0000 </r>
       <r>   19.1988    0.0000 </r>
       <r>   19.4407    0.0000 </r>
       <r>   25.8111    0.0000 </r>
       <r>   25.8111    0.0000 </r>
       <r>   30.6942    0.0000 </r>
       <r>   33.3493    0.0000 </r>
      </set>
      <set comment="kpoint 2">
       <r>  -44.5657    1.0000 </r>
       <r>  -44.5449    1.0000 </r>
       <r>  -44.5234    1.0000 </r>
       <r>  -44.3202    1.0000 </r>
       <r>  -44.2867    1.0000 </r>
       <r>  -44.2791    1.0000 </r>
       <r>    1.8006    1.0000 </r>
       <r>    5.1071    1.0000 </r>
       <r>    5.1094    1.0000 </r>
       <r>    7.2472    1.0000 </r>
       <r>    7.2955    1.0000 </r>
       <r>    7.6000    1.0000 </r>
       <r>    8.4156    1.0000 </r>
       <r>    8.6564    1.0000 </r>
       <r>    9.1046    1.0000 </r>
       <r>    9.3729    1.0210 </r>
       <r>    9.6662    0.1361 </r>
       <r>   17.0981    0.0000 </r>
       <r>   19.9178    0.0000 </r>
       <r>   20.0948    0.0000 </r>
       <r>   25.9626    0.0000 </r>
       <r>   27.1442    0.0000 </r>
       <r>   31.5531    0.0000 </r>
       <r>   32.1472    0.0000 </r>
      </set>
      <set comment="kpoint 3">
       <r>  -44.5630    1.0000 </r>
       <r>  -44.5170    1.0000 </r>
       <r>  -44.4926    1.0000 </r>
       <r>  -44.3682    1.0000 </r>
       <r>  -44.3121    1.0000 </r>
       <r>  -44.2992    1.0000 </r>
       <r>    2.5662    1.0000 </r>
       <r>    5.3683    1.0000 </r>
       <r>    5.4284    1.0000 </r>
       <r>    7.2430    1.0000 </r>
       <r>    7.2880    1.0000 </r>
       <r>    7.8425    1.0000 </r>
       <r>    8.1091    1.0000 </r>
       <r>    8.6072    1.0000 </r>
       <r>    8.7956    1.0000 </r>
       <r>    8.8894    1.0000 </r>
       <r>    9.4864    1.0393 </r>
       <r>   14.5750    0.0000 </r>
       <r>   21.1871    0.0000 </r>
       <r>   21.3576    0.0000 </r>
       <r>   26.2952    0.0000 </r>
       <r>   27.9714    0.0000 </r>
       <r>   29.6293    0.0000 </r>
       <r>   31.2958    0.0000 </r>
      </set>
      <set comment="kpoint 4">
       <r>  -44.5485    1.0000 </r>
       <r>  -44.4791    1.0000 </r>
       <r>  -44.4547    1.0000 </r>
       <r>  -44.4234    1.0000 </r>
       <r>  -44.3476    1.0000 </r>
       <r>  -44.3306    1.0000 </r>
       <r>    3.5885    1.0000 </r>
       <r>    5.5407    1.0000 </r>
       <r>    5.8734    1.0000 </r>
       <r>    7.2464    1.0000 </r>
       <r>    7.3219    1.0000 </r>
       <r>    7.7689    1.0000 </r>
       <r>    8.1309    1.0000 </r>
       <r>    8.1512    1.0000 </r>
       <r>    8.3934    1.0000 </r>
       <r>    9.0200    1.0000 </r>
       <r>    9.2010    1.0386 </r>
       <r>   12.2827    0.0000 </r>
       <r>   22.7940    0.0000 </r>
       <r>   23.0064    0.0000 </r>
       <r>   26.8761    0.0000 </r>
       <r>   27.8752    0.0000 </r>
       <r>   28.6096    0.0000 </r>
       <r>   29.1468    0.0000 </r>
      </set>
      <set comment="kpoint 5">
       <r>  -44.5195    1.0000 </r>
       <r>  -44.4765    1.0000 </r>
       <r>  -44.4352    1.0000 </r>
       <r>  -44.4122    1.0000 </r>
       <r>  -44.3899    1.0000 </r>
       <r>  -44.3697    1.0000 </r>
       <r>    4.6406    1.0000 </r>
       <r>    5.3584    1.0000 </r>
       <r>    6.3957    1.0000 </r>
       <r>    6.9184    1.0000 </r>
       <r>    7.4997    1.0000 </r>
       <r>    7.7319    1.0000 </r>
       <r>    7.7632    1.0000 </r>
       <r>    7.9862    1.0000 </r>
       <r>    8.4998    1.0000 </r>
       <r>    8.8581    1.0000 </r>
       <r>    9.4838    0.9855 </r>
       <r>   10.5197    0.0000 </r>
       <r>   24.5321    0.0000 </r>
       <r>   24.9037    0.0000 </r>
       <r>   26.2268    0.0000 </r>
       <r>   26.9664    0.0000 </r>
       <r>   27.8216    0.0000 </r>
       <r>   29.2509    0.0000 </r>
      </set>
      <set comment="kpoint 6">
       <r>  -44.5797    1.0000 </r>
       <r>  -44.5362    1.0000 </r>
       <r>  -44.4910    1.0000 </r>
       <r>  -44.3619    1.0000 </r>
       <r>  -44.2970    1.0000 </r>
       <r>  -44.2736    1.0000 </r>
       <r>    2.1885    1.0000 </r>
       <r>    5.2401    1.0000 </r>
       <r>    5.2989    1.0000 </r>
       <r>    7.0946    1.0000 </r>
       <r>    7.2382    1.0000 </r>
       <r>    7.8707    1.0000 </r>
       <r>    8.4398    1.0000 </r>
       <r>    8.6116    1.0000 </r>
       <r>    8.6252    1.0000 </r>
       <r>    9.1501    1.0069 </r>
       <r>    9.7351    0.0316 </r>
       <r>   17.1955    0.0000 </r>
       <r>   18.2801    0.0000 </r>
       <r>   20.6500    0.0000 </r>
       <r>   26.6288    0.0000 </r>
       <r>   28.5398    0.0000 </r>
       <r>   29.9222    0.0000 </r>
       <r>   31.9698    0.0000 </r>
      </set>
      <set comment="kpoint 7">
       <r>  -44.5890    1.0000 </r>
       <r>  -44.5106    1.0000 </r>
       <r>  -44.4532    1.0000 </r>
       <r>  -44.4167    1.0000 </r>
       <r>  -44.3200    1.0000 </r>
       <r>  -44.2811    1.0000 </r>
       <r>    2.9150    1.0000 </r>
       <r>    5.4563    1.0000 </r>
       <r>    5.6215    1.0000 </r>
       <r>    6.9890    1.0000 </r>
       <r>    7.1831    1.0000 </r>
       <r>    8.1063    1.0000 </r>
       <r>    8.2009    1.0000 </r>
       <r>    8.2837    1.0000 </r>
       <r>    8.7221    1.0000 </r>
       <r>    8.7253    1.0000 </r>
       <r>    9.6889    0.2897 </r>
       <r>   14.9833    0.0000 </r>
       <r>   19.0113    0.0000 </r>
       <r>   21.7948    0.0000 </r>
       <r>   27.0203    0.0000 </r>
       <r>   27.7478    0.0000 </r>
       <r>   29.9240    0.0000 </r>
       <r>   30.6412    0.0000 </r>
      </set>
      <set comment="kpoint 8">
       <r>  -44.5850    1.0000 </r>
       <r>  -44.4751    1.0000 </r>
       <r>  -44.4744    1.0000 </r>
       <r>  -44.4124    1.0000 </r>
       <r>  -44.3526    1.0000 </r>
       <r>  -44.3023    1.0000 </r>
       <r>    3.8574    1.0000 </r>
       <r>    5.5961    1.0000 </r>
       <r>    6.0125    1.0000 </r>
       <r>    6.9651    1.0000 </r>
       <r>    7.1195    1.0000 </r>
       <r>    7.6676    1.0000 </r>
       <r>    8.0941    1.0000 </r>
       <r>    8.3382    1.0000 </r>
       <r>    8.5650    1.0000 </r>
       <r>    8.9640    1.0000 </r>
       <r>    9.4972    0.9243 </r>
       <r>   12.6528    0.0000 </r>
       <r>   20.3755    0.0000 </r>
       <r>   23.3113    0.0000 </r>
       <r>   25.6602    0.0000 </r>
       <r>   27.5891    0.0000 </r>
       <r>   28.7788    0.0000 </r>
       <r>   30.9260    0.0000 </r>
      </set>
      <set comment="kpoint 9">
       <r>  -44.5640    1.0000 </r>
       <r>  -44.5259    1.0000 </r>
       <r>  -44.4339    1.0000 </r>
       <r>  -44.3918    1.0000 </r>
       <r>  -44.3714    1.0000 </r>
       <r>  -44.3336    1.0000 </r>
       <r>    4.7815    1.0000 </r>
       <r>    5.4048    1.0000 </r>
       <r>    6.4376    1.0000 </r>
       <r>    6.8157    1.0000 </r>
       <r>    7.1504    1.0000 </r>
       <r>    7.3564    1.0000 </r>
       <r>    8.0557    1.0000 </r>
       <r>    8.1293    1.0000 </r>
       <r>    8.8900    1.0000 </r>
       <r>    9.2087    1.0000 </r>
       <r>    9.5417    0.7787 </r>
       <r>   10.7643    0.0000 </r>
       <r>   21.9644    0.0000 </r>
       <r>   23.7289    0.0000 </r>
       <r>   25.0466    0.0000 </r>
       <r>   26.8826    0.0000 </r>
       <r>   28.4945    0.0000 </r>
       <r>   29.8471    0.0000 </r>
      </set>
      <set comment="kpoint 10">
       <r>  -44.6122    1.0000 </r>
       <r>  -44.4900    1.0000 </r>
       <r>  -44.4763    1.0000 </r>
       <r>  -44.4102    1.0000 </r>
       <r>  -44.3379    1.0000 </r>
       <r>  -44.2738    1.0000 </r>
       <r>    3.5381    1.0000 </r>
       <r>    5.5113    1.0000 </r>
       <r>    6.0149    1.0000 </r>
       <r>    6.7722    1.0000 </r>
       <r>    7.1543    1.0000 </r>
       <r>    7.5993    1.0000 </r>
       <r>    8.4273    1.0000 </r>
       <r>    8.4292    1.0000 </r>
       <r>    8.6236    1.0000 </r>
       <r>    8.6656    1.0000 </r>
       <r>    9.8083   -0.0338 </r>
       <r>   14.8627    0.0000 </r>
       <r>   17.4650    0.0000 </r>
       <r>   22.7539    0.0000 </r>
       <r>   25.3832    0.0000 </r>
       <r>   27.3663    0.0000 </r>
       <r>   30.0596    0.0000 </r>
       <r>   32.3855    0.0000 </r>
      </set>
      <set comment="kpoint 11">
       <r>  -44.6214    1.0000 </r>
       <r>  -44.5345    1.0000 </r>
       <r>  -44.4611    1.0000 </r>
       <r>  -44.3684    1.0000 </r>
       <r>  -44.3633    1.0000 </r>
       <r>  -44.2811    1.0000 </r>
       <r>    4.2631    1.0000 </r>
       <r>    5.4685    1.0000 </r>
       <r>    6.4680    1.0000 </r>
       <r>    6.6646    1.0000 </r>
       <r>    7.1901    1.0000 </r>
       <r>    7.2441    1.0000 </r>
       <r>    8.2736    1.0000 </r>
       <r>    8.4056    1.0000 </r>
       <r>    8.8104    1.0000 </r>
       <r>    9.0704    1.0218 </r>
       <r>    9.7584    0.0041 </r>
       <r>   13.0479    0.0000 </r>
       <r>   18.1028    0.0000 </r>
       <r>   23.1674    0.0000 </r>
       <r>   24.0654    0.0000 </r>
       <r>   27.8479    0.0000 </r>
       <r>   28.7849    0.0000 </r>
       <r>   31.4409    0.0000 </r>
      </set>
      <set comment="kpoint 12">
       <r>  -44.6118    1.0000 </r>
       <r>  -44.5817    1.0000 </r>
       <r>  -44.4279    1.0000 </r>
       <r>  -44.3942    1.0000 </r>
       <r>  -44.3313    1.0000 </r>
       <r>  -44.3012    1.0000 </r>
       <r>    4.8667    1.0000 </r>
       <r>    5.2601    1.0000 </r>
       <r>    6.6829    1.0000 </r>
       <r>    6.7716    1.0000 </r>
       <r>    7.0127    1.0000 </r>
       <r>    7.2247    1.0000 </r>
       <r>    8.3132    1.0000 </r>
       <r>    8.3961    1.0000 </r>
       <r>    9.1817    1.0000 </r>
       <r>    9.5473    0.9520 </r>
       <r>    9.7291    0.0299 </r>
       <r>   11.1092    0.0000 </r>
       <r>   19.4882    0.0000 </r>
       <r>   21.1926    0.0000 </r>
       <r>   25.5952    0.0000 </r>
       <r>   27.2064    0.0000 </r>
       <r>   28.6466    0.0000 </r>
       <r>   29.8685    0.0000 </r>
      </set>
      <set comment="kpoint 13">
       <r>  -44.6447    1.0000 </r>
       <r>  -44.5890    1.0000 </r>
       <r>  -44.4418    1.0000 </r>
       <r>  -44.3789    1.0000 </r>
       <r>  -44.3303    1.0000 </r>
       <r>  -44.2741    1.0000 </r>
       <r>    4.6032    1.0000 </r>
       <r>    5.2506    1.0000 </r>
       <r>    6.4677    1.0000 </r>
       <r>    6.7908    1.0000 </r>
       <r>    7.0694    1.0000 </r>
       <r>    7.8006    1.0000 </r>
       <r>    8.3295    1.0000 </r>
       <r>    8.5829    1.0000 </r>
       <r>    8.7321    1.0000 </r>
       <r>    9.5050    0.9632 </r>
       <r>    9.8588   -0.0050 </r>
       <r>   12.6724    0.0000 </r>
       <r>   17.0745    0.0000 </r>
       <r>   20.9320    0.0000 </r>
       <r>   25.1094    0.0000 </r>
       <r>   28.2075    0.0000 </r>
       <r>   28.4079    0.0000 </r>
       <r>   30.7474    0.0000 </r>
      </set>
      <set comment="kpoint 14">
       <r>  -44.6479    1.0000 </r>
       <r>  -44.6287    1.0000 </r>
       <r>  -44.4200    1.0000 </r>
       <r>  -44.3982    1.0000 </r>
       <r>  -44.3004    1.0000 </r>
       <r>  -44.2808    1.0000 </r>
       <r>    4.8281    1.0000 </r>
       <r>    5.0279    1.0000 </r>
       <r>    6.4166    1.0000 </r>
       <r>    6.5259    1.0000 </r>
       <r>    7.6341    1.0000 </r>
       <r>    8.0161    1.0000 </r>
       <r>    8.4778    1.0000 </r>
       <r>    8.6092    1.0000 </r>
       <r>    9.2348    1.0000 </r>
       <r>    9.7478    0.3176 </r>
       <r>   10.0493    0.0000 </r>
       <r>   11.2873    0.0000 </r>
       <r>   17.6515    0.0000 </r>
       <r>   19.0558    0.0000 </r>
       <r>   26.3156    0.0000 </r>
       <r>   27.4988    0.0000 </r>
       <r>   28.8177    0.0000 </r>
       <r>   29.7260    0.0000 </r>
      </set>
      <set comment="kpoint 15">
       <r>  -44.6646    1.0000 </r>
       <r>  -44.6580    1.0000 </r>
       <r>  -44.4117    1.0000 </r>
       <r>  -44.4041    1.0000 </r>
       <r>  -44.2808    1.0000 </r>
       <r>  -44.2741    1.0000 </r>
       <r>    4.7960    1.0000 </r>
       <r>    4.8573    1.0000 </r>
       <r>    6.2872    1.0000 </r>
       <r>    6.3246    1.0000 </r>
       <r>    8.3610    1.0000 </r>
       <r>    8.5992    1.0000 </r>
       <r>    8.6203    1.0000 </r>
       <r>    8.7809    1.0000 </r>
       <r>    9.2764    1.0000 </r>
       <r>    9.7027    0.2838 </r>
       <r>   10.4352    0.0000 </r>
       <r>   10.9856    0.0000 </r>
       <r>   16.9421    0.0000 </r>
       <r>   17.5283    0.0000 </r>
       <r>   27.0341    0.0000 </r>
       <r>   27.4878    0.0000 </r>
       <r>   29.0836    0.0000 </r>
       <r>   29.4283    0.0000 </r>
      </set>
      <set comment="kpoint 16">
       <r>  -44.5639    1.0000 </r>
       <r>  -44.5639    1.0000 </r>
       <r>  -44.4552    1.0000 </r>
       <r>  -44.3995    1.0000 </r>
       <r>  -44.2879    1.0000 </r>
       <r>  -44.2879    1.0000 </r>
       <r>    2.5658    1.0000 </r>
       <r>    5.4275    1.0000 </r>
       <r>    5.4275    1.0000 </r>
       <r>    7.0369    1.0000 </r>
       <r>    7.0369    1.0000 </r>
       <r>    8.0867    1.0000 </r>
       <r>    8.1866    1.0000 </r>
       <r>    8.5292    1.0000 </r>
       <r>    8.5292    1.0000 </r>
       <r>    9.4254    0.9998 </r>
       <r>    9.4254    1.1125 </r>
       <r>   17.8408    0.0000 </r>
       <r>   17.8408    0.0000 </r>
       <r>   19.2358    0.0000 </r>
       <r>   28.7879    0.0000 </r>
       <r>   28.7879    0.0000 </r>
       <r>   29.7388    0.0000 </r>
       <r>   29.7388    0.0000 </r>
      </set>
      <set comment="kpoint 17">
       <r>  -44.5843    1.0000 </r>
       <r>  -44.5341    1.0000 </r>
       <r>  -44.4508    1.0000 </r>
       <r>  -44.4171    1.0000 </r>
       <r>  -44.3151    1.0000 </r>
       <r>  -44.2873    1.0000 </r>
       <r>    3.2647    1.0000 </r>
       <r>    5.6666    1.0000 </r>
       <r>    5.7006    1.0000 </r>
       <r>    6.9044    1.0000 </r>
       <r>    6.9355    1.0000 </r>
       <r>    7.5739    1.0000 </r>
       <r>    8.3834    1.0000 </r>
       <r>    8.5858    1.0000 </r>
       <r>    8.6836    1.0000 </r>
       <r>    8.9725    1.0000 </r>
       <r>    9.5068    0.9529 </r>
       <r>   15.4697    0.0000 </r>
       <r>   18.9548    0.0000 </r>
       <r>   19.8757    0.0000 </r>
       <r>   27.5258    0.0000 </r>
       <r>   28.5413    0.0000 </r>
       <r>   29.3034    0.0000 </r>
       <r>   30.5092    0.0000 </r>
      </set>
      <set comment="kpoint 18">
       <r>  -44.5905    1.0000 </r>
       <r>  -44.5038    1.0000 </r>
       <r>  -44.4937    1.0000 </r>
       <r>  -44.3800    1.0000 </r>
       <r>  -44.3531    1.0000 </r>
       <r>  -44.2981    1.0000 </r>
       <r>    4.1481    1.0000 </r>
       <r>    5.8198    1.0000 </r>
       <r>    5.9797    1.0000 </r>
       <r>    6.7959    1.0000 </r>
       <r>    6.9301    1.0000 </r>
       <r>    7.2690    1.0000 </r>
       <r>    8.2271    1.0000 </r>
       <r>    8.5465    1.0000 </r>
       <r>    8.8089    1.0000 </r>
       <r>    9.1287    1.0000 </r>
       <r>    9.4073    0.9271 </r>
       <r>   13.1240    0.0000 </r>
       <r>   20.3545    0.0000 </r>
       <r>   21.0640    0.0000 </r>
       <r>   25.4924    0.0000 </r>
       <r>   26.4570    0.0000 </r>
       <r>   30.1157    0.0000 </r>
       <r>   31.4551    0.0000 </r>
      </set>
      <set comment="kpoint 19">
       <r>  -44.5789    1.0000 </r>
       <r>  -44.5488    1.0000 </r>
       <r>  -44.4469    1.0000 </r>
       <r>  -44.3984    1.0000 </r>
       <r>  -44.3466    1.0000 </r>
       <r>  -44.3186    1.0000 </r>
       <r>    4.9801    1.0000 </r>
       <r>    5.5625    1.0000 </r>
       <r>    6.3108    1.0000 </r>
       <r>    6.5945    1.0000 </r>
       <r>    7.0948    1.0000 </r>
       <r>    7.2056    1.0000 </r>
       <r>    8.1546    1.0000 </r>
       <r>    8.2560    1.0000 </r>
       <r>    8.9742    1.0000 </r>
       <r>    9.1939    1.0000 </r>
       <r>    9.9050   -0.0495 </r>
       <r>   11.2097    0.0000 </r>
       <r>   21.9289    0.0000 </r>
       <r>   22.5750    0.0000 </r>
       <r>   23.6375    0.0000 </r>
       <r>   24.3852    0.0000 </r>
       <r>   31.2418    0.0000 </r>
       <r>   32.1299    0.0000 </r>
      </set>
      <set comment="kpoint 20">
       <r>  -44.5949    1.0000 </r>
       <r>  -44.5253    1.0000 </r>
       <r>  -44.4987    1.0000 </r>
       <r>  -44.3804    1.0000 </r>
       <r>  -44.3297    1.0000 </r>
       <r>  -44.2897    1.0000 </r>
       <r>    3.8859    1.0000 </r>
       <r>    5.7537    1.0000 </r>
       <r>    6.0640    1.0000 </r>
       <r>    6.6995    1.0000 </r>
       <r>    6.8481    1.0000 </r>
       <r>    7.0956    1.0000 </r>
       <r>    8.4912    1.0000 </r>
       <r>    8.6483    1.0000 </r>
       <r>    8.8039    1.0000 </r>
       <r>    9.0807    1.0000 </r>
       <r>    9.4852    0.8381 </r>
       <r>   15.5501    0.0000 </r>
       <r>   17.5333    0.0000 </r>
       <r>   20.3329    0.0000 </r>
       <r>   25.5631    0.0000 </r>
       <r>   27.9318    0.0000 </r>
       <r>   30.2206    0.0000 </r>
       <r>   30.2816    0.0000 </r>
      </set>
      <set comment="kpoint 21">
       <r>  -44.6076    1.0000 </r>
       <r>  -44.5464    1.0000 </r>
       <r>  -44.4909    1.0000 </r>
       <r>  -44.3618    1.0000 </r>
       <r>  -44.3483    1.0000 </r>
       <r>  -44.2931    1.0000 </r>
       <r>    4.5902    1.0000 </r>
       <r>    5.7255    1.0000 </r>
       <r>    6.3753    1.0000 </r>
       <r>    6.5805    1.0000 </r>
       <r>    6.9015    1.0000 </r>
       <r>    6.9076    1.0000 </r>
       <r>    8.4427    1.0000 </r>
       <r>    8.5430    1.0000 </r>
       <r>    8.7776    1.0000 </r>
       <r>    9.4406    1.0000 </r>
       <r>    9.6490    0.1952 </r>
       <r>   13.7014    0.0000 </r>
       <r>   18.2672    0.0000 </r>
       <r>   21.4240    0.0000 </r>
       <r>   23.3776    0.0000 </r>
       <r>   26.4170    0.0000 </r>
       <r>   30.0182    0.0000 </r>
       <r>   30.7690    0.0000 </r>
      </set>
      <set comment="kpoint 22">
       <r>  -44.6052    1.0000 </r>
       <r>  -44.5840    1.0000 </r>
       <r>  -44.4477    1.0000 </r>
       <r>  -44.4029    1.0000 </r>
       <r>  -44.3224    1.0000 </r>
       <r>  -44.3039    1.0000 </r>
       <r>    5.1412    1.0000 </r>
       <r>    5.5051    1.0000 </r>
       <r>    6.4605    1.0000 </r>
       <r>    6.5117    1.0000 </r>
       <r>    7.0551    1.0000 </r>
       <r>    7.0699    1.0000 </r>
       <r>    8.4038    1.0000 </r>
       <r>    8.4207    1.0000 </r>
       <r>    8.9779    1.0000 </r>
       <r>    9.2451    1.0149 </r>
       <r>   10.4636   -0.0551 </r>
       <r>   11.8104    0.0000 </r>
       <r>   19.6874    0.0000 </r>
       <r>   21.4025    0.0000 </r>
       <r>   22.8367    0.0000 </r>
       <r>   24.5269    0.0000 </r>
       <r>   30.5819    0.0000 </r>
       <r>   31.0092    0.0000 </r>
      </set>
      <set comment="kpoint 23">
       <r>  -44.6257    1.0000 </r>
       <r>  -44.5879    1.0000 </r>
       <r>  -44.4686    1.0000 </r>
       <r>  -44.3802    1.0000 </r>
       <r>  -44.3231    1.0000 </r>
       <r>  -44.2913    1.0000 </r>
       <r>    4.9327    1.0000 </r>
[...]
       </set>
       <set comment="band 12">
        <r>  0.0000  0.0276  0.0442  0.0027  0.1291  0.0080  0.0881  0.0807  0.0110 </r>
        <r>  0.0000  0.0276  0.0442  0.0027  0.1291  0.0080  0.0881  0.0807  0.0110 </r>
       </set>
       <set comment="band 13">
        <r>  0.0000  0.0007  0.0013  0.0001  0.0854  0.0053  0.3176  0.0487  0.0281 </r>
        <r>  0.0000  0.0007  0.0013  0.0001  0.0854  0.0053  0.3176  0.0487  0.0281 </r>
       </set>
       <set comment="band 14">
        <r>  0.0000  0.0007  0.0001  0.0013  0.0075  0.0876  0.0281  0.0443  0.3176 </r>
        <r>  0.0000  0.0007  0.0001  0.0013  0.0075  0.0876  0.0281  0.0443  0.3176 </r>
       </set>
       <set comment="band 15">
        <r>  0.0000  0.0000  0.0000  0.0000  0.0021  0.0121  0.0394  0.0214  0.4135 </r>
        <r>  0.0000  0.0000  0.0000  0.0000  0.0021  0.0121  0.0394  0.0214  0.4135 </r>
       </set>
       <set comment="band 16">
        <r>  0.0000  0.0000  0.0000  0.0000  0.0216  0.0116  0.4135  0.0023  0.0394 </r>
        <r>  0.0000  0.0000  0.0000  0.0000  0.0216  0.0116  0.4135  0.0023  0.0394 </r>
       </set>
       <set comment="band 17">
        <r>  0.0250  0.0199  0.0199  0.0199  0.1216  0.1216  0.0000  0.1216  0.0000 </r>
        <r>  0.0250  0.0199  0.0199  0.0199  0.1216  0.1216  0.0000  0.1216  0.0000 </r>
       </set>
       <set comment="band 18">
        <r>  0.0000  0.0076  0.0586  0.1082  0.0572  0.1057  0.0270  0.0075  0.0266 </r>
        <r>  0.0000  0.0076  0.0586  0.1082  0.0572  0.1057  0.0270  0.0075  0.0266 </r>
       </set>
       <set comment="band 19">
        <r>  0.0000  0.1086  0.0577  0.0081  0.0564  0.0079  0.0266  0.1061  0.0270 </r>
        <r>  0.0000  0.1086  0.0577  0.0081  0.0564  0.0079  0.0266  0.1061  0.0270 </r>
       </set>
       <set comment="band 20">
        <r>  0.2671  0.0000  0.0000  0.0000  0.0373  0.0373  0.0000  0.0373  0.0000 </r>
        <r>  0.2671  0.0000  0.0000  0.0000  0.0373  0.0373  0.0000  0.0373  0.0000 </r>
       </set>
       <set comment="band 21">
        <r>  0.0000  0.0566  0.1056  0.0101  0.0960  0.0092  0.0198  0.0515  0.0017 </r>
        <r>  0.0000  0.0566  0.1056  0.0101  0.0960  0.0092  0.0198  0.0515  0.0017 </r>
       </set>
       <set comment="band 22">
        <r>  0.0000  0.0582  0.0093  0.1048  0.0084  0.0952  0.0017  0.0529  0.0198 </r>
        <r>  0.0000  0.0582  0.0093  0.1048  0.0084  0.0952  0.0017  0.0529  0.0198 </r>
       </set>
       <set comment="band 23">
        <r>  0.2449  0.0532  0.0532  0.0532  0.0018  0.0018  0.0000  0.0018  0.0000 </r>
        <r>  0.2449  0.0532  0.0532  0.0532  0.0018  0.0018  0.0000  0.0018  0.0000 </r>
       </set>
       <set comment="band 24">
        <r>  0.0491  0.0820  0.0820  0.0820  0.0283  0.0283  0.0000  0.0283  0.0000 </r>
        <r>  0.0491  0.0820  0.0820  0.0820  0.0283  0.0283  0.0000  0.0283  0.0000 </r>
       </set>
      </set>
      <set comment="kpoint 33">
       <set comment="band 1">
        <r>  0.0000  0.1309  0.1309  0.2342  0.0000  0.0000  0.0000  0.0000  0.0000 </r>
        <r>  0.0000  0.1309  0.1309  0.2342  0.0000  0.0000  0.0000  0.0000  0.0000 </r>
       </set>
       <set comment="band 2">
        <r>  0.0000  0.1039  0.1039  0.2884  0.0000  0.0001  0.0000  0.0000  0.0000 </r>
        <r>  0.0000  0.1039  0.1039  0.2884  0.0000  0.0001  0.0000  0.0000  0.0000 </r>
       </set>
       <set comment="band 3">
        <r>  0.0000  0.2486  0.2486  0.0000  0.0001  0.0000  0.0000  0.0001  0.0000 </r>
        <r>  0.0000  0.2486  0.2486  0.0000  0.0001  0.0000  0.0000  0.0001  0.0000 </r>
       </set>
       <set comment="band 4">
        <r>  0.0000  0.2489  0.2489  0.0000  0.0001  0.0000  0.0000  0.0001  0.0000 </r>
        <r>  0.0000  0.2489  0.2489  0.0000  0.0001  0.0000  0.0000  0.0001  0.0000 </r>
       </set>
       <set comment="band 5">
        <r>  0.0000  0.1177  0.1177  0.2631  0.0000  0.0001  0.0000  0.0000  0.0000 </r>
        <r>  0.0000  0.1177  0.1177  0.2631  0.0000  0.0001  0.0000  0.0000  0.0000 </r>
       </set>
       <set comment="band 6">
        <r>  0.0000  0.1450  0.1450  0.2088  0.0000  0.0000  0.0000  0.0000  0.0000 </r>
        <r>  0.0000  0.1450  0.1450  0.2088  0.0000  0.0000  0.0000  0.0000  0.0000 </r>
       </set>
       <set comment="band 7">
        <r>  0.0459  0.0252  0.0252  0.0113  0.1268  0.0025  0.0032  0.1268  0.0096 </r>
        <r>  0.0459  0.0252  0.0252  0.0113  0.1268  0.0025  0.0032  0.1268  0.0096 </r>
       </set>
       <set comment="band 8">
        <r>  0.0268  0.0108  0.0108  0.0011  0.1525  0.0490  0.0030  0.1525  0.0089 </r>
        <r>  0.0268  0.0108  0.0108  0.0011  0.1525  0.0490  0.0030  0.1525  0.0089 </r>
       </set>
       <set comment="band 9">
        <r>  0.0000  0.0194  0.0194  0.0000  0.1695  0.0000  0.0317  0.1695  0.0106 </r>
        <r>  0.0000  0.0194  0.0194  0.0000  0.1695  0.0000  0.0317  0.1695  0.0106 </r>
       </set>
       <set comment="band 10">
        <r>  0.0000  0.0281  0.0281  0.0000  0.1425  0.0000  0.0487  0.1425  0.0162 </r>
        <r>  0.0000  0.0281  0.0281  0.0000  0.1425  0.0000  0.0487  0.1425  0.0162 </r>
       </set>
       <set comment="band 11">
        <r>  0.0064  0.0025  0.0025  0.0523  0.0082  0.3292  0.0001  0.0082  0.0002 </r>
        <r>  0.0064  0.0025  0.0025  0.0523  0.0082  0.3292  0.0001  0.0082  0.0002 </r>
       </set>
       <set comment="band 12">
        <r>  0.0019  0.0092  0.0092  0.0634  0.0021  0.2760  0.0073  0.0021  0.0219 </r>
        <r>  0.0019  0.0092  0.0092  0.0634  0.0021  0.2760  0.0073  0.0021  0.0219 </r>
       </set>
       <set comment="band 13">
        <r>  0.0000  0.0003  0.0003  0.0000  0.0451  0.0000  0.2976  0.0451  0.0992 </r>
        <r>  0.0000  0.0003  0.0003  0.0000  0.0451  0.0000  0.2976  0.0451  0.0992 </r>
       </set>
       <set comment="band 14">
        <r>  0.0000  0.0001  0.0001  0.0000  0.0288  0.0000  0.3228  0.0288  0.1076 </r>
        <r>  0.0000  0.0001  0.0001  0.0000  0.0288  0.0000  0.3228  0.0288  0.1076 </r>
       </set>
       <set comment="band 15">
        <r>  0.0005  0.0001  0.0001  0.0006  0.0171  0.0290  0.1064  0.0171  0.3191 </r>
        <r>  0.0005  0.0001  0.0001  0.0006  0.0171  0.0290  0.1064  0.0171  0.3191 </r>
       </set>
       <set comment="band 16">
        <r>  0.0004  0.0000  0.0000  0.0001  0.0103  0.0000  0.1173  0.0103  0.3520 </r>
        <r>  0.0004  0.0000  0.0000  0.0001  0.0103  0.0000  0.1173  0.0103  0.3520 </r>
       </set>
       <set comment="band 17">
        <r>  0.0297  0.0216  0.0216  0.0427  0.0915  0.1260  0.0015  0.0915  0.0044 </r>
        <r>  0.0297  0.0216  0.0216  0.0427  0.0915  0.1260  0.0015  0.0915  0.0044 </r>
       </set>
       <set comment="band 18">
        <r>  0.0209  0.0248  0.0248  0.0800  0.0612  0.1103  0.0066  0.0612  0.0199 </r>
        <r>  0.0209  0.0248  0.0248  0.0800  0.0612  0.1103  0.0066  0.0612  0.0199 </r>
       </set>
       <set comment="band 19">
        <r>  0.0000  0.0895  0.0895  0.0000  0.0849  0.0000  0.0286  0.0849  0.0095 </r>
        <r>  0.0000  0.0895  0.0895  0.0000  0.0849  0.0000  0.0286  0.0849  0.0095 </r>
       </set>
       <set comment="band 20">
        <r>  0.2319  0.0017  0.0017  0.0348  0.0265  0.0509  0.0000  0.0265  0.0001 </r>
        <r>  0.2319  0.0017  0.0017  0.0348  0.0265  0.0509  0.0000  0.0265  0.0001 </r>
       </set>
       <set comment="band 21">
        <r>  0.0000  0.0892  0.0892  0.0000  0.0826  0.0000  0.0211  0.0826  0.0070 </r>
        <r>  0.0000  0.0892  0.0892  0.0000  0.0826  0.0000  0.0211  0.0826  0.0070 </r>
       </set>
       <set comment="band 22">
        <r>  0.1597  0.0007  0.0007  0.1012  0.0256  0.0525  0.0005  0.0256  0.0016 </r>
        <r>  0.1597  0.0007  0.0007  0.1012  0.0256  0.0525  0.0005  0.0256  0.0016 </r>
       </set>
       <set comment="band 23">
        <r>  0.1181  0.0857  0.0857  0.0170  0.0121  0.0430  0.0011  0.0121  0.0032 </r>
        <r>  0.1181  0.0857  0.0857  0.0170  0.0121  0.0430  0.0011  0.0121  0.0032 </r>
       </set>
       <set comment="band 24">
        <r>  0.0731  0.0849  0.0849  0.0489  0.0226  0.0369  0.0002  0.0226  0.0007 </r>
        <r>  0.0731  0.0849  0.0849  0.0489  0.0226  0.0369  0.0002  0.0226  0.0007 </r>
       </set>
      </set>
      <set comment="kpoint 34">
       <set comment="band 1">
        <r>  0.0000  0.2222  0.0519  0.2222  0.0000  0.0001  0.0000  0.0001  0.0000 </r>
        <r>  0.0000  0.2222  0.0519  0.2222  0.0000  0.0001  0.0000  0.0001  0.0000 </r>
       </set>
       <set comment="band 2">
        <r>  0.0000  0.2482  0.0000  0.2482  0.0000  0.0001  0.0000  0.0001  0.0000 </r>
        <r>  0.0000  0.2482  0.0000  0.2482  0.0000  0.0001  0.0000  0.0001  0.0000 </r>
       </set>
       <set comment="band 3">
        <r>  0.0000  0.0374  0.4224  0.0374  0.0001  0.0000  0.0000  0.0000  0.0000 </r>
        <r>  0.0000  0.0374  0.4224  0.0374  0.0001  0.0000  0.0000  0.0000  0.0000 </r>
       </set>
       <set comment="band 4">
        <r>  0.0000  0.0260  0.4456  0.0260  0.0001  0.0000  0.0000  0.0000  0.0000 </r>
        <r>  0.0000  0.0260  0.4456  0.0260  0.0001  0.0000  0.0000  0.0000  0.0000 </r>
       </set>
       <set comment="band 5">
        <r>  0.0000  0.2491  0.0000  0.2491  0.0000  0.0001  0.0000  0.0001  0.0000 </r>
        <r>  0.0000  0.2491  0.0000  0.2491  0.0000  0.0001  0.0000  0.0001  0.0000 </r>
       </set>
       <set comment="band 6">
        <r>  0.0000  0.2117  0.0751  0.2117  0.0000  0.0000  0.0000  0.0000  0.0000 </r>
        <r>  0.0000  0.2117  0.0751  0.2117  0.0000  0.0000  0.0000  0.0000  0.0000 </r>
       </set>
       <set comment="band 7">
        <r>  0.0191  0.0005  0.0314  0.0005  0.2658  0.0362  0.0218  0.0362  0.0000 </r>
        <r>  0.0191  0.0005  0.0314  0.0005  0.2658  0.0362  0.0218  0.0362  0.0000 </r>
       </set>
       <set comment="band 8">
        <r>  0.0234  0.0027  0.0441  0.0027  0.2943  0.0011  0.0273  0.0011  0.0000 </r>
        <r>  0.0234  0.0027  0.0441  0.0027  0.2943  0.0011  0.0273  0.0011  0.0000 </r>
       </set>
       <set comment="band 9">
        <r>  0.0000  0.0139  0.0000  0.0139  0.0000  0.2001  0.0000  0.2001  0.0032 </r>
        <r>  0.0000  0.0139  0.0000  0.0139  0.0000  0.2001  0.0000  0.2001  0.0032 </r>
       </set>
       <set comment="band 10">
        <r>  0.0001  0.0137  0.0131  0.0137  0.0406  0.1615  0.0168  0.1615  0.0000 </r>
        <r>  0.0001  0.0137  0.0131  0.0137  0.0406  0.1615  0.0168  0.1615  0.0000 </r>
       </set>
       <set comment="band 11">
        <r>  0.0048  0.0441  0.0000  0.0441  0.0144  0.1384  0.0039  0.1384  0.0000 </r>
        <r>  0.0048  0.0441  0.0000  0.0441  0.0144  0.1384  0.0039  0.1384  0.0000 </r>
       </set>
       <set comment="band 12">
        <r>  0.0000  0.0468  0.0000  0.0468  0.0000  0.1399  0.0000  0.1399  0.0134 </r>
        <r>  0.0000  0.0468  0.0000  0.0468  0.0000  0.1399  0.0000  0.1399  0.0134 </r>
       </set>
       <set comment="band 13">
        <r>  0.0003  0.0000  0.0002  0.0000  0.0502  0.0026  0.4336  0.0026  0.0000 </r>
        <r>  0.0003  0.0000  0.0002  0.0000  0.0502  0.0026  0.4336  0.0026  0.0000 </r>
       </set>
       <set comment="band 14">
        <r>  0.0002  0.0000  0.0001  0.0000  0.0427  0.0008  0.4450  0.0008  0.0000 </r>
        <r>  0.0002  0.0000  0.0001  0.0000  0.0427  0.0008  0.4450  0.0008  0.0000 </r>
       </set>
       <set comment="band 15">
        <r>  0.0000  0.0001  0.0000  0.0001  0.0000  0.0101  0.0000  0.0101  0.4705 </r>
        <r>  0.0000  0.0001  0.0000  0.0001  0.0000  0.0101  0.0000  0.0101  0.4705 </r>
       </set>
       <set comment="band 16">
        <r>  0.0000  0.0000  0.0000  0.0000  0.0000  0.0022  0.0000  0.0022  0.4866 </r>
        <r>  0.0000  0.0000  0.0000  0.0000  0.0000  0.0022  0.0000  0.0022  0.4866 </r>
       </set>
       <set comment="band 17">
        <r>  0.0247  0.0519  0.0134  0.0519  0.0493  0.1095  0.0012  0.1095  0.0000 </r>
        <r>  0.0247  0.0519  0.0134  0.0519  0.0493  0.1095  0.0012  0.1095  0.0000 </r>
       </set>
       <set comment="band 18">
        <r>  0.0000  0.0794  0.0000  0.0794  0.0000  0.1149  0.0000  0.1149  0.0083 </r>
        <r>  0.0000  0.0794  0.0000  0.0794  0.0000  0.1149  0.0000  0.1149  0.0083 </r>
       </set>
       <set comment="band 19">
        <r>  0.0990  0.0059  0.0801  0.0059  0.1796  0.0017  0.0206  0.0017  0.0000 </r>
        <r>  0.0990  0.0059  0.0801  0.0059  0.1796  0.0017  0.0206  0.0017  0.0000 </r>
       </set>
       <set comment="band 20">
        <r>  0.0891  0.0268  0.0583  0.0268  0.1384  0.0142  0.0157  0.0142  0.0000 </r>
        <r>  0.0891  0.0268  0.0583  0.0268  0.1384  0.0142  0.0157  0.0142  0.0000 </r>
       </set>
       <set comment="band 21">
        <r>  0.1381  0.0378  0.0331  0.0378  0.0002  0.0587  0.0033  0.0587  0.0000 </r>
        <r>  0.1381  0.0378  0.0331  0.0378  0.0002  0.0587  0.0033  0.0587  0.0000 </r>
       </set>
       <set comment="band 22">
        <r>  0.0000  0.0873  0.0000  0.0873  0.0000  0.0867  0.0000  0.0867  0.0026 </r>
        <r>  0.0000  0.0873  0.0000  0.0873  0.0000  0.0867  0.0000  0.0867  0.0026 </r>
       </set>
       <set comment="band 23">
        <r>  0.2256  0.0023  0.1335  0.0023  0.0182  0.0013  0.0047  0.0013  0.0000 </r>
        <r>  0.2256  0.0023  0.1335  0.0023  0.0182  0.0013  0.0047  0.0013  0.0000 </r>
       </set>
       <set comment="band 24">
        <r>  0.1096  0.0462  0.0933  0.0462  0.0206  0.0284  0.0014  0.0284  0.0000 </r>
        <r>  0.1096  0.0462  0.0933  0.0462  0.0206  0.0284  0.0014  0.0284  0.0000 </r>
       </set>
      </set>
      <set comment="kpoint 35">
       <set comment="band 1">
        <r>  0.0000  0.1655  0.1655  0.1655  0.0000  0.0000  0.0000  0.0000  0.0000 </r>
        <r>  0.0000  0.1655  0.1655  0.1655  0.0000  0.0000  0.0000  0.0000  0.0000 </r>
       </set>
       <set comment="band 2">
        <r>  0.0000  0.1965  0.2133  0.0871  0.0001  0.0000  0.0000  0.0001  0.0000 </r>
        <r>  0.0000  0.1965  0.2133  0.0871  0.0001  0.0000  0.0000  0.0001  0.0000 </r>
       </set>
       <set comment="band 3">
        <r>  0.0000  0.1348  0.1180  0.2442  0.0000  0.0001  0.0000  0.0000  0.0000 </r>
        <r>  0.0000  0.1348  0.1180  0.2442  0.0000  0.0001  0.0000  0.0000  0.0000 </r>
       </set>
       <set comment="band 4">
        <r>  0.0000  0.2361  0.0565  0.2050  0.0000  0.0001  0.0000  0.0001  0.0000 </r>
        <r>  0.0000  0.2361  0.0565  0.2050  0.0000  0.0001  0.0000  0.0001  0.0000 </r>
       </set>
       <set comment="band 5">
        <r>  0.0000  0.0956  0.2752  0.1268  0.0001  0.0000  0.0000  0.0000  0.0000 </r>
        <r>  0.0000  0.0956  0.2752  0.1268  0.0001  0.0000  0.0000  0.0000  0.0000 </r>
       </set>
       <set comment="band 6">
        <r>  0.0000  0.1660  0.1660  0.1660  0.0000  0.0000  0.0000  0.0000  0.0000 </r>
        <r>  0.0000  0.1660  0.1660  0.1660  0.0000  0.0000  0.0000  0.0000  0.0000 </r>
       </set>
       <set comment="band 7">
        <r>  0.0055  0.0117  0.0117  0.0117  0.1269  0.1269  0.0000  0.1269  0.0000 </r>
        <r>  0.0055  0.0117  0.0117  0.0117  0.1269  0.1269  0.0000  0.1269  0.0000 </r>
       </set>
       <set comment="band 8">
        <r>  0.0000  0.0099  0.0296  0.0061  0.2385  0.0489  0.0051  0.0797  0.0001 </r>
        <r>  0.0000  0.0099  0.0296  0.0061  0.2385  0.0489  0.0051  0.0797  0.0001 </r>
       </set>
       <set comment="band 9">
        <r>  0.0000  0.0205  0.0008  0.0243  0.0062  0.1958  0.0001  0.1650  0.0051 </r>
        <r>  0.0000  0.0205  0.0008  0.0243  0.0062  0.1958  0.0001  0.1650  0.0051 </r>
       </set>
       <set comment="band 10">
        <r>  0.0089  0.0261  0.0261  0.0261  0.1011  0.1011  0.0000  0.1011  0.0000 </r>
        <r>  0.0089  0.0261  0.0261  0.0261  0.1011  0.1011  0.0000  0.1011  0.0000 </r>
       </set>
       <set comment="band 11">
        <r>  0.0000  0.0081  0.0431  0.0162  0.2095  0.0785  0.0078  0.0395  0.0003 </r>
        <r>  0.0000  0.0081  0.0431  0.0162  0.2095  0.0785  0.0078  0.0395  0.0003 </r>
       </set>
       <set comment="band 12">
        <r>  0.0000  0.0368  0.0018  0.0288  0.0088  0.1398  0.0003  0.1788  0.0078 </r>
        <r>  0.0000  0.0368  0.0018  0.0288  0.0088  0.1398  0.0003  0.1788  0.0078 </r>
       </set>
       <set comment="band 13">
        <r>  0.0000  0.0000  0.0000  0.0000  0.0058  0.0000  0.3468  0.0062  0.1323 </r>
        <r>  0.0000  0.0000  0.0000  0.0000  0.0058  0.0000  0.3468  0.0062  0.1323 </r>
       </set>
       <set comment="band 14">
        <r>  0.0000  0.0000  0.0000  0.0000  0.0022  0.0079  0.1323  0.0018  0.3468 </r>
        <r>  0.0000  0.0000  0.0000  0.0000  0.0022  0.0079  0.1323  0.0018  0.3468 </r>
       </set>
       <set comment="band 15">
        <r>  0.0000  0.0000  0.0000  0.0000  0.0023  0.0025  0.2276  0.0026  0.2563 </r>
        <r>  0.0000  0.0000  0.0000  0.0000  0.0023  0.0025  0.2276  0.0026  0.2563 </r>
       </set>
       <set comment="band 16">
        <r>  0.0000  0.0000  0.0000  0.0000  0.0026  0.0024  0.2563  0.0023  0.2276 </r>
        <r>  0.0000  0.0000  0.0000  0.0000  0.0026  0.0024  0.2563  0.0023  0.2276 </r>
       </set>
       <set comment="band 17">
        <r>  0.0277  0.0451  0.0451  0.0451  0.0781  0.0781  0.0000  0.0781  0.0000 </r>
        <r>  0.0277  0.0451  0.0451  0.0451  0.0781  0.0781  0.0000  0.0781  0.0000 </r>
       </set>
       <set comment="band 18">
        <r>  0.0000  0.0032  0.0702  0.0985  0.0851  0.1194  0.0032  0.0038  0.0020 </r>
        <r>  0.0000  0.0032  0.0702  0.0985  0.0851  0.1194  0.0032  0.0038  0.0020 </r>
       </set>
       <set comment="band 19">
        <r>  0.0000  0.1114  0.0444  0.0161  0.0538  0.0195  0.0020  0.1351  0.0032 </r>
        <r>  0.0000  0.1114  0.0444  0.0161  0.0538  0.0195  0.0020  0.1351  0.0032 </r>
       </set>
       <set comment="band 20">
        <r>  0.1932  0.0188  0.0188  0.0188  0.0421  0.0421  0.0000  0.0421  0.0000 </r>
        <r>  0.1932  0.0188  0.0188  0.0188  0.0421  0.0421  0.0000  0.0421  0.0000 </r>
       </set>
       <set comment="band 21">
        <r>  0.0000  0.0016  0.0909  0.0844  0.0982  0.0913  0.0027  0.0017  0.0008 </r>
        <r>  0.0000  0.0016  0.0909  0.0844  0.0982  0.0913  0.0027  0.0017  0.0008 </r>
       </set>
       <set comment="band 22">
        <r>  0.0000  0.1163  0.0270  0.0335  0.0292  0.0362  0.0008  0.1258  0.0027 </r>
        <r>  0.0000  0.1163  0.0270  0.0335  0.0292  0.0362  0.0008  0.1258  0.0027 </r>
       </set>
       <set comment="band 23">
        <r>  0.3402  0.0133  0.0133  0.0133  0.0007  0.0007  0.0000  0.0007  0.0000 </r>
        <r>  0.3402  0.0133  0.0133  0.0133  0.0007  0.0007  0.0000  0.0007  0.0000 </r>
       </set>
       <set comment="band 24">
        <r>  0.1775  0.0433  0.0433  0.0433  0.0226  0.0226  0.0000  0.0226  0.0000 </r>
        <r>  0.1775  0.0433  0.0433  0.0433  0.0226  0.0226  0.0000  0.0226  0.0000 </r>
       </set>
      </set>
     </set>
    </set>
   </array>
  </projected>
 </calculation>
 <structure name="finalpos" >
  <crystal>
   <varray name="basis" >
    <v>       2.84005200       0.00000000       0.00000000 </v>
    <v>       0.00000000       2.84005200       0.00000000 </v>
    <v>       0.00000000       0.00000000       2.84005200 </v>
   </varray>
   <i name="volume">     22.90756226 </i>
   <varray name="rec_basis" >
    <v>       0.35210623       0.00000000       0.00000000 </v>
    <v>       0.00000000       0.35210623       0.00000000 </v>
    <v>       0.00000000       0.00000000       0.35210623 </v>
   </varray>
  </crystal>
  <varray name="positions" >
   <v>       0.00000000       0.00000000       0.00000000 </v>
   <v>       0.50000000       0.50000000       0.50000000 </v>
  </varray>
 </structure>
</modeling>
