       N       E                     dE             d eps       ncg     rms          rms(c)
DAV:   1     0.749223220601E+03    0.74922E+03   -0.26244E+04 26488   0.410E+03
DAV:   2     0.186453563511E+03   -0.56277E+03   -0.51238E+03 33672   0.546E+02
DAV:   3    -0.206729911767E+02   -0.20713E+03   -0.20456E+03 28640   0.332E+02
DAV:   4    -0.418850734237E+02   -0.21212E+02   -0.20568E+02 34260   0.890E+01
DAV:   5    -0.458775186241E+02   -0.39924E+01   -0.38707E+01 43920   0.267E+01    0.185E+01
DAV:   6    -0.661409263102E+02   -0.20263E+02   -0.39146E+02 37224   0.108E+02    0.406E+01
DAV:   7    -0.522224191321E+02    0.13919E+02   -0.13152E+02 39152   0.122E+02    0.189E+01
DAV:   8    -0.563056683713E+02   -0.40832E+01   -0.36107E+01 38624   0.417E+01    0.162E+01
DAV:   9    -0.568190884723E+02   -0.51342E+00   -0.35257E+00 38976   0.126E+01    0.135E+01
DAV:  10    -0.566824639036E+02    0.13662E+00   -0.16331E+00 34640   0.157E+01    0.753E+00
DAV:  11    -0.564359722728E+02    0.24649E+00   -0.13261E+00 37416   0.933E+00    0.653E+00
DAV:  12    -0.564500366610E+02   -0.14064E-01   -0.33920E-01 45160   0.365E+00    0.543E+00
DAV:  13    -0.564270967036E+02    0.22940E-01   -0.51164E-02 39904   0.169E+00    0.406E+00
DAV:  14    -0.564032990770E+02    0.23798E-01   -0.25593E-02 39448   0.140E+00    0.297E+00
DAV:  15    -0.563570121024E+02    0.46287E-01   -0.63465E-02 36184   0.242E+00    0.198E+00
DAV:  16    -0.563429865137E+02    0.14026E-01   -0.37435E-02 37168   0.165E+00    0.139E+00
DAV:  17    -0.563350630489E+02    0.79235E-02   -0.30692E-02 36384   0.137E+00    0.824E-01
DAV:  18    -0.563346676382E+02    0.39541E-03   -0.63229E-03 42204   0.774E-01    0.627E-01
DAV:  19    -0.563358644718E+02   -0.11968E-02   -0.11333E-03 37504   0.556E-01    0.545E-01
DAV:  20    -0.563342146366E+02    0.16498E-02   -0.36392E-03 38116   0.694E-01    0.432E-01
DAV:  21    -0.563333505131E+02    0.86412E-03   -0.97233E-03 37684   0.743E-01    0.114E-01
DAV:  22    -0.563334177083E+02   -0.67195E-04   -0.12866E-03 38248   0.626E-01    0.682E-02
DAV:  23    -0.563334023693E+02    0.15339E-04   -0.28502E-04 42876   0.335E-01    0.844E-02
DAV:  24    -0.563334418183E+02   -0.39449E-04   -0.88365E-05 41440   0.199E-01    0.450E-02
DAV:  25    -0.563334427060E+02   -0.88767E-06   -0.10485E-04 34372   0.857E-02    0.257E-02
DAV:  26    -0.563334495095E+02   -0.68035E-05   -0.17864E-05 40704   0.484E-02    0.165E-02
DAV:  27    -0.563334542284E+02   -0.47189E-05   -0.55026E-06 39616   0.235E-02    0.955E-03
DAV:  28    -0.563334551291E+02   -0.90073E-06   -0.14339E-06 32728   0.235E-02    0.457E-03
DAV:  29    -0.563334573306E+02   -0.22015E-05   -0.16908E-06 29064   0.135E-02    0.358E-03
DAV:  30    -0.563334595256E+02   -0.21950E-05   -0.14429E-06 30236   0.120E-02    0.163E-03
DAV:  31    -0.563334588131E+02    0.71247E-06   -0.34087E-07 22720   0.635E-03    0.507E-04
DAV:  32    -0.563334590513E+02   -0.23820E-06   -0.78566E-08 21488   0.394E-03    0.435E-04
DAV:  33    -0.563334592123E+02   -0.16098E-06   -0.33796E-08 18908   0.310E-03    0.421E-04
DAV:  34    -0.563334589414E+02    0.27087E-06   -0.27504E-08 18200   0.328E-03    0.269E-04
DAV:  35    -0.563334587789E+02    0.16255E-06   -0.27780E-08 19096   0.208E-03    0.117E-04
DAV:  36    -0.563334587478E+02    0.31021E-07   -0.13856E-08 16880   0.176E-03
   1 F= -.56333459E+02 E0= -.56333459E+02  d E =0.000000E+00  mag=     0.0001
