unknown system                          
   1.00000000000000     
     2.500784    0.000000    0.000000
     0.000000    4.331484    0.000000
     0.000000    0.000000    4.033331
   Co
     4
Direct
  0.000000  0.666667  0.750000
  0.500000  0.833333  0.250000
  0.500000  0.166667  0.750000
  0.000000  0.333333  0.250000
 
   40   64   60
 0.86355456463E-02 0.90445627228E-02 0.10320643360E-01 0.12606518745E-01 0.16143905307E-01
 0.21266141915E-01 0.28395595563E-01 0.38018664948E-01 0.50660559069E-01 0.66815597922E-01
 0.86880500566E-01 0.11102583037E+00 0.13911311477E+00 0.17055851114E+00 0.20422502178E+00
 0.23848894810E+00 0.27127737115E+00 0.30023072310E+00 0.32299292496E+00 0.33755728942E+00
 0.34257075806E+00 0.33755728942E+00 0.32299292496E+00 0.30023072310E+00 0.27127737115E+00
 0.23848894810E+00 0.20422502178E+00 0.17055851114E+00 0.13911311477E+00 0.11102583037E+00
 0.86880500566E-01 0.66815597922E-01 0.50660559069E-01 0.38018664948E-01 0.28395595562E-01
 0.21266141915E-01 0.16143905307E-01 0.12606518745E-01 0.10320643360E-01 0.90445627230E-02
 0.91157623578E-02 0.95349886312E-02 0.10841541697E-01 0.13188455850E-01 0.16827448784E-01
 0.22114287920E-01 0.29494902105E-01 0.39494700151E-01 0.52670693158E-01 0.69567119940E-01
 0.90610176903E-01 0.11602437454E+00 0.14566771738E+00 0.17892433704E+00 0.21466460951E+00
 0.25113803423E+00 0.28608664150E+00 0.31697553754E+00 0.34128726298E+00 0.35685782216E+00
 0.36222156563E+00 0.35685782216E+00 0.34128726298E+00 0.31697553754E+00 0.28608664150E+00
 0.25113803423E+00 0.21466460951E+00 0.17892433704E+00 0.14566771738E+00 0.11602437454E+00
 0.90610176903E-01 0.69567119940E-01 0.52670693158E-01 0.39494700151E-01 0.29494902105E-01
 0.22114287920E-01 0.16827448784E-01 0.13188455850E-01 0.10841541697E-01 0.95349886311E-02
 0.10625688860E-01 0.11070003708E-01 0.12463497008E-01 0.14978761171E-01 0.18912612640E-01
 0.24675314623E-01 0.32795895259E-01 0.43891019587E-01 0.58644615993E-01 0.77718402430E-01
 0.10168070040E+00 0.13083564434E+00 0.16509425105E+00 0.20384604390E+00 0.24573254714E+00
 0.28869720526E+00 0.33009219948E+00 0.36686763381E+00 0.39592484143E+00 0.41458215343E+00
 0.42101635486E+00 0.41458215343E+00 0.39592484143E+00 0.36686763381E+00 0.33009219948E+00
 0.28869720526E+00 0.24573254714E+00 0.20384604390E+00 0.16509425105E+00 0.13083564434E+00
 0.10168070040E+00 0.77718402430E-01 0.58644615993E-01 0.43891019586E-01 0.32795895259E-01
 0.24675314623E-01 0.18912612640E-01 0.14978761171E-01 0.12463497007E-01 0.11070003708E-01
 0.13378253546E-01 0.13861504542E-01 0.15378156544E-01 0.18145774518E-01 0.22520584258E-01
 0.29016938283E-01 0.38287100493E-01 0.51122936168E-01 0.68389046566E-01 0.90976156864E-01
 0.11964738215E+00 0.15488621729E+00 0.19673048214E+00 0.24442652756E+00 0.29638980208E+00
 0.35014012245E+00 0.40229136269E+00 0.44885907874E+00 0.48578408232E+00 0.50954891208E+00
 0.51775408496E+00 0.50954891208E+00 0.48578408233E+00 0.44885907874E+00 0.40229136269E+00
 0.35014012245E+00 0.29638980208E+00 0.24442652756E+00 0.19673048214E+00 0.15488621729E+00
 0.11964738215E+00 0.90976156864E-01 0.68389046566E-01 0.51122936168E-01 0.38287100493E-01
 0.29016938283E-01 0.22520584258E-01 0.18145774518E-01 0.15378156544E-01 0.13861504542E-01
 0.17776487694E-01 0.18295404100E-01 0.19943242948E-01 0.22985488694E-01 0.27878252906E-01
 0.35263813232E-01 0.45980340691E-01 0.61035769612E-01 0.81573973472E-01 0.10877734180E+00
 0.14369516527E+00 0.18710971694E+00 0.23910141283E+00 0.29889851822E+00 0.36466631329E+00
 0.43318788435E+00 0.50002659179E+00 0.55996807398E+00 0.60767790761E+00 0.63846700569E+00
 0.64911514392E+00 0.63846700569E+00 0.60767790761E+00 0.55996807398E+00 0.50002659179E+00
 0.43318788435E+00 0.36466631329E+00 0.29889851822E+00 0.23910141283E+00 0.18710971694E+00
 0.14369516527E+00 0.10877734180E+00 0.81573973472E-01 0.61035769612E-01 0.45980340691E-01
 0.35263813232E-01 0.27878252906E-01 0.22985488694E-01 0.19943242948E-01 0.18295404100E-01
 0.24467649044E-01 0.25007451426E-01 0.26742846749E-01 0.30005836556E-01 0.35372222929E-01
 0.43650063604E-01 0.55908271675E-01 0.73430903327E-01 0.97707013991E-01 0.13025990963E+00
 0.17257099336E+00 0.22567070703E+00 0.28983477929E+00 0.36435581182E+00 0.44689352552E+00
 0.53335825314E+00 0.61814353133E+00 0.69457918536E+00 0.75567568899E+00 0.79522324850E+00
 0.80891734408E+00 0.79522324850E+00 0.75567568899E+00 0.69457918536E+00 0.61814353133E+00
 0.53335825314E+00 0.44689352552E+00 0.36435581182E+00 0.28983477929E+00 0.22567070703E+00
 0.17257099336E+00 0.13025990963E+00 0.97707013991E-01 0.73430903327E-01 0.55908271675E-01
 0.43650063604E-01 0.35372222929E-01 0.30005836556E-01 0.26742846749E-01 0.25007451426E-01
 0.34437878576E-01 0.34961195684E-01 0.36664270542E-01 0.39975952519E-01 0.45603479582E-01
 0.54570773211E-01 0.68193685284E-01 0.88099575926E-01 0.11614010548E+00 0.15429357427E+00
 0.20445978269E+00 0.26799278901E+00 0.34552891298E+00 0.43624424594E+00 0.53727541177E+00
 0.64372716834E+00 0.74872341937E+00 0.84383943288E+00 0.92011975500E+00 0.96959019143E+00
 0.98673427446E+00 0.96959019143E+00 0.92011975500E+00 0.84383943288E+00 0.74872341937E+00
 0.64372716834E+00 0.53727541177E+00 0.43624424594E+00 0.34552891298E+00 0.26799278901E+00
 0.20445978269E+00 0.15429357427E+00 0.11614010548E+00 0.88099575926E-01 0.68193685284E-01
 0.54570773211E-01 0.45603479582E-01 0.39975952519E-01 0.36664270542E-01 0.34961195684E-01
 0.49129209939E-01 0.49561080012E-01 0.51022149874E-01 0.54045474431E-01 0.59503670104E-01
 0.68657379915E-01 0.83116142643E-01 0.10487629969E+00 0.13618001103E+00 0.17949486677E+00
 0.23711504851E+00 0.31085441637E+00 0.40163709703E+00 0.50847783665E+00 0.62815295333E+00
 0.75498788555E+00 0.88071278361E+00 0.99497489222E+00 0.10867716525E+01 0.11462699688E+01
 0.11669051615E+01 0.11462699688E+01 0.10867716525E+01 0.99497489222E+00 0.88071278361E+00
 0.75498788555E+00 0.62815295333E+00 0.50847783665E+00 0.40163709703E+00 0.31085441637E+00
 0.23711504851E+00 0.17949486677E+00 0.13618001103E+00 0.10487629969E+00 0.83116142643E-01
 0.68657379915E-01 0.59503670104E-01 0.54045474431E-01 0.51022149874E-01 0.49561080012E-01
 0.70545738972E-01 0.70765518437E-01 0.71640678652E-01 0.73823199696E-01 0.78396342707E-01
 0.86880418602E-01 0.10121630975E+00 0.12376184886E+00 0.15718799511E+00 0.20440884065E+00
 0.26811052165E+00 0.35057833076E+00 0.45291205650E+00 0.57405029568E+00 0.71052652268E+00
 0.85590591788E+00 0.10005115349E+01 0.11320953826E+01 0.12379498062E+01 0.13069017246E+01
 0.13308583958E+01 0.13069017246E+01 0.12379498062E+01 0.11320953826E+01 0.10005115349E+01
 0.85590591788E+00 0.71052652268E+00 0.57405029568E+00 0.45291205650E+00 0.35057833076E+00
 0.26811052165E+00 0.20440884065E+00 0.15718799511E+00 0.12376184886E+00 0.10121630975E+00
 0.86880418602E-01 0.78396342707E-01 0.73823199696E-01 0.71640678652E-01 0.70765518438E-01
 0.10136133404E+00 0.10119572466E+00 0.10097563861E+00 0.10150316048E+00 0.10411281246E+00
 0.11062883904E+00 0.12336346477E+00 0.14504720219E+00 0.17875415774E+00 0.22777089907E+00
 0.29515570450E+00 0.38355175398E+00 0.49415782785E+00 0.62591798367E+00 0.77517260848E+00
 0.93480119025E+00 0.10939573136E+01 0.12389144053E+01 0.13561064606E+01 0.14325185785E+01
 0.14590753615E+01 0.14325185785E+01 0.13561064606E+01 0.12389144053E+01 0.10939573136E+01
 0.93480119025E+00 0.77517260848E+00 0.62591798367E+00 0.49415782785E+00 0.38355175398E+00
 0.29515570450E+00 0.22777089907E+00 0.17875415774E+00 0.14504720219E+00 0.12336346477E+00
 0.11062883904E+00 0.10411281246E+00 0.10150316048E+00 0.10097563861E+00 0.10119572466E+00
 0.14491730218E+00 0.14411994133E+00 0.14208254431E+00 0.13981374790E+00 0.13896926180E+00
 0.14174529317E+00 0.15085405571E+00 0.16940456801E+00 0.20085380423E+00 0.24878167685E+00
 0.31650243445E+00 0.40686671500E+00 0.52111318528E+00 0.65817708643E+00 0.81423466178E+00
 0.98170133828E+00 0.11488730296E+01 0.13016969036E+01 0.14253993396E+01 0.15060140074E+01
 0.15339113916E+01 0.15060140074E+01 0.14253993396E+01 0.13016969036E+01 0.11488730296E+01
 0.98170133828E+00 0.81423466178E+00 0.65817708643E+00 0.52111318528E+00 0.40686671500E+00
 0.31650243445E+00 0.24878167685E+00 0.20085380423E+00 0.16940456801E+00 0.15085405571E+00
 0.14174529317E+00 0.13896926180E+00 0.13981374790E+00 0.14208254431E+00 0.14411994133E+00
 0.20515419847E+00 0.20339950465E+00 0.19858811761E+00 0.19200820584E+00 0.18572762377E+00
 0.18242995442E+00 0.18531701308E+00 0.19791333879E+00 0.22397302990E+00 0.26729290697E+00
 0.33131365062E+00 0.41890288092E+00 0.53125541186E+00 0.66722715196E+00 0.82288027442E+00
 0.99046503931E+00 0.11580789419E+01 0.13115522514E+01 0.14358826351E+01 0.15168829426E+01
 0.15449419082E+01 0.15168829426E+01 0.14358826351E+01 0.13115522514E+01 0.11580789419E+01
 0.99046503931E+00 0.82288027442E+00 0.66722715196E+00 0.53125541186E+00 0.41890288092E+00
 0.33131365062E+00 0.26729290697E+00 0.22397302990E+00 0.19791333879E+00 0.18531701308E+00
 0.18242995442E+00 0.18572762377E+00 0.19200820584E+00 0.19858811761E+00 0.20339950465E+00
 0.28607034180E+00 0.28294123300E+00 0.27414807514E+00 0.26137363501E+00 0.24724705606E+00
 0.23506940591E+00 0.22861929803E+00 0.23191403508E+00 0.24903707127E+00 0.28388738854E+00
 0.33984443304E+00 0.41964214581E+00 0.52431938962E+00 0.65256023376E+00 0.80034742694E+00
 0.96009393605E+00 0.11203389884E+01 0.12670267194E+01 0.13859357079E+01 0.14635778683E+01
 0.14905784419E+01 0.14635778683E+01 0.13859357079E+01 0.12670267194E+01 0.11203389884E+01
 0.96009393605E+00 0.80034742694E+00 0.65256023376E+00 0.52431938962E+00 0.41964214581E+00
 0.33984443304E+00 0.28388738854E+00 0.24903707127E+00 0.23191403508E+00 0.22861929803E+00
 0.23506940591E+00 0.24724705606E+00 0.26137363501E+00 0.27414807514E+00 0.28294123300E+00
 0.39134373233E+00 0.38633361583E+00 0.37208011468E+00 0.35081254506E+00 0.32592967219E+00
 0.30160893302E+00 0.28238136711E+00 0.27280233341E+00 0.27722369430E+00 0.29968260223E+00
 0.34336596271E+00 0.41063450744E+00 0.50230760613E+00 0.61681734187E+00 0.75009133022E+00
 0.89492161166E+00 0.10407455784E+01 0.11743706569E+01 0.12825444530E+01 0.13532088781E+01
 0.13777918223E+01 0.13532088781E+01 0.12825444530E+01 0.11743706569E+01 0.10407455784E+01
 0.89492161166E+00 0.75009133022E+00 0.61681734187E+00 0.50230760613E+00 0.41063450744E+00
 0.34336596271E+00 0.29968260223E+00 0.27722369430E+00 0.27280233341E+00 0.28238136711E+00
 0.30160893302E+00 0.32592967219E+00 0.35081254506E+00 0.37208011468E+00 0.38633361583E+00
 0.52283356499E+00 0.51539878414E+00 0.49411682563E+00 0.46191607545E+00 0.42317476477E+00
 0.38317186467E+00 0.34746223205E+00 0.32138032242E+00 0.30958203180E+00 0.31603209349E+00
 0.34375723097E+00 0.39459537819E+00 0.46897913853E+00 0.56513117291E+00 0.67888808155E+00
 0.80354365149E+00 0.92966355315E+00 0.10457166225E+01 0.11395670430E+01 0.12007474196E+01
 0.12220303053E+01 0.12007474196E+01 0.11395670430E+01 0.10457166225E+01 0.92966355315E+00
 0.80354365149E+00 0.67888808155E+00 0.56513117291E+00 0.46897913853E+00 0.39459537819E+00
 0.34375723097E+00 0.31603209349E+00 0.30958203180E+00 0.32138032242E+00 0.34746223205E+00
 0.38317186467E+00 0.42317476477E+00 0.46191607545E+00 0.49411682563E+00 0.51539878414E+00
 0.67936705318E+00 0.66894571581E+00 0.63903721700E+00 0.59348500890E+00 0.53794018987E+00
 0.47902210764E+00 0.42346640370E+00 0.37751847978E+00 0.34639449791E+00 0.33400874461E+00
 0.34299885288E+00 0.37469767747E+00 0.42899540618E+00 0.50390767347E+00 0.59527608636E+00
 0.69684462979E+00 0.80037038208E+00 0.89605781427E+00 0.97373392384E+00 0.10244490360E+01
 0.10420808026E+01 0.10244490360E+01 0.97373392384E+00 0.89605781427E+00 0.80037038208E+00
 0.69684462979E+00 0.59527608636E+00 0.50390767347E+00 0.42899540618E+00 0.37469767747E+00
 0.34299885288E+00 0.33400874461E+00 0.34639449791E+00 0.37751847978E+00 0.42346640370E+00
 0.47902210764E+00 0.53794018987E+00 0.59348500890E+00 0.63903721700E+00 0.66894571581E+00
 0.85591439592E+00 0.84201656387E+00 0.80207766814E+00 0.74104919848E+00 0.66615344926E+00
 0.58567374015E+00 0.50775276491E+00 0.43957753316E+00 0.38692369140E+00 0.35383498889E+00
 0.34257450577E+00 0.35383498889E+00 0.38692369140E+00 0.43957753316E+00 0.50775276491E+00
 0.58567374015E+00 0.66615344926E+00 0.74104919848E+00 0.80207766814E+00 0.84201656387E+00
 0.85591439592E+00 0.84201656387E+00 0.80207766814E+00 0.74104919848E+00 0.66615344926E+00
 0.58567374015E+00 0.50775276491E+00 0.43957753316E+00 0.38692369140E+00 0.35383498889E+00
 0.34257450577E+00 0.35383498889E+00 0.38692369140E+00 0.43957753316E+00 0.50775276491E+00
 0.58567374015E+00 0.66615344926E+00 0.74104919848E+00 0.80207766814E+00 0.84201656387E+00
 0.10420808026E+01 0.10244490360E+01 0.97373392384E+00 0.89605781427E+00 0.80037038208E+00
 0.69684462979E+00 0.59527608636E+00 0.50390767347E+00 0.42899540618E+00 0.37469767747E+00
 0.34299885288E+00 0.33400874461E+00 0.34639449791E+00 0.37751847978E+00 0.42346640370E+00
 0.47902210764E+00 0.53794018987E+00 0.59348500890E+00 0.63903721700E+00 0.66894571581E+00
 0.67936705318E+00 0.66894571581E+00 0.63903721700E+00 0.59348500890E+00 0.53794018987E+00
 0.47902210764E+00 0.42346640370E+00 0.37751847978E+00 0.34639449791E+00 0.33400874461E+00
 0.34299885288E+00 0.37469767747E+00 0.42899540618E+00 0.50390767347E+00 0.59527608636E+00
 0.69684462979E+00 0.80037038208E+00 0.89605781427E+00 0.97373392384E+00 0.10244490360E+01
 0.12220303053E+01 0.12007474196E+01 0.11395670430E+01 0.10457166225E+01 0.92966355315E+00
 0.80354365149E+00 0.67888808155E+00 0.56513117291E+00 0.46897913853E+00 0.39459537819E+00
 0.34375723097E+00 0.31603209349E+00 0.30958203180E+00 0.32138032242E+00 0.34746223205E+00
 0.38317186467E+00 0.42317476477E+00 0.46191607545E+00 0.49411682563E+00 0.51539878414E+00
 0.52283356500E+00 0.51539878414E+00 0.49411682563E+00 0.46191607545E+00 0.42317476477E+00
 0.38317186467E+00 0.34746223205E+00 0.32138032242E+00 0.30958203180E+00 0.31603209349E+00
 0.34375723097E+00 0.39459537819E+00 0.46897913853E+00 0.56513117291E+00 0.67888808155E+00
 0.80354365149E+00 0.92966355315E+00 0.10457166225E+01 0.11395670430E+01 0.12007474196E+01
 0.13777918223E+01 0.13532088781E+01 0.12825444530E+01 0.11743706569E+01 0.10407455784E+01
 0.89492161166E+00 0.75009133022E+00 0.61681734187E+00 0.50230760613E+00 0.41063450744E+00
 0.34336596271E+00 0.29968260223E+00 0.27722369430E+00 0.27280233341E+00 0.28238136711E+00
 0.30160893302E+00 0.32592967219E+00 0.35081254506E+00 0.37208011468E+00 0.38633361583E+00
 0.39134373233E+00 0.38633361583E+00 0.37208011468E+00 0.35081254506E+00 0.32592967219E+00
 0.30160893302E+00 0.28238136711E+00 0.27280233341E+00 0.27722369430E+00 0.29968260223E+00
 0.34336596271E+00 0.41063450744E+00 0.50230760613E+00 0.61681734187E+00 0.75009133022E+00
 0.89492161166E+00 0.10407455784E+01 0.11743706569E+01 0.12825444530E+01 0.13532088781E+01
 0.14905784419E+01 0.14635778683E+01 0.13859357079E+01 0.12670267194E+01 0.11203389884E+01
 0.96009393605E+00 0.80034742694E+00 0.65256023376E+00 0.52431938962E+00 0.41964214581E+00
 0.33984443304E+00 0.28388738854E+00 0.24903707127E+00 0.23191403508E+00 0.22861929803E+00
 0.23506940591E+00 0.24724705606E+00 0.26137363501E+00 0.27414807514E+00 0.28294123300E+00
 0.28607034180E+00 0.28294123300E+00 0.27414807514E+00 0.26137363501E+00 0.24724705606E+00
 0.23506940591E+00 0.22861929803E+00 0.23191403508E+00 0.24903707127E+00 0.28388738854E+00
 0.33984443304E+00 0.41964214581E+00 0.52431938962E+00 0.65256023376E+00 0.80034742694E+00
 0.96009393605E+00 0.11203389884E+01 0.12670267194E+01 0.13859357079E+01 0.14635778683E+01
 0.15449419082E+01 0.15168829426E+01 0.14358826351E+01 0.13115522514E+01 0.11580789419E+01
 0.99046503931E+00 0.82288027442E+00 0.66722715196E+00 0.53125541186E+00 0.41890288092E+00
 0.33131365062E+00 0.26729290697E+00 0.22397302990E+00 0.19791333879E+00 0.18531701308E+00
 0.18242995442E+00 0.18572762377E+00 0.19200820584E+00 0.19858811761E+00 0.20339950465E+00
 0.20515419846E+00 0.20339950465E+00 0.19858811761E+00 0.19200820584E+00 0.18572762377E+00
 0.18242995442E+00 0.18531701308E+00 0.19791333879E+00 0.22397302990E+00 0.26729290697E+00
 0.33131365062E+00 0.41890288092E+00 0.53125541186E+00 0.66722715196E+00 0.82288027442E+00
 0.99046503931E+00 0.11580789419E+01 0.13115522514E+01 0.14358826351E+01 0.15168829426E+01
 0.15339113916E+01 0.15060140074E+01 0.14253993396E+01 0.13016969036E+01 0.11488730296E+01
 0.98170133828E+00 0.81423466178E+00 0.65817708643E+00 0.52111318528E+00 0.40686671500E+00
 0.31650243445E+00 0.24878167685E+00 0.20085380423E+00 0.16940456801E+00 0.15085405571E+00
 0.14174529317E+00 0.13896926180E+00 0.13981374790E+00 0.14208254431E+00 0.14411994133E+00
 0.14491730218E+00 0.14411994133E+00 0.14208254431E+00 0.13981374790E+00 0.13896926180E+00
 0.14174529317E+00 0.15085405571E+00 0.16940456801E+00 0.20085380423E+00 0.24878167685E+00
 0.31650243445E+00 0.40686671500E+00 0.52111318528E+00 0.65817708643E+00 0.81423466178E+00
 0.98170133828E+00 0.11488730296E+01 0.13016969036E+01 0.14253993396E+01 0.15060140074E+01
 0.14590753615E+01 0.14325185785E+01 0.13561064606E+01 0.12389144053E+01 0.10939573136E+01
 0.93480119025E+00 0.77517260848E+00 0.62591798367E+00 0.49415782785E+00 0.38355175398E+00
 0.29515570450E+00 0.22777089907E+00 0.17875415774E+00 0.14504720219E+00 0.12336346477E+00
 0.11062883904E+00 0.10411281246E+00 0.10150316048E+00 0.10097563861E+00 0.10119572466E+00
 0.10136133404E+00 0.10119572466E+00 0.10097563861E+00 0.10150316048E+00 0.10411281246E+00
 0.11062883904E+00 0.12336346477E+00 0.14504720219E+00 0.17875415774E+00 0.22777089907E+00
 0.29515570450E+00 0.38355175398E+00 0.49415782785E+00 0.62591798367E+00 0.77517260848E+00
 0.93480119025E+00 0.10939573136E+01 0.12389144053E+01 0.13561064606E+01 0.14325185785E+01
 0.13308583958E+01 0.13069017246E+01 0.12379498062E+01 0.11320953826E+01 0.10005115349E+01
 0.85590591788E+00 0.71052652268E+00 0.57405029568E+00 0.45291205650E+00 0.35057833076E+00
 0.26811052165E+00 0.20440884065E+00 0.15718799511E+00 0.12376184886E+00 0.10121630975E+00
 0.86880418602E-01 0.78396342707E-01 0.73823199696E-01 0.71640678652E-01 0.70765518437E-01
 0.70545738972E-01 0.70765518437E-01 0.71640678652E-01 0.73823199696E-01 0.78396342707E-01
 0.86880418602E-01 0.10121630975E+00 0.12376184886E+00 0.15718799511E+00 0.20440884065E+00
 0.26811052165E+00 0.35057833076E+00 0.45291205650E+00 0.57405029568E+00 0.71052652268E+00
 0.85590591788E+00 0.10005115349E+01 0.11320953826E+01 0.12379498062E+01 0.13069017246E+01
 0.11669051615E+01 0.11462699688E+01 0.10867716525E+01 0.99497489222E+00 0.88071278361E+00
 0.75498788555E+00 0.62815295333E+00 0.50847783665E+00 0.40163709703E+00 0.31085441637E+00
 0.23711504851E+00 0.17949486677E+00 0.13618001103E+00 0.10487629969E+00 0.83116142643E-01
 0.68657379915E-01 0.59503670104E-01 0.54045474431E-01 0.51022149874E-01 0.49561080012E-01
 0.49129209940E-01 0.49561080013E-01 0.51022149874E-01 0.54045474431E-01 0.59503670104E-01
 0.68657379915E-01 0.83116142643E-01 0.10487629969E+00 0.13618001103E+00 0.17949486677E+00
 0.23711504851E+00 0.31085441637E+00 0.40163709703E+00 0.50847783665E+00 0.62815295333E+00
 0.75498788555E+00 0.88071278361E+00 0.99497489222E+00 0.10867716525E+01 0.11462699688E+01
 0.98673427446E+00 0.96959019143E+00 0.92011975500E+00 0.84383943288E+00 0.74872341937E+00
 0.64372716834E+00 0.53727541177E+00 0.43624424594E+00 0.34552891298E+00 0.26799278901E+00
 0.20445978269E+00 0.15429357427E+00 0.11614010548E+00 0.88099575926E-01 0.68193685284E-01
 0.54570773211E-01 0.45603479582E-01 0.39975952519E-01 0.36664270542E-01 0.34961195684E-01
 0.34437878576E-01 0.34961195684E-01 0.36664270542E-01 0.39975952519E-01 0.45603479582E-01
 0.54570773211E-01 0.68193685284E-01 0.88099575926E-01 0.11614010548E+00 0.15429357427E+00
 0.20445978269E+00 0.26799278901E+00 0.34552891298E+00 0.43624424594E+00 0.53727541177E+00
 0.64372716834E+00 0.74872341937E+00 0.84383943288E+00 0.92011975500E+00 0.96959019143E+00
 0.80891734408E+00 0.79522324850E+00 0.75567568899E+00 0.69457918536E+00 0.61814353133E+00
 0.53335825314E+00 0.44689352552E+00 0.36435581182E+00 0.28983477929E+00 0.22567070703E+00
 0.17257099336E+00 0.13025990963E+00 0.97707013991E-01 0.73430903327E-01 0.55908271675E-01
 0.43650063604E-01 0.35372222929E-01 0.30005836556E-01 0.26742846749E-01 0.25007451425E-01
 0.24467649039E-01 0.25007451426E-01 0.26742846749E-01 0.30005836556E-01 0.35372222929E-01
 0.43650063604E-01 0.55908271675E-01 0.73430903327E-01 0.97707013991E-01 0.13025990963E+00
 0.17257099336E+00 0.22567070703E+00 0.28983477929E+00 0.36435581182E+00 0.44689352552E+00
 0.53335825314E+00 0.61814353133E+00 0.69457918536E+00 0.75567568899E+00 0.79522324850E+00
 0.64911514392E+00 0.63846700569E+00 0.60767790761E+00 0.55996807398E+00 0.50002659179E+00
 0.43318788435E+00 0.36466631329E+00 0.29889851822E+00 0.23910141283E+00 0.18710971694E+00
 0.14369516527E+00 0.10877734180E+00 0.81573973472E-01 0.61035769612E-01 0.45980340691E-01
 0.35263813232E-01 0.27878252906E-01 0.22985488694E-01 0.19943242948E-01 0.18295404099E-01
 0.17776487694E-01 0.18295404099E-01 0.19943242948E-01 0.22985488694E-01 0.27878252906E-01
 0.35263813232E-01 0.45980340691E-01 0.61035769612E-01 0.81573973472E-01 0.10877734180E+00
 0.14369516527E+00 0.18710971694E+00 0.23910141283E+00 0.29889851822E+00 0.36466631329E+00
 0.43318788435E+00 0.50002659179E+00 0.55996807398E+00 0.60767790761E+00 0.63846700569E+00
 0.51775408496E+00 0.50954891208E+00 0.48578408233E+00 0.44885907874E+00 0.40229136269E+00
 0.35014012244E+00 0.29638980208E+00 0.24442652756E+00 0.19673048214E+00 0.15488621729E+00
 0.11964738215E+00 0.90976156864E-01 0.68389046566E-01 0.51122936168E-01 0.38287100493E-01
 0.29016938283E-01 0.22520584258E-01 0.18145774518E-01 0.15378156544E-01 0.13861504541E-01
 0.13378253551E-01 0.13861504542E-01 0.15378156544E-01 0.18145774518E-01 0.22520584258E-01
 0.29016938283E-01 0.38287100493E-01 0.51122936168E-01 0.68389046566E-01 0.90976156864E-01
 0.11964738215E+00 0.15488621729E+00 0.19673048214E+00 0.24442652756E+00 0.29638980208E+00
 0.35014012245E+00 0.40229136269E+00 0.44885907874E+00 0.48578408233E+00 0.50954891208E+00
 0.42101635486E+00 0.41458215343E+00 0.39592484143E+00 0.36686763381E+00 0.33009219948E+00
 0.28869720526E+00 0.24573254714E+00 0.20384604390E+00 0.16509425105E+00 0.13083564434E+00
 0.10168070040E+00 0.77718402430E-01 0.58644615993E-01 0.43891019587E-01 0.32795895259E-01
 0.24675314623E-01 0.18912612640E-01 0.14978761171E-01 0.12463497008E-01 0.11070003708E-01
 0.10625688862E-01 0.11070003707E-01 0.12463497008E-01 0.14978761171E-01 0.18912612641E-01
 0.24675314623E-01 0.32795895259E-01 0.43891019587E-01 0.58644615993E-01 0.77718402430E-01
 0.10168070040E+00 0.13083564434E+00 0.16509425105E+00 0.20384604390E+00 0.24573254714E+00
 0.28869720526E+00 0.33009219948E+00 0.36686763381E+00 0.39592484143E+00 0.41458215343E+00
 0.36222156563E+00 0.35685782216E+00 0.34128726298E+00 0.31697553754E+00 0.28608664150E+00
 0.25113803423E+00 0.21466460951E+00 0.17892433704E+00 0.14566771738E+00 0.11602437454E+00
 0.90610176903E-01 0.69567119939E-01 0.52670693158E-01 0.39494700151E-01 0.29494902105E-01
 0.22114287920E-01 0.16827448784E-01 0.13188455850E-01 0.10841541698E-01 0.95349886305E-02
 0.91157623607E-02 0.95349886308E-02 0.10841541697E-01 0.13188455850E-01 0.16827448784E-01
 0.22114287920E-01 0.29494902105E-01 0.39494700151E-01 0.52670693158E-01 0.69567119939E-01
 0.90610176903E-01 0.11602437454E+00 0.14566771738E+00 0.17892433704E+00 0.21466460951E+00
 0.25113803423E+00 0.28608664150E+00 0.31697553754E+00 0.34128726298E+00 0.35685782216E+00
 0.34257075806E+00 0.33755728942E+00 0.32299292496E+00 0.30023072310E+00 0.27127737115E+00
 0.23848894810E+00 0.20422502178E+00 0.17055851114E+00 0.13911311477E+00 0.11102583037E+00
 0.86880500566E-01 0.66815597922E-01 0.50660559069E-01 0.38018664948E-01 0.28395595562E-01
 0.21266141915E-01 0.16143905307E-01 0.12606518745E-01 0.10320643360E-01 0.90445627224E-02
 0.86355456477E-02 0.90445627224E-02 0.10320643360E-01 0.12606518745E-01 0.16143905307E-01
 0.21266141915E-01 0.28395595563E-01 0.38018664948E-01 0.50660559069E-01 0.66815597922E-01
 0.86880500566E-01 0.11102583037E+00 0.13911311477E+00 0.17055851114E+00 0.20422502178E+00
 0.23848894810E+00 0.27127737115E+00 0.30023072310E+00 0.32299292496E+00 0.33755728942E+00
 0.36222156562E+00 0.35685782216E+00 0.34128726298E+00 0.31697553754E+00 0.28608664150E+00
 0.25113803423E+00 0.21466460951E+00 0.17892433704E+00 0.14566771738E+00 0.11602437454E+00
 0.90610176903E-01 0.69567119939E-01 0.52670693158E-01 0.39494700151E-01 0.29494902105E-01
 0.22114287921E-01 0.16827448784E-01 0.13188455850E-01 0.10841541698E-01 0.95349886306E-02
 0.91157623577E-02 0.95349886310E-02 0.10841541697E-01 0.13188455850E-01 0.16827448784E-01
 0.22114287920E-01 0.29494902105E-01 0.39494700151E-01 0.52670693158E-01 0.69567119939E-01
 0.90610176903E-01 0.11602437454E+00 0.14566771738E+00 0.17892433704E+00 0.21466460951E+00
 0.25113803423E+00 0.28608664150E+00 0.31697553754E+00 0.34128726298E+00 0.35685782216E+00
 0.42101635485E+00 0.41458215343E+00 0.39592484143E+00 0.36686763381E+00 0.33009219948E+00
 0.28869720526E+00 0.24573254714E+00 0.20384604390E+00 0.16509425105E+00 0.13083564434E+00
 0.10168070040E+00 0.77718402430E-01 0.58644615993E-01 0.43891019587E-01 0.32795895259E-01
 0.24675314623E-01 0.18912612641E-01 0.14978761171E-01 0.12463497008E-01 0.11070003708E-01
 0.10625688862E-01 0.11070003707E-01 0.12463497008E-01 0.14978761171E-01 0.18912612640E-01
 0.24675314623E-01 0.32795895259E-01 0.43891019587E-01 0.58644615993E-01 0.77718402430E-01
 0.10168070040E+00 0.13083564434E+00 0.16509425105E+00 0.20384604390E+00 0.24573254714E+00
 0.28869720526E+00 0.33009219948E+00 0.36686763381E+00 0.39592484143E+00 0.41458215343E+00
 0.51775408496E+00 0.50954891208E+00 0.48578408233E+00 0.44885907874E+00 0.40229136269E+00
 0.35014012245E+00 0.29638980208E+00 0.24442652756E+00 0.19673048214E+00 0.15488621729E+00
 0.11964738215E+00 0.90976156864E-01 0.68389046566E-01 0.51122936168E-01 0.38287100493E-01
 0.29016938283E-01 0.22520584258E-01 0.18145774518E-01 0.15378156544E-01 0.13861504542E-01
 0.13378253548E-01 0.13861504542E-01 0.15378156544E-01 0.18145774518E-01 0.22520584258E-01
 0.29016938283E-01 0.38287100493E-01 0.51122936168E-01 0.68389046566E-01 0.90976156864E-01
 0.11964738215E+00 0.15488621729E+00 0.19673048214E+00 0.24442652756E+00 0.29638980208E+00
 0.35014012244E+00 0.40229136269E+00 0.44885907874E+00 0.48578408232E+00 0.50954891208E+00
 0.64911514392E+00 0.63846700569E+00 0.60767790761E+00 0.55996807398E+00 0.50002659179E+00
 0.43318788435E+00 0.36466631329E+00 0.29889851822E+00 0.23910141283E+00 0.18710971694E+00
 0.14369516527E+00 0.10877734180E+00 0.81573973472E-01 0.61035769612E-01 0.45980340691E-01
 0.35263813232E-01 0.27878252906E-01 0.22985488694E-01 0.19943242948E-01 0.18295404100E-01
 0.17776487694E-01 0.18295404099E-01 0.19943242948E-01 0.22985488694E-01 0.27878252906E-01
 0.35263813232E-01 0.45980340691E-01 0.61035769612E-01 0.81573973472E-01 0.10877734180E+00
 0.14369516527E+00 0.18710971694E+00 0.23910141283E+00 0.29889851822E+00 0.36466631329E+00
 0.43318788435E+00 0.50002659179E+00 0.55996807398E+00 0.60767790761E+00 0.63846700569E+00
 0.80891734408E+00 0.79522324850E+00 0.75567568899E+00 0.69457918536E+00 0.61814353133E+00
 0.53335825314E+00 0.44689352552E+00 0.36435581182E+00 0.28983477929E+00 0.22567070703E+00
 0.17257099336E+00 0.13025990963E+00 0.97707013991E-01 0.73430903327E-01 0.55908271675E-01
 0.43650063604E-01 0.35372222929E-01 0.30005836556E-01 0.26742846749E-01 0.25007451426E-01
 0.24467649044E-01 0.25007451426E-01 0.26742846749E-01 0.30005836556E-01 0.35372222929E-01
 0.43650063604E-01 0.55908271676E-01 0.73430903327E-01 0.97707013991E-01 0.13025990963E+00
 0.17257099336E+00 0.22567070703E+00 0.28983477929E+00 0.36435581182E+00 0.44689352552E+00
 0.53335825314E+00 0.61814353133E+00 0.69457918536E+00 0.75567568899E+00 0.79522324850E+00
 0.98673427446E+00 0.96959019143E+00 0.92011975500E+00 0.84383943288E+00 0.74872341937E+00
 0.64372716834E+00 0.53727541177E+00 0.43624424594E+00 0.34552891298E+00 0.26799278901E+00
 0.20445978269E+00 0.15429357427E+00 0.11614010548E+00 0.88099575926E-01 0.68193685284E-01
 0.54570773211E-01 0.45603479582E-01 0.39975952519E-01 0.36664270542E-01 0.34961195684E-01
 0.34437878576E-01 0.34961195684E-01 0.36664270542E-01 0.39975952519E-01 0.45603479582E-01
 0.54570773211E-01 0.68193685284E-01 0.88099575926E-01 0.11614010548E+00 0.15429357427E+00
 0.20445978269E+00 0.26799278901E+00 0.34552891298E+00 0.43624424594E+00 0.53727541177E+00
 0.64372716834E+00 0.74872341937E+00 0.84383943288E+00 0.92011975500E+00 0.96959019143E+00
 0.11669051615E+01 0.11462699688E+01 0.10867716525E+01 0.99497489222E+00 0.88071278361E+00
 0.75498788555E+00 0.62815295333E+00 0.50847783665E+00 0.40163709703E+00 0.31085441637E+00
 0.23711504851E+00 0.17949486677E+00 0.13618001103E+00 0.10487629969E+00 0.83116142643E-01
 0.68657379915E-01 0.59503670104E-01 0.54045474431E-01 0.51022149874E-01 0.49561080012E-01
 0.49129209936E-01 0.49561080013E-01 0.51022149874E-01 0.54045474431E-01 0.59503670104E-01
 0.68657379915E-01 0.83116142643E-01 0.10487629969E+00 0.13618001103E+00 0.17949486677E+00
 0.23711504851E+00 0.31085441637E+00 0.40163709703E+00 0.50847783665E+00 0.62815295333E+00
 0.75498788555E+00 0.88071278361E+00 0.99497489222E+00 0.10867716525E+01 0.11462699688E+01
 0.13308583958E+01 0.13069017246E+01 0.12379498062E+01 0.11320953826E+01 0.10005115349E+01
 0.85590591788E+00 0.71052652268E+00 0.57405029568E+00 0.45291205650E+00 0.35057833076E+00
 0.26811052165E+00 0.20440884065E+00 0.15718799511E+00 0.12376184886E+00 0.10121630975E+00
 0.86880418602E-01 0.78396342707E-01 0.73823199696E-01 0.71640678652E-01 0.70765518437E-01
 0.70545738972E-01 0.70765518437E-01 0.71640678652E-01 0.73823199696E-01 0.78396342707E-01