unknown system                          
   1.00000000000000     
     2.500784    0.000000    0.000000
     0.000000    4.331484    0.000000
     0.000000    0.000000    4.033331
   Co
     4
Direct
  0.000000  0.666667  0.750000
  0.500000  0.833333  0.250000
  0.500000  0.166667  0.750000
  0.000000  0.333333  0.250000
 
   40   64   60
 0.68381819259E+01 0.68608763242E+01 0.69289392800E+01 0.70424077615E+01 0.72011269187E+01
 0.74047408736E+01 0.76523221852E+01 0.79423234937E+01 0.82719049821E+01 0.86370170133E+01
 0.90315982701E+01 0.94483633325E+01 0.98767993501E+01 0.10305267622E+02 0.10721254863E+02
 0.11108777783E+02 0.11452192902E+02 0.11737261913E+02 0.11951480343E+02 0.12084492208E+02
 0.12129636537E+02 0.12084492208E+02 0.11951480343E+02 0.11737261913E+02 0.11452192902E+02
 0.11108777783E+02 0.10721254863E+02 0.10305267622E+02 0.98767993501E+01 0.94483633325E+01
 0.90315982701E+01 0.86370170133E+01 0.82719049821E+01 0.79423234937E+01 0.76523221852E+01
 0.74047408736E+01 0.72011269187E+01 0.70424077615E+01 0.69289392800E+01 0.68608763242E+01
 0.68648088078E+01 0.68874795535E+01 0.69555624443E+01 0.70690495467E+01 0.72279535872E+01
 0.74319254075E+01 0.76802314798E+01 0.79711794729E+01 0.83022502130E+01 0.86692529035E+01
 0.90666904631E+01 0.94862286649E+01 0.99186910905E+01 0.10352183676E+02 0.10771601375E+02
 0.11162982197E+02 0.11511476163E+02 0.11801789404E+02 0.12019965279E+02 0.12155389995E+02
 0.12201268644E+02 0.12155389995E+02 0.12019965279E+02 0.11801789404E+02 0.11511476163E+02
 0.11162982197E+02 0.10771601375E+02 0.10352183676E+02 0.99186910905E+01 0.94862286649E+01
 0.90666904631E+01 0.86692529035E+01 0.83022502130E+01 0.79711794729E+01 0.76802314798E+01
 0.74319254075E+01 0.72279535872E+01 0.70690495467E+01 0.69555624443E+01 0.68874795535E+01
 0.69445297296E+01 0.69672357976E+01 0.70353170847E+01 0.71490137964E+01 0.73083260154E+01
 0.75132647513E+01 0.77631731341E+01 0.80569784688E+01 0.83920880684E+01 0.87649614078E+01
 0.91694994993E+01 0.95987349559E+01 0.10042308000E+02 0.10487000053E+02 0.10920543431E+02
 0.11327031318E+02 0.11688951309E+02 0.11989957345E+02 0.12216242814E+02 0.12356765157E+02
 0.12404457660E+02 0.12356765157E+02 0.12216242814E+02 0.11989957345E+02 0.11688951309E+02
 0.11327031318E+02 0.10920543431E+02 0.10487000053E+02 0.10042308000E+02 0.95987349559E+01
 0.91694994993E+01 0.87649614078E+01 0.83920880684E+01 0.80569784688E+01 0.77631731341E+01
 0.75132647513E+01 0.73083260154E+01 0.71490137964E+01 0.70353170847E+01 0.69672357976E+01
 0.70776678846E+01 0.71002261525E+01 0.71682082938E+01 0.72817389751E+01 0.74414282543E+01
 0.76473584274E+01 0.78996650005E+01 0.81971998830E+01 0.85384561631E+01 0.89195698376E+01
 0.93358165459E+01 0.97792956746E+01 0.10238928438E+02 0.10704594411E+02 0.11160164533E+02
 0.11587058907E+02 0.11967935677E+02 0.12286271668E+02 0.12526586882E+02 0.12676237868E+02
 0.12727056147E+02 0.12676237868E+02 0.12526586882E+02 0.12286271668E+02 0.11967935677E+02
 0.11587058907E+02 0.11160164533E+02 0.10704594411E+02 0.10238928438E+02 0.97792956746E+01
 0.93358165459E+01 0.89195698376E+01 0.85384561631E+01 0.81971998830E+01 0.78996650005E+01
 0.76473584274E+01 0.74414282543E+01 0.72817389751E+01 0.71682082938E+01 0.71002261525E+01
 0.72641572508E+01 0.72866115260E+01 0.73539649731E+01 0.74669829317E+01 0.76262151361E+01
 0.78326628009E+01 0.80865987381E+01 0.83881998647E+01 0.87359015166E+01 0.91270529242E+01
 0.95570784592E+01 0.10017087502E+02 0.10499726541E+02 0.10990472682E+02 0.11470731120E+02
 0.11923837421E+02 0.12331176778E+02 0.12672932174E+02 0.12930733023E+02 0.13091027600E+02
 0.13145325033E+02 0.13091027600E+02 0.12930733023E+02 0.12672932174E+02 0.12331176778E+02
 0.11923837421E+02 0.11470731120E+02 0.10990472682E+02 0.10499726541E+02 0.10017087502E+02
 0.95570784592E+01 0.91270529242E+01 0.87359015166E+01 0.83881998647E+01 0.80865987381E+01
 0.78326628009E+01 0.76262151361E+01 0.74669829317E+01 0.73539649731E+01 0.72866115260E+01
 0.75046855877E+01 0.75266362158E+01 0.75926927411E+01 0.77038313326E+01 0.78612266957E+01
 0.80664925179E+01 0.83206960734E+01 0.86247474038E+01 0.89777482573E+01 0.93787233152E+01
 0.98214458313E+01 0.10301102820E+02 0.10807469292E+02 0.11322728106E+02 0.11832119996E+02
 0.12316368231E+02 0.12751814152E+02 0.13114918963E+02 0.13387472701E+02 0.13556161672E+02
 0.13613364087E+02 0.13556161672E+02 0.13387472701E+02 0.13114918963E+02 0.12751814152E+02
 0.12316368231E+02 0.11832119996E+02 0.11322728106E+02 0.10807469292E+02 0.10301102820E+02
 0.98214458313E+01 0.93787233152E+01 0.89777482573E+01 0.86247474038E+01 0.83206960734E+01
 0.80664925179E+01 0.78612266957E+01 0.77038313326E+01 0.75926927411E+01 0.75266362158E+01
 0.77996829466E+01 0.78206658153E+01 0.78844569825E+01 0.79918726823E+01 0.81452107575E+01
 0.83462046928E+01 0.85976291375E+01 0.89005941693E+01 0.92564445950E+01 0.96632041831E+01
 0.10117291132E+02 0.10614660432E+02 0.11140383232E+02 0.11680968749E+02 0.12219907127E+02
 0.12731356259E+02 0.13187895003E+02 0.13566743025E+02 0.13850808078E+02 0.14026992542E+02
 0.14086790061E+02 0.14026992542E+02 0.13850808078E+02 0.13566743025E+02 0.13187895003E+02
 0.12731356259E+02 0.12219907127E+02 0.11680968749E+02 0.11140383232E+02 0.10614660432E+02
 0.10117291132E+02 0.96632041831E+01 0.92564445950E+01 0.89005941693E+01 0.85976291375E+01
 0.83462046928E+01 0.81452107575E+01 0.79918726823E+01 0.78844569825E+01 0.78206658153E+01
 0.81499902889E+01 0.81696080899E+01 0.82292842780E+01 0.83304689925E+01 0.84760586844E+01
 0.86689229393E+01 0.89127417481E+01 0.92096493924E+01 0.95625247477E+01 0.99695347740E+01
 0.10430454980E+02 0.10938117016E+02 0.11478676646E+02 0.12040862513E+02 0.12601600520E+02
 0.13130728666E+02 0.13600982523E+02 0.13992286959E+02 0.14287524119E+02 0.14595513227E+02
 0.14664930725E+02 0.14595513227E+02 0.14287524119E+02 0.13992286959E+02 0.13600982523E+02
 0.13130728666E+02 0.12601600520E+02 0.12040862513E+02 0.11478676646E+02 0.10938117016E+02
 0.10430454980E+02 0.99695347740E+01 0.95625247477E+01 0.92096493924E+01 0.89127417481E+01
 0.86689229393E+01 0.84760586844E+01 0.83304689925E+01 0.82292842780E+01 0.81696080899E+01
 0.85563600003E+01 0.85740190840E+01 0.86275565590E+01 0.87193690406E+01 0.88526323990E+01
 0.90317413780E+01 0.92611025163E+01 0.95451032191E+01 0.98869418088E+01 0.10286443748E+02
 0.10745239047E+02 0.11253655248E+02 0.11801355242E+02 0.12375224873E+02 0.12945996240E+02
 0.13482505969E+02 0.13960620427E+02 0.14481960015E+02 0.14822681610E+02 0.15037956211E+02
 0.15111391811E+02 0.15037956211E+02 0.14822681610E+02 0.14481960015E+02 0.13960620427E+02
 0.13482505969E+02 0.12945996240E+02 0.12375224873E+02 0.11801355242E+02 0.11253655248E+02
 0.10745239047E+02 0.10286443748E+02 0.98869418088E+01 0.95451032191E+01 0.92611025163E+01
 0.90317413780E+01 0.88526323990E+01 0.87193690406E+01 0.86275565590E+01 0.85740190840E+01
 0.90197251659E+01 0.90344710219E+01 0.90792197139E+01 0.91573012662E+01 0.92726522837E+01
 0.94313201943E+01 0.96385068209E+01 0.99003848833E+01 0.10220935952E+02 0.10602747553E+02
 0.11047305862E+02 0.11544798212E+02 0.12087890597E+02 0.12659521337E+02 0.13227292121E+02
 0.13761617168E+02 0.14349281030E+02 0.14803538405E+02 0.15154463960E+02 0.15375920025E+02
 0.15451493697E+02 0.15375920025E+02 0.15154463960E+02 0.14803538405E+02 0.14349281030E+02
 0.13761617168E+02 0.13227292121E+02 0.12659521337E+02 0.12087890597E+02 0.11544798212E+02
 0.11047305862E+02 0.10602747553E+02 0.10220935952E+02 0.99003848833E+01 0.96385068209E+01
 0.94313201943E+01 0.92726522837E+01 0.91573012662E+01 0.90792197139E+01 0.90344710219E+01
 0.95399942947E+01 0.95508798948E+01 0.95841644652E+01 0.96439045627E+01 0.97348472577E+01
 0.98645118315E+01 0.10039774171E+02 0.10269090405E+02 0.10557039283E+02 0.10908121524E+02
 0.11324618299E+02 0.11797412332E+02 0.12320541103E+02 0.12874783124E+02 0.13426752151E+02
 0.13948254994E+02 0.14545244244E+02 0.14999351540E+02 0.15350340955E+02 0.15571873711E+02
 0.15647400979E+02 0.15571873711E+02 0.15350340955E+02 0.14999351540E+02 0.14545244244E+02
 0.13948254994E+02 0.13426752151E+02 0.12874783124E+02 0.12320541103E+02 0.11797412332E+02
 0.11324618299E+02 0.10908121524E+02 0.10557039283E+02 0.10269090405E+02 0.10039774171E+02
 0.98645118315E+01 0.97348472577E+01 0.96439045627E+01 0.95841644652E+01 0.95508798948E+01
 0.10115198626E+02 0.10120954945E+02 0.10139236858E+02 0.10175084798E+02 0.10234806438E+02
 0.10327440532E+02 0.10461051884E+02 0.10645461553E+02 0.10887845027E+02 0.11194467635E+02
 0.11567867335E+02 0.12000403724E+02 0.12486971895E+02 0.13008217154E+02 0.13531057882E+02
 0.14027962937E+02 0.14607801492E+02 0.15047219041E+02 0.15387689595E+02 0.15602830514E+02
 0.15676266465E+02 0.15602830514E+02 0.15387689595E+02 0.15047219041E+02 0.14607801492E+02
 0.14027962937E+02 0.13531057882E+02 0.13008217154E+02 0.12486971895E+02 0.12000403724E+02
 0.11567867335E+02 0.11194467635E+02 0.10887845027E+02 0.10645461553E+02 0.10461051884E+02
 0.10327440532E+02 0.10234806438E+02 0.10175084798E+02 0.10139236858E+02 0.10120954945E+02
 0.10743900627E+02 0.10743467144E+02 0.10743374287E+02 0.10749419749E+02 0.10769221683E+02
 0.10814127281E+02 0.10895172322E+02 0.11023995918E+02 0.11208021795E+02 0.11455009601E+02
 0.11770633654E+02 0.12147180658E+02 0.12580101077E+02 0.13052882840E+02 0.13533596362E+02
 0.13993710689E+02 0.14528469775E+02 0.14938541085E+02 0.15257901314E+02 0.15460454096E+02
 0.15529750049E+02 0.15460454096E+02 0.15257901314E+02 0.14938541085E+02 0.14528469775E+02
 0.13993710689E+02 0.13533596362E+02 0.13052882840E+02 0.12580101077E+02 0.12147180658E+02
 0.11770633654E+02 0.11455009601E+02 0.11208021795E+02 0.11023995918E+02 0.10895172322E+02
 0.10814127281E+02 0.10769221683E+02 0.10749419749E+02 0.10743374287E+02 0.10743467144E+02
 0.11412778180E+02 0.11405085013E+02 0.11384026040E+02 0.11356202858E+02 0.11331011087E+02
 0.11320433100E+02 0.11337558297E+02 0.11397011541E+02 0.11511269033E+02 0.11686058722E+02
 0.11928796730E+02 0.12235184369E+02 0.12598751393E+02 0.13007815315E+02 0.13433308593E+02
 0.13845843602E+02 0.14223008668E+02 0.14679976996E+02 0.14967921125E+02 0.15151481087E+02
 0.15214347007E+02 0.15151481087E+02 0.14967921125E+02 0.14679976996E+02 0.14223008668E+02
 0.13845843602E+02 0.13433308593E+02 0.13007815315E+02 0.12598751393E+02 0.12235184369E+02
 0.11928796730E+02 0.11686058722E+02 0.11511269033E+02 0.11397011541E+02 0.11337558297E+02
 0.11320433100E+02 0.11331011087E+02 0.11356202858E+02 0.11384026040E+02 0.11405085013E+02
 0.12111575094E+02 0.12095443316E+02 0.12049645387E+02 0.11981868183E+02 0.11904234897E+02
 0.11831563939E+02 0.11779063096E+02 0.11760609702E+02 0.11791559945E+02 0.11883084124E+02
 0.12041557219E+02 0.12265053716E+02 0.12546732687E+02 0.12877786037E+02 0.13235805982E+02
 0.13590998342E+02 0.13918373351E+02 0.14199227343E+02 0.14538320189E+02 0.14697022695E+02
 0.14751646620E+02 0.14697022695E+02 0.14538320189E+02 0.14199227343E+02 0.13918373351E+02
 0.13590998342E+02 0.13235805982E+02 0.12877786037E+02 0.12546732687E+02 0.12265053716E+02
 0.12041557219E+02 0.11883084124E+02 0.11791559945E+02 0.11760609702E+02 0.11779063096E+02
 0.11831563939E+02 0.11904234897E+02 0.11981868183E+02 0.12049645387E+02 0.12095443316E+02
 0.12815050511E+02 0.12790664479E+02 0.12720400735E+02 0.12611549811E+02 0.12477282141E+02
 0.12334611111E+02 0.12204007911E+02 0.12102716220E+02 0.12045232851E+02 0.12043160752E+02
 0.12108103746E+02 0.12240259808E+02 0.12431329546E+02 0.12673973240E+02 0.12952064261E+02
 0.13240824202E+02 0.13513193698E+02 0.13748494469E+02 0.13929995995E+02 0.14045117704E+02
 0.14084471314E+02 0.14045117704E+02 0.13929995995E+02 0.13748494469E+02 0.13513193698E+02
 0.13240824202E+02 0.12952064261E+02 0.12673973240E+02 0.12431329546E+02 0.12240259808E+02
 0.12108103746E+02 0.12043160752E+02 0.12045232851E+02 0.12102716220E+02 0.12204007911E+02
 0.12334611111E+02 0.12477282141E+02 0.12611549811E+02 0.12720400735E+02 0.12790664479E+02
 0.13482495383E+02 0.13450551783E+02 0.13357803059E+02 0.13211473897E+02 0.13024374197E+02
 0.12813359148E+02 0.12601034443E+02 0.12410760439E+02 0.12261474080E+02 0.12164553253E+02
 0.12129530097E+02 0.12164553253E+02 0.12261474080E+02 0.12410760439E+02 0.12601034443E+02
 0.12813359148E+02 0.13024374197E+02 0.13211473897E+02 0.13357803059E+02 0.13450551783E+02
 0.13482495383E+02 0.13450551783E+02 0.13357803059E+02 0.13211473897E+02 0.13024374197E+02
 0.12813359148E+02 0.12601034443E+02 0.12410760439E+02 0.12261474080E+02 0.12164553253E+02
 0.12129530097E+02 0.12164553253E+02 0.12261474080E+02 0.12410760439E+02 0.12601034443E+02
 0.12813359148E+02 0.13024374197E+02 0.13211473897E+02 0.13357803059E+02 0.13450551783E+02
 0.14084471314E+02 0.14045117704E+02 0.13929995995E+02 0.13748494469E+02 0.13513193698E+02
 0.13240824202E+02 0.12952064261E+02 0.12673973240E+02 0.12431329546E+02 0.12240259808E+02
 0.12108103746E+02 0.12043160752E+02 0.12045232851E+02 0.12102716220E+02 0.12204007911E+02
 0.12334611111E+02 0.12477282141E+02 0.12611549811E+02 0.12720400735E+02 0.12790664479E+02
 0.12815050511E+02 0.12790664479E+02 0.12720400735E+02 0.12611549811E+02 0.12477282141E+02
 0.12334611111E+02 0.12204007911E+02 0.12102716220E+02 0.12045232851E+02 0.12043160752E+02
 0.12108103746E+02 0.12240259808E+02 0.12431329546E+02 0.12673973240E+02 0.12952064261E+02
 0.13240824202E+02 0.13513193698E+02 0.13748494469E+02 0.13929995995E+02 0.14045117704E+02
 0.14751646620E+02 0.14697022695E+02 0.14538320189E+02 0.14199227343E+02 0.13918373351E+02
 0.13590998342E+02 0.13235805982E+02 0.12877786037E+02 0.12546732687E+02 0.12265053716E+02
 0.12041557219E+02 0.11883084124E+02 0.11791559945E+02 0.11760609702E+02 0.11779063096E+02
 0.11831563939E+02 0.11904234897E+02 0.11981868183E+02 0.12049645387E+02 0.12095443316E+02
 0.12111575094E+02 0.12095443316E+02 0.12049645387E+02 0.11981868183E+02 0.11904234897E+02
 0.11831563939E+02 0.11779063096E+02 0.11760609702E+02 0.11791559945E+02 0.11883084124E+02
 0.12041557219E+02 0.12265053716E+02 0.12546732687E+02 0.12877786037E+02 0.13235805982E+02
 0.13590998342E+02 0.13918373351E+02 0.14199227343E+02 0.14538320189E+02 0.14697022695E+02
 0.15214347007E+02 0.15151481087E+02 0.14967921125E+02 0.14679976996E+02 0.14223008668E+02
 0.13845843602E+02 0.13433308593E+02 0.13007815315E+02 0.12598751393E+02 0.12235184369E+02
 0.11928796730E+02 0.11686058722E+02 0.11511269033E+02 0.11397011541E+02 0.11337558297E+02
 0.11320433100E+02 0.11331011087E+02 0.11356202858E+02 0.11384026040E+02 0.11405085013E+02
 0.11412778180E+02 0.11405085013E+02 0.11384026040E+02 0.11356202858E+02 0.11331011087E+02
 0.11320433100E+02 0.11337558297E+02 0.11397011541E+02 0.11511269033E+02 0.11686058722E+02
 0.11928796730E+02 0.12235184369E+02 0.12598751393E+02 0.13007815315E+02 0.13433308593E+02
 0.13845843602E+02 0.14223008668E+02 0.14679976996E+02 0.14967921125E+02 0.15151481087E+02
 0.15529750049E+02 0.15460454096E+02 0.15257901314E+02 0.14938541085E+02 0.14528469775E+02
 0.13993710689E+02 0.13533596362E+02 0.13052882840E+02 0.12580101077E+02 0.12147180658E+02
 0.11770633654E+02 0.11455009601E+02 0.11208021795E+02 0.11023995918E+02 0.10895172322E+02
 0.10814127281E+02 0.10769221683E+02 0.10749419749E+02 0.10743374287E+02 0.10743467144E+02
 0.10743900627E+02 0.10743467144E+02 0.10743374287E+02 0.10749419749E+02 0.10769221683E+02
 0.10814127281E+02 0.10895172322E+02 0.11023995918E+02 0.11208021795E+02 0.11455009601E+02
 0.11770633654E+02 0.12147180658E+02 0.12580101077E+02 0.13052882840E+02 0.13533596362E+02
 0.13993710689E+02 0.14528469775E+02 0.14938541085E+02 0.15257901314E+02 0.15460454096E+02
 0.15676266465E+02 0.15602830514E+02 0.15387689595E+02 0.15047219041E+02 0.14607801492E+02
 0.14027962937E+02 0.13531057882E+02 0.13008217154E+02 0.12486971895E+02 0.12000403724E+02
 0.11567867335E+02 0.11194467635E+02 0.10887845027E+02 0.10645461553E+02 0.10461051884E+02
 0.10327440532E+02 0.10234806438E+02 0.10175084798E+02 0.10139236858E+02 0.10120954945E+02
 0.10115198626E+02 0.10120954945E+02 0.10139236858E+02 0.10175084798E+02 0.10234806438E+02
 0.10327440532E+02 0.10461051884E+02 0.10645461553E+02 0.10887845027E+02 0.11194467635E+02
 0.11567867335E+02 0.12000403724E+02 0.12486971895E+02 0.13008217154E+02 0.13531057882E+02
 0.14027962937E+02 0.14607801492E+02 0.15047219041E+02 0.15387689595E+02 0.15602830514E+02
 0.15647400979E+02 0.15571873711E+02 0.15350340955E+02 0.14999351540E+02 0.14545244244E+02
 0.13948254994E+02 0.13426752151E+02 0.12874783124E+02 0.12320541103E+02 0.11797412332E+02
 0.11324618299E+02 0.10908121524E+02 0.10557039283E+02 0.10269090405E+02 0.10039774171E+02
 0.98645118315E+01 0.97348472577E+01 0.96439045627E+01 0.95841644652E+01 0.95508798948E+01
 0.95399942947E+01 0.95508798948E+01 0.95841644652E+01 0.96439045627E+01 0.97348472577E+01
 0.98645118315E+01 0.10039774171E+02 0.10269090405E+02 0.10557039283E+02 0.10908121524E+02
 0.11324618299E+02 0.11797412332E+02 0.12320541103E+02 0.12874783124E+02 0.13426752151E+02
 0.13948254994E+02 0.14545244244E+02 0.14999351540E+02 0.15350340955E+02 0.15571873711E+02
 0.15451493697E+02 0.15375920025E+02 0.15154463960E+02 0.14803538405E+02 0.14349281030E+02
 0.13761617168E+02 0.13227292121E+02 0.12659521337E+02 0.12087890597E+02 0.11544798212E+02
 0.11047305862E+02 0.10602747553E+02 0.10220935952E+02 0.99003848833E+01 0.96385068209E+01
 0.94313201943E+01 0.92726522837E+01 0.91573012662E+01 0.90792197139E+01 0.90344710219E+01
 0.90197251659E+01 0.90344710219E+01 0.90792197139E+01 0.91573012662E+01 0.92726522837E+01
 0.94313201943E+01 0.96385068209E+01 0.99003848833E+01 0.10220935952E+02 0.10602747553E+02
 0.11047305862E+02 0.11544798212E+02 0.12087890597E+02 0.12659521337E+02 0.13227292121E+02
 0.13761617168E+02 0.14349281030E+02 0.14803538405E+02 0.15154463960E+02 0.15375920025E+02
 0.15111391811E+02 0.15037956211E+02 0.14822681610E+02 0.14481960015E+02 0.13960620427E+02
 0.13482505969E+02 0.12945996240E+02 0.12375224873E+02 0.11801355242E+02 0.11253655248E+02
 0.10745239047E+02 0.10286443748E+02 0.98869418088E+01 0.95451032191E+01 0.92611025163E+01
 0.90317413780E+01 0.88526323990E+01 0.87193690406E+01 0.86275565590E+01 0.85740190840E+01
 0.85563600003E+01 0.85740190840E+01 0.86275565590E+01 0.87193690406E+01 0.88526323990E+01
 0.90317413780E+01 0.92611025163E+01 0.95451032191E+01 0.98869418088E+01 0.10286443748E+02
 0.10745239047E+02 0.11253655248E+02 0.11801355242E+02 0.12375224873E+02 0.12945996240E+02
 0.13482505969E+02 0.13960620427E+02 0.14481960015E+02 0.14822681610E+02 0.15037956211E+02
 0.14664930725E+02 0.14595513227E+02 0.14287524119E+02 0.13992286959E+02 0.13600982523E+02
 0.13130728666E+02 0.12601600520E+02 0.12040862513E+02 0.11478676646E+02 0.10938117016E+02
 0.10430454980E+02 0.99695347740E+01 0.95625247477E+01 0.92096493924E+01 0.89127417481E+01
 0.86689229393E+01 0.84760586844E+01 0.83304689925E+01 0.82292842780E+01 0.81696080899E+01
 0.81499902889E+01 0.81696080899E+01 0.82292842780E+01 0.83304689925E+01 0.84760586844E+01
 0.86689229393E+01 0.89127417481E+01 0.92096493924E+01 0.95625247477E+01 0.99695347740E+01
 0.10430454980E+02 0.10938117016E+02 0.11478676646E+02 0.12040862513E+02 0.12601600520E+02
 0.13130728666E+02 0.13600982523E+02 0.13992286959E+02 0.14287524119E+02 0.14595513227E+02
 0.14086790061E+02 0.14026992542E+02 0.13850808078E+02 0.13566743025E+02 0.13187895003E+02
 0.12731356259E+02 0.12219907127E+02 0.11680968749E+02 0.11140383232E+02 0.10614660432E+02
 0.10117291132E+02 0.96632041831E+01 0.92564445950E+01 0.89005941693E+01 0.85976291375E+01
 0.83462046928E+01 0.81452107575E+01 0.79918726823E+01 0.78844569825E+01 0.78206658153E+01
 0.77996829466E+01 0.78206658153E+01 0.78844569825E+01 0.79918726823E+01 0.81452107575E+01
 0.83462046928E+01 0.85976291375E+01 0.89005941693E+01 0.92564445950E+01 0.96632041831E+01
 0.10117291132E+02 0.10614660432E+02 0.11140383232E+02 0.11680968749E+02 0.12219907127E+02
 0.12731356259E+02 0.13187895003E+02 0.13566743025E+02 0.13850808078E+02 0.14026992542E+02
 0.13613364087E+02 0.13556161672E+02 0.13387472701E+02 0.13114918963E+02 0.12751814152E+02
 0.12316368231E+02 0.11832119996E+02 0.11322728106E+02 0.10807469292E+02 0.10301102820E+02
 0.98214458313E+01 0.93787233152E+01 0.89777482573E+01 0.86247474038E+01 0.83206960734E+01
 0.80664925179E+01 0.78612266957E+01 0.77038313326E+01 0.75926927411E+01 0.75266362158E+01
 0.75046855877E+01 0.75266362158E+01 0.75926927411E+01 0.77038313326E+01 0.78612266957E+01
 0.80664925179E+01 0.83206960734E+01 0.86247474038E+01 0.89777482573E+01 0.93787233152E+01
 0.98214458313E+01 0.10301102820E+02 0.10807469292E+02 0.11322728106E+02 0.11832119996E+02
 0.12316368231E+02 0.12751814152E+02 0.13114918963E+02 0.13387472701E+02 0.13556161672E+02
 0.13145325033E+02 0.13091027600E+02 0.12930733023E+02 0.12672932174E+02 0.12331176778E+02
 0.11923837421E+02 0.11470731120E+02 0.10990472682E+02 0.10499726541E+02 0.10017087502E+02
 0.95570784592E+01 0.91270529242E+01 0.87359015166E+01 0.83881998647E+01 0.80865987381E+01
 0.78326628009E+01 0.76262151361E+01 0.74669829317E+01 0.73539649731E+01 0.72866115260E+01
 0.72641572508E+01 0.72866115260E+01 0.73539649731E+01 0.74669829317E+01 0.76262151361E+01
 0.78326628009E+01 0.80865987381E+01 0.83881998647E+01 0.87359015166E+01 0.91270529242E+01
 0.95570784592E+01 0.10017087502E+02 0.10499726541E+02 0.10990472682E+02 0.11470731120E+02
 0.11923837421E+02 0.12331176778E+02 0.12672932174E+02 0.12930733023E+02 0.13091027600E+02
 0.12727056147E+02 0.12676237868E+02 0.12526586882E+02 0.12286271668E+02 0.11967935677E+02
 0.11587058907E+02 0.11160164533E+02 0.10704594411E+02 0.10238928438E+02 0.97792956746E+01
 0.93358165459E+01 0.89195698376E+01 0.85384561631E+01 0.81971998830E+01 0.78996650005E+01
 0.76473584274E+01 0.74414282543E+01 0.72817389751E+01 0.71682082938E+01 0.71002261525E+01
 0.70776678846E+01 0.71002261525E+01 0.71682082938E+01 0.72817389751E+01 0.74414282543E+01
 0.76473584274E+01 0.78996650005E+01 0.81971998830E+01 0.85384561631E+01 0.89195698376E+01
 0.93358165459E+01 0.97792956746E+01 0.10238928438E+02 0.10704594411E+02 0.11160164533E+02
 0.11587058907E+02 0.11967935677E+02 0.12286271668E+02 0.12526586882E+02 0.12676237868E+02
 0.12404457660E+02 0.12356765157E+02 0.12216242814E+02 0.11989957345E+02 0.11688951309E+02
 0.11327031318E+02 0.10920543431E+02 0.10487000053E+02 0.10042308000E+02 0.95987349559E+01
 0.91694994993E+01 0.87649614078E+01 0.83920880684E+01 0.80569784688E+01 0.77631731341E+01
 0.75132647513E+01 0.73083260154E+01 0.71490137964E+01 0.70353170847E+01 0.69672357976E+01
 0.69445297296E+01 0.69672357976E+01 0.70353170847E+01 0.71490137964E+01 0.73083260154E+01
 0.75132647513E+01 0.77631731341E+01 0.80569784688E+01 0.83920880684E+01 0.87649614078E+01
 0.91694994993E+01 0.95987349559E+01 0.10042308000E+02 0.10487000053E+02 0.10920543431E+02
 0.11327031318E+02 0.11688951309E+02 0.11989957345E+02 0.12216242814E+02 0.12356765157E+02
 0.12201268644E+02 0.12155389995E+02 0.12019965279E+02 0.11801789404E+02 0.11511476163E+02
 0.11162982197E+02 0.10771601375E+02 0.10352183676E+02 0.99186910905E+01 0.94862286649E+01
 0.90666904631E+01 0.86692529035E+01 0.83022502130E+01 0.79711794729E+01 0.76802314798E+01
 0.74319254075E+01 0.72279535872E+01 0.70690495467E+01 0.69555624443E+01 0.68874795535E+01
 0.68648088078E+01 0.68874795535E+01 0.69555624443E+01 0.70690495467E+01 0.72279535872E+01
 0.74319254075E+01 0.76802314798E+01 0.79711794729E+01 0.83022502130E+01 0.86692529035E+01
 0.90666904631E+01 0.94862286649E+01 0.99186910905E+01 0.10352183676E+02 0.10771601375E+02
 0.11162982197E+02 0.11511476163E+02 0.11801789404E+02 0.12019965279E+02 0.12155389995E+02
 0.12129636537E+02 0.12084492208E+02 0.11951480343E+02 0.11737261913E+02 0.11452192902E+02
 0.11108777783E+02 0.10721254863E+02 0.10305267622E+02 0.98767993501E+01 0.94483633325E+01
 0.90315982701E+01 0.86370170133E+01 0.82719049821E+01 0.79423234937E+01 0.76523221852E+01
 0.74047408736E+01 0.72011269187E+01 0.70424077615E+01 0.69289392800E+01 0.68608763242E+01
 0.68381819259E+01 0.68608763242E+01 0.69289392800E+01 0.70424077615E+01 0.72011269187E+01
 0.74047408736E+01 0.76523221852E+01 0.79423234937E+01 0.82719049821E+01 0.86370170133E+01
 0.90315982701E+01 0.94483633325E+01 0.98767993501E+01 0.10305267622E+02 0.10721254863E+02
 0.11108777783E+02 0.11452192902E+02 0.11737261913E+02 0.11951480343E+02 0.12084492208E+02
 0.12201268644E+02 0.12155389995E+02 0.12019965279E+02 0.11801789404E+02 0.11511476163E+02
 0.11162982197E+02 0.10771601375E+02 0.10352183676E+02 0.99186910905E+01 0.94862286649E+01
 0.90666904631E+01 0.86692529035E+01 0.83022502130E+01 0.79711794729E+01 0.76802314798E+01
 0.74319254075E+01 0.72279535872E+01 0.70690495467E+01 0.69555624443E+01 0.68874795535E+01
 0.68648088078E+01 0.68874795535E+01 0.69555624443E+01 0.70690495467E+01 0.72279535872E+01
 0.74319254075E+01 0.76802314798E+01 0.79711794729E+01 0.83022502130E+01 0.86692529035E+01
 0.90666904631E+01 0.94862286649E+01 0.99186910905E+01 0.10352183676E+02 0.10771601375E+02
 0.11162982197E+02 0.11511476163E+02 0.11801789404E+02 0.12019965279E+02 0.12155389995E+02
 0.12404457660E+02 0.12356765157E+02 0.12216242814E+02 0.11989957345E+02 0.11688951309E+02
 0.11327031318E+02 0.10920543431E+02 0.10487000053E+02 0.10042308000E+02 0.95987349559E+01
 0.91694994993E+01 0.87649614078E+01 0.83920880684E+01 0.80569784688E+01 0.77631731341E+01
 0.75132647513E+01 0.73083260154E+01 0.71490137964E+01 0.70353170847E+01 0.69672357976E+01
 0.69445297296E+01 0.69672357976E+01 0.70353170847E+01 0.71490137964E+01 0.73083260154E+01
 0.75132647513E+01 0.77631731341E+01 0.80569784688E+01 0.83920880684E+01 0.87649614078E+01
 0.91694994993E+01 0.95987349559E+01 0.10042308000E+02 0.10487000053E+02 0.10920543431E+02
 0.11327031318E+02 0.11688951309E+02 0.11989957345E+02 0.12216242814E+02 0.12356765157E+02
 0.12727056147E+02 0.12676237868E+02 0.12526586882E+02 0.12286271668E+02 0.11967935677E+02
 0.11587058907E+02 0.11160164533E+02 0.10704594411E+02 0.10238928438E+02 0.97792956746E+01
 0.93358165459E+01 0.89195698376E+01 0.85384561631E+01 0.81971998830E+01 0.78996650005E+01
 0.76473584274E+01 0.74414282543E+01 0.72817389751E+01 0.71682082938E+01 0.71002261525E+01
 0.70776678846E+01 0.71002261525E+01 0.71682082938E+01 0.72817389751E+01 0.74414282543E+01
 0.76473584274E+01 0.78996650005E+01 0.81971998830E+01 0.85384561631E+01 0.89195698376E+01
 0.93358165459E+01 0.97792956746E+01 0.10238928438E+02 0.10704594411E+02 0.11160164533E+02
 0.11587058907E+02 0.11967935677E+02 0.12286271668E+02 0.12526586882E+02 0.12676237868E+02
 0.13145325033E+02 0.13091027600E+02 0.12930733023E+02 0.12672932174E+02 0.12331176778E+02
 0.11923837421E+02 0.11470731120E+02 0.10990472682E+02 0.10499726541E+02 0.10017087502E+02
 0.95570784592E+01 0.91270529242E+01 0.87359015166E+01 0.83881998647E+01 0.80865987381E+01
 0.78326628009E+01 0.76262151361E+01 0.74669829317E+01 0.73539649731E+01 0.72866115260E+01
 0.72641572508E+01 0.72866115260E+01 0.73539649731E+01 0.74669829317E+01 0.76262151361E+01
 0.78326628009E+01 0.80865987381E+01 0.83881998647E+01 0.87359015166E+01 0.91270529242E+01
 0.95570784592E+01 0.10017087502E+02 0.10499726541E+02 0.10990472682E+02 0.11470731120E+02
 0.11923837421E+02 0.12331176778E+02 0.12672932174E+02 0.12930733023E+02 0.13091027600E+02
 0.13613364087E+02 0.13556161672E+02 0.13387472701E+02 0.13114918963E+02 0.12751814152E+02
 0.12316368231E+02 0.11832119996E+02 0.11322728106E+02 0.10807469292E+02 0.10301102820E+02
 0.98214458313E+01 0.93787233152E+01 0.89777482573E+01 0.86247474038E+01 0.83206960734E+01
 0.80664925179E+01 0.78612266957E+01 0.77038313326E+01 0.75926927411E+01 0.75266362158E+01
 0.75046855877E+01 0.75266362158E+01 0.75926927411E+01 0.77038313326E+01 0.78612266957E+01
 0.80664925179E+01 0.83206960734E+01 0.86247474038E+01 0.89777482573E+01 0.93787233152E+01
 0.98214458313E+01 0.10301102820E+02 0.10807469292E+02 0.11322728106E+02 0.11832119996E+02
 0.12316368231E+02 0.12751814152E+02 0.13114918963E+02 0.13387472701E+02 0.13556161672E+02
 0.14086790061E+02 0.14026992542E+02 0.13850808078E+02 0.13566743025E+02 0.13187895003E+02
 0.12731356259E+02 0.12219907127E+02 0.11680968749E+02 0.11140383232E+02 0.10614660432E+02
 0.10117291132E+02 0.96632041831E+01 0.92564445950E+01 0.89005941693E+01 0.85976291375E+01
 0.83462046928E+01 0.81452107575E+01 0.79918726823E+01 0.78844569825E+01 0.78206658153E+01
 0.77996829466E+01 0.78206658153E+01 0.78844569825E+01 0.79918726823E+01 0.81452107575E+01
 0.83462046928E+01 0.85976291375E+01 0.89005941693E+01 0.92564445950E+01 0.96632041831E+01
 0.10117291132E+02 0.10614660432E+02 0.11140383232E+02 0.11680968749E+02 0.12219907127E+02
 0.12731356259E+02 0.13187895003E+02 0.13566743025E+02 0.13850808078E+02 0.14026992542E+02
 0.14664930725E+02 0.14595513227E+02 0.14287524119E+02 0.13992286959E+02 0.13600982523E+02
 0.13130728666E+02 0.12601600520E+02 0.12040862513E+02 0.11478676646E+02 0.10938117016E+02
 0.10430454980E+02 0.99695347740E+01 0.95625247477E+01 0.92096493924E+01 0.89127417481E+01
 0.86689229393E+01 0.84760586844E+01 0.83304689925E+01 0.82292842780E+01 0.81696080899E+01
 0.81499902889E+01 0.81696080899E+01 0.82292842780E+01 0.83304689925E+01 0.84760586844E+01
 0.86689229393E+01 0.89127417481E+01 0.92096493924E+01 0.95625247477E+01 0.99695347740E+01
 0.10430454980E+02 0.10938117016E+02 0.11478676646E+02 0.12040862513E+02 0.12601600520E+02
 0.13130728666E+02 0.13600982523E+02 0.13992286959E+02 0.14287524119E+02 0.14595513227E+02
 0.15111391811E+02 0.15037956211E+02 0.14822681610E+02 0.14481960015E+02 0.13960620427E+02
 0.13482505969E+02 0.12945996240E+02 0.12375224873E+02 0.11801355242E+02 0.11253655248E+02
 0.10745239047E+02 0.10286443748E+02 0.98869418088E+01 0.95451032191E+01 0.92611025163E+01
 0.90317413780E+01 0.88526323990E+01 0.87193690406E+01 0.86275565590E+01 0.85740190840E+01
 0.85563600003E+01 0.85740190840E+01 0.86275565590E+01 0.87193690406E+01 0.88526323990E+01