unknown system                          
   1.00000000000000     
     2.500784    0.000000    0.000000
     0.000000    4.331484    0.000000
     0.000000    0.000000    4.033331
   Co
     4
Direct
  0.000000  0.666667  0.750000
  0.500000  0.833333  0.250000
  0.500000  0.166667  0.750000
  0.000000  0.333333  0.250000
 
   40   64   60
 0.82950581800E+01 0.83141276710E+01 0.83712765332E+01 0.84663887143E+01 0.85994572533E+01
 0.87707874091E+01 0.89811411342E+01 0.92317164234E+01 0.95238723516E+01 0.98585543359E+01
 0.10235435930E+02 0.10651862964E+02 0.11101754925E+02 0.11574679274E+02 0.12055353808E+02
 0.12523828974E+02 0.12956533120E+02 0.13328217182E+02 0.13614626473E+02 0.13795504809E+02
 0.13857374279E+02 0.13795504809E+02 0.13614626473E+02 0.13328217182E+02 0.12956533120E+02
 0.12523828974E+02 0.12055353808E+02 0.11574679274E+02 0.11101754925E+02 0.10651862964E+02
 0.10235435930E+02 0.98585543359E+01 0.95238723516E+01 0.92317164234E+01 0.89811411342E+01
 0.87707874091E+01 0.85994572533E+01 0.84663887143E+01 0.83712765332E+01 0.83141276710E+01
 0.83280208723E+01 0.83469363466E+01 0.84036318738E+01 0.84980207502E+01 0.86301542796E+01
 0.88004348904E+01 0.90097682161E+01 0.92595439850E+01 0.95513536811E+01 0.98863975539E+01
 0.10264596590E+02 0.10683496665E+02 0.11137124122E+02 0.11615016015E+02 0.12101690114E+02
 0.12576817244E+02 0.13016287599E+02 0.13394211056E+02 0.13685674564E+02 0.13869848211E+02
 0.13932862481E+02 0.13869848211E+02 0.13685674564E+02 0.13394211056E+02 0.13016287599E+02
 0.12576817244E+02 0.12101690114E+02 0.11615016015E+02 0.11137124122E+02 0.10683496665E+02
 0.10264596590E+02 0.98863975539E+01 0.95513536811E+01 0.92595439850E+01 0.90097682161E+01
 0.88004348904E+01 0.86301542796E+01 0.84980207502E+01 0.84036318738E+01 0.83469363466E+01
 0.84266243368E+01 0.84450879460E+01 0.85004537453E+01 0.85927216590E+01 0.87221137601E+01
 0.88893156569E+01 0.90956501540E+01 0.93430624270E+01 0.96338163250E+01 0.99698486538E+01
 0.10351795100E+02 0.10777779176E+02 0.11242136014E+02 0.11734315840E+02 0.12238260736E+02
 0.12732547862E+02 0.13191515904E+02 0.13587425208E+02 0.13893461999E+02 0.14087139039E+02
 0.14153455124E+02 0.14087139039E+02 0.13893461999E+02 0.13587425208E+02 0.13191515904E+02
 0.12732547862E+02 0.12238260736E+02 0.11734315840E+02 0.11242136014E+02 0.10777779176E+02
 0.10351795100E+02 0.99698486538E+01 0.96338163250E+01 0.93430624270E+01 0.90956501540E+01
 0.88893156569E+01 0.87221137601E+01 0.85927216590E+01 0.85004537453E+01 0.84450879460E+01
 0.85901142326E+01 0.86078516112E+01 0.86610813717E+01 0.87499446036E+01 0.88749373278E+01
 0.90371934383E+01 0.92386900052E+01 0.94822379936E+01 0.97711449589E+01 0.10108487653E+02
 0.10496005419E+02 0.10932712479E+02 0.11413420268E+02 0.11927447219E+02 0.12457852548E+02
 0.12981533714E+02 0.13470443382E+02 0.13893993640E+02 0.14222439707E+02 0.14430735751E+02
 0.14502131997E+02 0.14430735751E+02 0.14222439707E+02 0.13893993640E+02 0.13470443382E+02
 0.12981533714E+02 0.12457852548E+02 0.11927447219E+02 0.11413420268E+02 0.10932712479E+02
 0.10496005419E+02 0.10108487653E+02 0.97711449589E+01 0.94822379936E+01 0.92386900052E+01
 0.90371934383E+01 0.88749373278E+01 0.87499446036E+01 0.86610813717E+01 0.86078516112E+01
 0.88175615938E+01 0.88343158084E+01 0.88846563396E+01 0.89689199857E+01 0.90879726461E+01
 0.92435390359E+01 0.94384426889E+01 0.96765997660E+01 0.99626371282E+01 0.10301061800E+02
 0.10694989870E+02 0.11144541794E+02 0.11645118755E+02 0.12185876271E+02 0.12748782706E+02
 0.13308658811E+02 0.13834503157E+02 0.14292195060E+02 0.14648347495E+02 0.14874729867E+02
 0.14952413232E+02 0.14874729867E+02 0.14648347495E+02 0.14292195060E+02 0.13834503157E+02
 0.13308658811E+02 0.12748782706E+02 0.12185876271E+02 0.11645118755E+02 0.11144541794E+02
 0.10694989870E+02 0.10301061800E+02 0.99626371282E+01 0.96765997660E+01 0.94384426889E+01
 0.92435390359E+01 0.90879726461E+01 0.89689199857E+01 0.88846563396E+01 0.88343158084E+01
 0.91083190099E+01 0.91238182603E+01 0.91704755022E+01 0.92488859526E+01 0.93603857831E+01
 0.95074230110E+01 0.96938248577E+01 0.99247852344E+01 0.10206426353E+02 0.10544851039E+02
 0.10944692037E+02 0.11407275482E+02 0.11928637600E+02 0.12497749897E+02 0.13095392418E+02
 0.13694130293E+02 0.14259752530E+02 0.14754294043E+02 0.15140396166E+02 0.15386348749E+02
 0.15470838418E+02 0.15386348749E+02 0.15140396166E+02 0.14754294043E+02 0.14259752530E+02
 0.13694130293E+02 0.13095392418E+02 0.12497749897E+02 0.11928637600E+02 0.11407275482E+02
 0.10944692037E+02 0.10544851039E+02 0.10206426353E+02 0.99247852344E+01 0.96938248577E+01
 0.95074230110E+01 0.93603857831E+01 0.92488859526E+01 0.91704755022E+01 0.91238182603E+01
 0.94625252838E+01 0.94764254120E+01 0.95183965047E+01 0.95893762781E+01 0.96912965238E+01
 0.98274763268E+01 0.10002895719E+02 0.10224156928E+02 0.10498973925E+02 0.10835099264E+02
 0.11238695081E+02 0.11712275940E+02 0.12252484375E+02 0.12848087859E+02 0.13478682108E+02
 0.14114610147E+02 0.14718509234E+02 0.15248639371E+02 0.15663737022E+02 0.15928665342E+02
 0.16019759468E+02 0.15928665342E+02 0.15663737022E+02 0.15248639371E+02 0.14718509234E+02
 0.14114610147E+02 0.13478682108E+02 0.12848087859E+02 0.12252484375E+02 0.11712275940E+02
 0.11238695081E+02 0.10835099264E+02 0.10498973925E+02 0.10224156928E+02 0.10002895719E+02
 0.98274763268E+01 0.96912965238E+01 0.95893762781E+01 0.95183965047E+01 0.94764254120E+01
 0.98814488441E+01 0.98932604620E+01 0.99291206421E+01 0.99904311590E+01 0.10079895121E+02
 0.10201898248E+02 0.10362751298E+02 0.10570591735E+02 0.10834779073E+02 0.11164691034E+02
 0.11567931114E+02 0.12048085064E+02 0.12602303028E+02 0.13219119259E+02 0.13877026758E+02
 0.14544358510E+02 0.15180933004E+02 0.15741649817E+02 0.16181774144E+02 0.16534310320E+02
 0.16637224877E+02 0.16534310320E+02 0.16181774144E+02 0.15741649817E+02 0.15180933004E+02
 0.14544358510E+02 0.13877026758E+02 0.13219119259E+02 0.12602303028E+02 0.12048085064E+02
 0.11567931114E+02 0.11164691034E+02 0.10834779073E+02 0.10570591735E+02 0.10362751298E+02
 0.10201898248E+02 0.10079895121E+02 0.99904311590E+01 0.99291206421E+01 0.98932604620E+01
 0.10367398662E+02 0.10376416037E+02 0.10404110566E+02 0.10452522464E+02 0.10525376343E+02
 0.10628399155E+02 0.10769475604E+02 0.10958441909E+02 0.11206356635E+02 0.11524161722E+02
 0.11920751460E+02 0.12400594604E+02 0.12961194239E+02 0.13590806983E+02 0.14266954204E+02
 0.14956301409E+02 0.15616394759E+02 0.16264136801E+02 0.16754919745E+02 0.17072633959E+02
 0.17182688714E+02 0.17072633959E+02 0.16754919745E+02 0.16264136801E+02 0.15616394759E+02
 0.14956301409E+02 0.14266954204E+02 0.13590806983E+02 0.12961194239E+02 0.12400594604E+02
 0.11920751460E+02 0.11524161722E+02 0.11206356635E+02 0.10958441909E+02 0.10769475604E+02
 0.10628399155E+02 0.10525376343E+02 0.10452522464E+02 0.10404110566E+02 0.10376416037E+02
 0.10922951412E+02 0.10928204236E+02 0.10944907134E+02 0.10975975899E+02 0.11026496934E+02
 0.11103912514E+02 0.11218014891E+02 0.11380568937E+02 0.11604420072E+02 0.11902015386E+02
 0.12283365650E+02 0.12753597366E+02 0.13310377735E+02 0.13941628779E+02 0.14624059356E+02
 0.15323093977E+02 0.16047417420E+02 0.16683985589E+02 0.17194377636E+02 0.17525601321E+02
 0.17640469926E+02 0.17525601321E+02 0.17194377636E+02 0.16683985589E+02 0.16047417420E+02
 0.15323093977E+02 0.14624059356E+02 0.13941628779E+02 0.13310377735E+02 0.12753597366E+02
 0.12283365650E+02 0.11902015386E+02 0.11604420072E+02 0.11380568937E+02 0.11218014891E+02
 0.11103912514E+02 0.11026496934E+02 0.10975975899E+02 0.10944907134E+02 0.10928204236E+02
 0.11549370671E+02 0.11549619184E+02 0.11551718533E+02 0.11559759849E+02 0.11580621842E+02
 0.11623937093E+02 0.11701833732E+02 0.11828311127E+02 0.12018140244E+02 0.12285240249E+02
 0.12640570190E+02 0.13089683275E+02 0.13630213839E+02 0.14249692492E+02 0.14924194431E+02
 0.15618379252E+02 0.16353357748E+02 0.16995539613E+02 0.17511845088E+02 0.17847358778E+02
 0.17963648493E+02 0.17847358778E+02 0.17511845088E+02 0.16995539613E+02 0.16353357748E+02
 0.15618379252E+02 0.14924194431E+02 0.14249692492E+02 0.13630213839E+02 0.13089683275E+02
 0.12640570190E+02 0.12285240249E+02 0.12018140244E+02 0.11828311127E+02 0.11701833732E+02
 0.11623937093E+02 0.11580621842E+02 0.11559759849E+02 0.11551718533E+02 0.11549619184E+02
 0.12244332343E+02 0.12238120191E+02 0.12221372006E+02 0.12199703225E+02 0.12182285734E+02
 0.12181495425E+02 0.12212297914E+02 0.12291293274E+02 0.12435361449E+02 0.12659891736E+02
 0.12976645351E+02 0.13391389102E+02 0.13901545050E+02 0.14494215267E+02 0.15145043826E+02
 0.15818431028E+02 0.16537685385E+02 0.17166252120E+02 0.17672498538E+02 0.18001737808E+02
 0.18115932497E+02 0.18001737808E+02 0.17672498538E+02 0.17166252120E+02 0.16537685385E+02
 0.15818431028E+02 0.15145043826E+02 0.14494215267E+02 0.13901545050E+02 0.13391389102E+02
 0.12976645351E+02 0.12659891736E+02 0.12435361449E+02 0.12291293274E+02 0.12212297914E+02
 0.12181495425E+02 0.12182285734E+02 0.12199703225E+02 0.12221372006E+02 0.12238120191E+02
 0.12999382999E+02 0.12985150775E+02 0.12945010159E+02 0.12886472230E+02 0.12821533243E+02
 0.12765896533E+02 0.12737893503E+02 0.12757111912E+02 0.12842741338E+02 0.13011657589E+02
 0.13276301966E+02 0.13642473765E+02 0.14107241831E+02 0.14657282106E+02 0.15268042754E+02
 0.15904188389E+02 0.16580164738E+02 0.17175370870E+02 0.17655222653E+02 0.17967633607E+02
 0.18076140021E+02 0.17967633607E+02 0.17655222653E+02 0.17175370870E+02 0.16580164738E+02
 0.15904188389E+02 0.15268042754E+02 0.14657282106E+02 0.14107241831E+02 0.13642473765E+02
 0.13276301966E+02 0.13011657589E+02 0.12842741338E+02 0.12757111912E+02 0.12737893503E+02
 0.12765896533E+02 0.12821533243E+02 0.12886472230E+02 0.12945010159E+02 0.12985150775E+02
 0.13797839691E+02 0.13774087249E+02 0.13706182388E+02 0.13603888734E+02 0.13482533655E+02
 0.13361698869E+02 0.13263572007E+02 0.13211079887E+02 0.13225897362E+02 0.13326396124E+02
 0.13525590644E+02 0.13829168009E+02 0.14233753576E+02 0.14725651718E+02 0.15280386980E+02
 0.15863417646E+02 0.16432345274E+02 0.17016746773E+02 0.17455508069E+02 0.17741204455E+02
 0.17840436268E+02 0.17741204455E+02 0.17455508069E+02 0.17016746773E+02 0.16432345274E+02
 0.15863417646E+02 0.15280386980E+02 0.14725651718E+02 0.14233753576E+02 0.13829168009E+02
 0.13525590644E+02 0.13326396124E+02 0.13225897362E+02 0.13211079887E+02 0.13263572007E+02
 0.13361698869E+02 0.13482533655E+02 0.13603888734E+02 0.13706182388E+02 0.13774087249E+02
 0.14613937738E+02 0.14579409541E+02 0.14480083473E+02 0.14328277757E+02 0.14143073206E+02
 0.13948377552E+02 0.13770617124E+02 0.13636312274E+02 0.13569727123E+02 0.13590701763E+02
 0.13712717524E+02 0.13941237428E+02 0.14272405273E+02 0.14692260697E+02 0.15176706438E+02
 0.15692509234E+02 0.16199577703E+02 0.16654593001E+02 0.17085205250E+02 0.17336746617E+02
 0.17424100110E+02 0.17336746617E+02 0.17085205250E+02 0.16654593001E+02 0.16199577703E+02
 0.15692509234E+02 0.15176706438E+02 0.14692260697E+02 0.14272405273E+02 0.13941237428E+02
 0.13712717524E+02 0.13590701763E+02 0.13569727123E+02 0.13636312274E+02 0.13770617124E+02
 0.13948377552E+02 0.14143073206E+02 0.14328277757E+02 0.14480083473E+02 0.14579409541E+02
 0.15413830082E+02 0.15367690264E+02 0.15234512783E+02 0.15029380235E+02 0.14775409978E+02
 0.14501117072E+02 0.14237379318E+02 0.14014415403E+02 0.13859071644E+02 0.13792566768E+02
 0.13828728984E+02 0.13972710039E+02 0.14220178263E+02 0.14557054682E+02 0.14959930374E+02
 0.15397350368E+02 0.15832125703E+02 0.16224704045E+02 0.16537387502E+02 0.16738889045E+02
 0.16808476663E+02 0.16738889045E+02 0.16537387502E+02 0.16224704045E+02 0.15832125703E+02
 0.15397350368E+02 0.14959930374E+02 0.14557054682E+02 0.14220178263E+02 0.13972710039E+02
 0.13828728984E+02 0.13792566768E+02 0.13859071644E+02 0.14014415403E+02 0.14237379318E+02
 0.14501117072E+02 0.14775409978E+02 0.15029380235E+02 0.15234512783E+02 0.15367690264E+02
 0.16158553677E+02 0.16100519447E+02 0.15932676546E+02 0.15672959660E+02 0.15348624300E+02
 0.14992861600E+02 0.14641001510E+02 0.14326882847E+02 0.14079793552E+02 0.13922165827E+02
 0.13868033267E+02 0.13922165827E+02 0.14079793552E+02 0.14326882847E+02 0.14641001510E+02
 0.14992861600E+02 0.15348624300E+02 0.15672959660E+02 0.15932676546E+02 0.16100519447E+02
 0.16158553677E+02 0.16100519447E+02 0.15932676546E+02 0.15672959660E+02 0.15348624300E+02
 0.14992861600E+02 0.14641001510E+02 0.14326882847E+02 0.14079793552E+02 0.13922165827E+02
 0.13868033267E+02 0.13922165827E+02 0.14079793552E+02 0.14326882847E+02 0.14641001510E+02
 0.14992861600E+02 0.15348624300E+02 0.15672959660E+02 0.15932676546E+02 0.16100519447E+02
 0.16808476663E+02 0.16738889045E+02 0.16537387502E+02 0.16224704045E+02 0.15832125703E+02
 0.15397350368E+02 0.14959930374E+02 0.14557054682E+02 0.14220178263E+02 0.13972710039E+02
 0.13828728984E+02 0.13792566768E+02 0.13859071644E+02 0.14014415403E+02 0.14237379318E+02
 0.14501117072E+02 0.14775409978E+02 0.15029380235E+02 0.15234512783E+02 0.15367690264E+02
 0.15413830082E+02 0.15367690264E+02 0.15234512783E+02 0.15029380235E+02 0.14775409978E+02
 0.14501117072E+02 0.14237379318E+02 0.14014415403E+02 0.13859071644E+02 0.13792566768E+02
 0.13828728984E+02 0.13972710039E+02 0.14220178263E+02 0.14557054682E+02 0.14959930374E+02
 0.15397350368E+02 0.15832125703E+02 0.16224704045E+02 0.16537387502E+02 0.16738889045E+02
 0.17424100110E+02 0.17336746617E+02 0.17085205250E+02 0.16654593001E+02 0.16199577703E+02
 0.15692509234E+02 0.15176706438E+02 0.14692260697E+02 0.14272405273E+02 0.13941237428E+02
 0.13712717524E+02 0.13590701763E+02 0.13569727123E+02 0.13636312274E+02 0.13770617124E+02
 0.13948377552E+02 0.14143073206E+02 0.14328277757E+02 0.14480083473E+02 0.14579409541E+02
 0.14613937738E+02 0.14579409541E+02 0.14480083473E+02 0.14328277757E+02 0.14143073206E+02
 0.13948377552E+02 0.13770617124E+02 0.13636312274E+02 0.13569727123E+02 0.13590701763E+02
 0.13712717524E+02 0.13941237428E+02 0.14272405273E+02 0.14692260697E+02 0.15176706438E+02
 0.15692509234E+02 0.16199577703E+02 0.16654593001E+02 0.17085205250E+02 0.17336746617E+02
 0.17840436268E+02 0.17741204455E+02 0.17455508069E+02 0.17016746773E+02 0.16432345274E+02
 0.15863417646E+02 0.15280386980E+02 0.14725651718E+02 0.14233753576E+02 0.13829168009E+02
 0.13525590644E+02 0.13326396124E+02 0.13225897362E+02 0.13211079887E+02 0.13263572007E+02
 0.13361698869E+02 0.13482533655E+02 0.13603888734E+02 0.13706182388E+02 0.13774087249E+02
 0.13797839691E+02 0.13774087249E+02 0.13706182388E+02 0.13603888734E+02 0.13482533655E+02
 0.13361698869E+02 0.13263572007E+02 0.13211079887E+02 0.13225897362E+02 0.13326396124E+02
 0.13525590644E+02 0.13829168009E+02 0.14233753576E+02 0.14725651718E+02 0.15280386980E+02
 0.15863417646E+02 0.16432345274E+02 0.17016746773E+02 0.17455508069E+02 0.17741204455E+02
 0.18076140021E+02 0.17967633607E+02 0.17655222653E+02 0.17175370870E+02 0.16580164738E+02
 0.15904188389E+02 0.15268042754E+02 0.14657282106E+02 0.14107241831E+02 0.13642473765E+02
 0.13276301966E+02 0.13011657589E+02 0.12842741338E+02 0.12757111912E+02 0.12737893503E+02
 0.12765896533E+02 0.12821533243E+02 0.12886472230E+02 0.12945010159E+02 0.12985150775E+02
 0.12999382999E+02 0.12985150775E+02 0.12945010159E+02 0.12886472230E+02 0.12821533243E+02
 0.12765896533E+02 0.12737893503E+02 0.12757111912E+02 0.12842741338E+02 0.13011657589E+02
 0.13276301966E+02 0.13642473765E+02 0.14107241831E+02 0.14657282106E+02 0.15268042754E+02
 0.15904188389E+02 0.16580164738E+02 0.17175370870E+02 0.17655222653E+02 0.17967633607E+02
 0.18115932497E+02 0.18001737808E+02 0.17672498538E+02 0.17166252120E+02 0.16537685385E+02
 0.15818431028E+02 0.15145043826E+02 0.14494215267E+02 0.13901545050E+02 0.13391389102E+02
 0.12976645351E+02 0.12659891736E+02 0.12435361449E+02 0.12291293274E+02 0.12212297914E+02
 0.12181495425E+02 0.12182285734E+02 0.12199703225E+02 0.12221372006E+02 0.12238120191E+02
 0.12244332343E+02 0.12238120191E+02 0.12221372006E+02 0.12199703225E+02 0.12182285734E+02
 0.12181495425E+02 0.12212297914E+02 0.12291293274E+02 0.12435361449E+02 0.12659891736E+02
 0.12976645351E+02 0.13391389102E+02 0.13901545050E+02 0.14494215267E+02 0.15145043826E+02
 0.15818431028E+02 0.16537685385E+02 0.17166252120E+02 0.17672498538E+02 0.18001737808E+02
 0.17963648493E+02 0.17847358778E+02 0.17511845088E+02 0.16995539613E+02 0.16353357748E+02
 0.15618379252E+02 0.14924194431E+02 0.14249692492E+02 0.13630213839E+02 0.13089683275E+02
 0.12640570190E+02 0.12285240249E+02 0.12018140244E+02 0.11828311127E+02 0.11701833732E+02
 0.11623937093E+02 0.11580621842E+02 0.11559759849E+02 0.11551718533E+02 0.11549619184E+02
 0.11549370671E+02 0.11549619184E+02 0.11551718533E+02 0.11559759849E+02 0.11580621842E+02
 0.11623937093E+02 0.11701833732E+02 0.11828311127E+02 0.12018140244E+02 0.12285240249E+02
 0.12640570190E+02 0.13089683275E+02 0.13630213839E+02 0.14249692492E+02 0.14924194431E+02
 0.15618379252E+02 0.16353357748E+02 0.16995539613E+02 0.17511845088E+02 0.17847358778E+02
 0.17640469926E+02 0.17525601321E+02 0.17194377636E+02 0.16683985589E+02 0.16047417420E+02
 0.15323093977E+02 0.14624059356E+02 0.13941628779E+02 0.13310377735E+02 0.12753597366E+02
 0.12283365650E+02 0.11902015386E+02 0.11604420072E+02 0.11380568937E+02 0.11218014891E+02
 0.11103912514E+02 0.11026496934E+02 0.10975975899E+02 0.10944907134E+02 0.10928204236E+02
 0.10922951412E+02 0.10928204236E+02 0.10944907134E+02 0.10975975899E+02 0.11026496934E+02
 0.11103912514E+02 0.11218014891E+02 0.11380568937E+02 0.11604420072E+02 0.11902015386E+02
 0.12283365650E+02 0.12753597366E+02 0.13310377735E+02 0.13941628779E+02 0.14624059356E+02
 0.15323093977E+02 0.16047417420E+02 0.16683985589E+02 0.17194377636E+02 0.17525601321E+02
 0.17182688714E+02 0.17072633959E+02 0.16754919745E+02 0.16264136801E+02 0.15616394759E+02
 0.14956301409E+02 0.14266954204E+02 0.13590806983E+02 0.12961194239E+02 0.12400594604E+02
 0.11920751460E+02 0.11524161722E+02 0.11206356635E+02 0.10958441909E+02 0.10769475604E+02
 0.10628399155E+02 0.10525376343E+02 0.10452522464E+02 0.10404110566E+02 0.10376416037E+02
 0.10367398662E+02 0.10376416037E+02 0.10404110566E+02 0.10452522464E+02 0.10525376343E+02
 0.10628399155E+02 0.10769475604E+02 0.10958441909E+02 0.11206356635E+02 0.11524161722E+02
 0.11920751460E+02 0.12400594604E+02 0.12961194239E+02 0.13590806983E+02 0.14266954204E+02
 0.14956301409E+02 0.15616394759E+02 0.16264136801E+02 0.16754919745E+02 0.17072633959E+02
 0.16637224877E+02 0.16534310320E+02 0.16181774144E+02 0.15741649817E+02 0.15180933004E+02
 0.14544358510E+02 0.13877026758E+02 0.13219119259E+02 0.12602303028E+02 0.12048085064E+02
 0.11567931114E+02 0.11164691034E+02 0.10834779073E+02 0.10570591735E+02 0.10362751298E+02
 0.10201898248E+02 0.10079895121E+02 0.99904311590E+01 0.99291206421E+01 0.98932604620E+01
 0.98814488441E+01 0.98932604620E+01 0.99291206421E+01 0.99904311590E+01 0.10079895121E+02
 0.10201898248E+02 0.10362751298E+02 0.10570591735E+02 0.10834779073E+02 0.11164691034E+02
 0.11567931114E+02 0.12048085064E+02 0.12602303028E+02 0.13219119259E+02 0.13877026758E+02
 0.14544358510E+02 0.15180933004E+02 0.15741649817E+02 0.16181774144E+02 0.16534310320E+02
 0.16019759468E+02 0.15928665342E+02 0.15663737022E+02 0.15248639371E+02 0.14718509234E+02
 0.14114610147E+02 0.13478682108E+02 0.12848087859E+02 0.12252484375E+02 0.11712275940E+02
 0.11238695081E+02 0.10835099264E+02 0.10498973925E+02 0.10224156928E+02 0.10002895719E+02
 0.98274763268E+01 0.96912965238E+01 0.95893762781E+01 0.95183965047E+01 0.94764254120E+01
 0.94625252838E+01 0.94764254120E+01 0.95183965047E+01 0.95893762781E+01 0.96912965238E+01
 0.98274763268E+01 0.10002895719E+02 0.10224156928E+02 0.10498973925E+02 0.10835099264E+02
 0.11238695081E+02 0.11712275940E+02 0.12252484375E+02 0.12848087859E+02 0.13478682108E+02
 0.14114610147E+02 0.14718509234E+02 0.15248639371E+02 0.15663737022E+02 0.15928665342E+02
 0.15470838418E+02 0.15386348749E+02 0.15140396166E+02 0.14754294043E+02 0.14259752530E+02
 0.13694130293E+02 0.13095392418E+02 0.12497749897E+02 0.11928637600E+02 0.11407275482E+02
 0.10944692037E+02 0.10544851039E+02 0.10206426353E+02 0.99247852344E+01 0.96938248577E+01
 0.95074230110E+01 0.93603857831E+01 0.92488859526E+01 0.91704755022E+01 0.91238182603E+01
 0.91083190099E+01 0.91238182603E+01 0.91704755022E+01 0.92488859526E+01 0.93603857831E+01
 0.95074230110E+01 0.96938248577E+01 0.99247852344E+01 0.10206426353E+02 0.10544851039E+02
 0.10944692037E+02 0.11407275482E+02 0.11928637600E+02 0.12497749897E+02 0.13095392418E+02
 0.13694130293E+02 0.14259752530E+02 0.14754294043E+02 0.15140396166E+02 0.15386348749E+02
 0.14952413232E+02 0.14874729867E+02 0.14648347495E+02 0.14292195060E+02 0.13834503157E+02
 0.13308658811E+02 0.12748782706E+02 0.12185876271E+02 0.11645118755E+02 0.11144541794E+02
 0.10694989870E+02 0.10301061800E+02 0.99626371282E+01 0.96765997660E+01 0.94384426889E+01
 0.92435390359E+01 0.90879726461E+01 0.89689199857E+01 0.88846563396E+01 0.88343158084E+01
 0.88175615938E+01 0.88343158084E+01 0.88846563396E+01 0.89689199857E+01 0.90879726461E+01
 0.92435390359E+01 0.94384426889E+01 0.96765997660E+01 0.99626371282E+01 0.10301061800E+02
 0.10694989870E+02 0.11144541794E+02 0.11645118755E+02 0.12185876271E+02 0.12748782706E+02
 0.13308658811E+02 0.13834503157E+02 0.14292195060E+02 0.14648347495E+02 0.14874729867E+02
 0.14502131997E+02 0.14430735751E+02 0.14222439707E+02 0.13893993640E+02 0.13470443382E+02
 0.12981533714E+02 0.12457852548E+02 0.11927447219E+02 0.11413420268E+02 0.10932712479E+02
 0.10496005419E+02 0.10108487653E+02 0.97711449589E+01 0.94822379936E+01 0.92386900052E+01
 0.90371934383E+01 0.88749373278E+01 0.87499446036E+01 0.86610813717E+01 0.86078516112E+01
 0.85901142326E+01 0.86078516112E+01 0.86610813717E+01 0.87499446036E+01 0.88749373278E+01
 0.90371934383E+01 0.92386900052E+01 0.94822379936E+01 0.97711449589E+01 0.10108487653E+02
 0.10496005419E+02 0.10932712479E+02 0.11413420268E+02 0.11927447219E+02 0.12457852548E+02
 0.12981533714E+02 0.13470443382E+02 0.13893993640E+02 0.14222439707E+02 0.14430735751E+02
 0.14153455124E+02 0.14087139039E+02 0.13893461999E+02 0.13587425208E+02 0.13191515904E+02
 0.12732547862E+02 0.12238260736E+02 0.11734315840E+02 0.11242136014E+02 0.10777779176E+02
 0.10351795100E+02 0.99698486538E+01 0.96338163250E+01 0.93430624270E+01 0.90956501540E+01
 0.88893156569E+01 0.87221137601E+01 0.85927216590E+01 0.85004537453E+01 0.84450879460E+01
 0.84266243368E+01 0.84450879460E+01 0.85004537453E+01 0.85927216590E+01 0.87221137601E+01
 0.88893156569E+01 0.90956501540E+01 0.93430624270E+01 0.96338163250E+01 0.99698486538E+01
 0.10351795100E+02 0.10777779176E+02 0.11242136014E+02 0.11734315840E+02 0.12238260736E+02
 0.12732547862E+02 0.13191515904E+02 0.13587425208E+02 0.13893461999E+02 0.14087139039E+02
 0.13932862481E+02 0.13869848211E+02 0.13685674564E+02 0.13394211056E+02 0.13016287599E+02
 0.12576817244E+02 0.12101690114E+02 0.11615016015E+02 0.11137124122E+02 0.10683496665E+02
 0.10264596590E+02 0.98863975539E+01 0.95513536811E+01 0.92595439850E+01 0.90097682161E+01
 0.88004348904E+01 0.86301542796E+01 0.84980207502E+01 0.84036318738E+01 0.83469363466E+01
 0.83280208723E+01 0.83469363466E+01 0.84036318738E+01 0.84980207502E+01 0.86301542796E+01
 0.88004348904E+01 0.90097682161E+01 0.92595439850E+01 0.95513536811E+01 0.98863975539E+01
 0.10264596590E+02 0.10683496665E+02 0.11137124122E+02 0.11615016015E+02 0.12101690114E+02
 0.12576817244E+02 0.13016287599E+02 0.13394211056E+02 0.13685674564E+02 0.13869848211E+02
 0.13857374279E+02 0.13795504809E+02 0.13614626473E+02 0.13328217182E+02 0.12956533120E+02
 0.12523828974E+02 0.12055353808E+02 0.11574679274E+02 0.11101754925E+02 0.10651862964E+02
 0.10235435930E+02 0.98585543359E+01 0.95238723516E+01 0.92317164234E+01 0.89811411342E+01
 0.87707874091E+01 0.85994572533E+01 0.84663887143E+01 0.83712765332E+01 0.83141276710E+01
 0.82950581800E+01 0.83141276710E+01 0.83712765332E+01 0.84663887143E+01 0.85994572533E+01
 0.87707874091E+01 0.89811411342E+01 0.92317164234E+01 0.95238723516E+01 0.98585543359E+01
 0.10235435930E+02 0.10651862964E+02 0.11101754925E+02 0.11574679274E+02 0.12055353808E+02
 0.12523828974E+02 0.12956533120E+02 0.13328217182E+02 0.13614626473E+02 0.13795504809E+02
 0.13932862481E+02 0.13869848211E+02 0.13685674564E+02 0.13394211056E+02 0.13016287599E+02
 0.12576817244E+02 0.12101690114E+02 0.11615016015E+02 0.11137124122E+02 0.10683496665E+02
 0.10264596590E+02 0.98863975539E+01 0.95513536811E+01 0.92595439850E+01 0.90097682161E+01
 0.88004348904E+01 0.86301542796E+01 0.84980207502E+01 0.84036318738E+01 0.83469363466E+01
 0.83280208723E+01 0.83469363466E+01 0.84036318738E+01 0.84980207502E+01 0.86301542796E+01
 0.88004348904E+01 0.90097682161E+01 0.92595439850E+01 0.95513536811E+01 0.98863975539E+01
 0.10264596590E+02 0.10683496665E+02 0.11137124122E+02 0.11615016015E+02 0.12101690114E+02
 0.12576817244E+02 0.13016287599E+02 0.13394211056E+02 0.13685674564E+02 0.13869848211E+02
 0.14153455124E+02 0.14087139039E+02 0.13893461999E+02 0.13587425208E+02 0.13191515904E+02
 0.12732547862E+02 0.12238260736E+02 0.11734315840E+02 0.11242136014E+02 0.10777779176E+02
 0.10351795100E+02 0.99698486538E+01 0.96338163250E+01 0.93430624270E+01 0.90956501540E+01
 0.88893156569E+01 0.87221137601E+01 0.85927216590E+01 0.85004537453E+01 0.84450879460E+01
 0.84266243368E+01 0.84450879460E+01 0.85004537453E+01 0.85927216590E+01 0.87221137601E+01
 0.88893156569E+01 0.90956501540E+01 0.93430624270E+01 0.96338163250E+01 0.99698486538E+01
 0.10351795100E+02 0.10777779176E+02 0.11242136014E+02 0.11734315840E+02 0.12238260736E+02
 0.12732547862E+02 0.13191515904E+02 0.13587425208E+02 0.13893461999E+02 0.14087139039E+02
 0.14502131997E+02 0.14430735751E+02 0.14222439707E+02 0.13893993640E+02 0.13470443382E+02
 0.12981533714E+02 0.12457852548E+02 0.11927447219E+02 0.11413420268E+02 0.10932712479E+02
 0.10496005419E+02 0.10108487653E+02 0.97711449589E+01 0.94822379936E+01 0.92386900052E+01
 0.90371934383E+01 0.88749373278E+01 0.87499446036E+01 0.86610813717E+01 0.86078516112E+01
 0.85901142326E+01 0.86078516112E+01 0.86610813717E+01 0.87499446036E+01 0.88749373278E+01
 0.90371934383E+01 0.92386900052E+01 0.94822379936E+01 0.97711449589E+01 0.10108487653E+02
 0.10496005419E+02 0.10932712479E+02 0.11413420268E+02 0.11927447219E+02 0.12457852548E+02
 0.12981533714E+02 0.13470443382E+02 0.13893993640E+02 0.14222439707E+02 0.14430735751E+02
 0.14952413232E+02 0.14874729867E+02 0.14648347495E+02 0.14292195060E+02 0.13834503157E+02
 0.13308658811E+02 0.12748782706E+02 0.12185876271E+02 0.11645118755E+02 0.11144541794E+02
 0.10694989870E+02 0.10301061800E+02 0.99626371282E+01 0.96765997660E+01 0.94384426889E+01
 0.92435390359E+01 0.90879726461E+01 0.89689199857E+01 0.88846563396E+01 0.88343158084E+01
 0.88175615938E+01 0.88343158084E+01 0.88846563396E+01 0.89689199857E+01 0.90879726461E+01
 0.92435390359E+01 0.94384426889E+01 0.96765997660E+01 0.99626371282E+01 0.10301061800E+02
 0.10694989870E+02 0.11144541794E+02 0.11645118755E+02 0.12185876271E+02 0.12748782706E+02
 0.13308658811E+02 0.13834503157E+02 0.14292195060E+02 0.14648347495E+02 0.14874729867E+02
 0.15470838418E+02 0.15386348749E+02 0.15140396166E+02 0.14754294043E+02 0.14259752530E+02
 0.13694130293E+02 0.13095392418E+02 0.12497749897E+02 0.11928637600E+02 0.11407275482E+02
 0.10944692037E+02 0.10544851039E+02 0.10206426353E+02 0.99247852344E+01 0.96938248577E+01
 0.95074230110E+01 0.93603857831E+01 0.92488859526E+01 0.91704755022E+01 0.91238182603E+01
 0.91083190099E+01 0.91238182603E+01 0.91704755022E+01 0.92488859526E+01 0.93603857831E+01
 0.95074230110E+01 0.96938248577E+01 0.99247852344E+01 0.10206426353E+02 0.10544851039E+02
 0.10944692037E+02 0.11407275482E+02 0.11928637600E+02 0.12497749897E+02 0.13095392418E+02
 0.13694130293E+02 0.14259752530E+02 0.14754294043E+02 0.15140396166E+02 0.15386348749E+02
 0.16019759468E+02 0.15928665342E+02 0.15663737022E+02 0.15248639371E+02 0.14718509234E+02
 0.14114610147E+02 0.13478682108E+02 0.12848087859E+02 0.12252484375E+02 0.11712275940E+02
 0.11238695081E+02 0.10835099264E+02 0.10498973925E+02 0.10224156928E+02 0.10002895719E+02
 0.98274763268E+01 0.96912965238E+01 0.95893762781E+01 0.95183965047E+01 0.94764254120E+01
 0.94625252838E+01 0.94764254120E+01 0.95183965047E+01 0.95893762781E+01 0.96912965238E+01
 0.98274763268E+01 0.10002895719E+02 0.10224156928E+02 0.10498973925E+02 0.10835099264E+02
 0.11238695081E+02 0.11712275940E+02 0.12252484375E+02 0.12848087859E+02 0.13478682108E+02
 0.14114610147E+02 0.14718509234E+02 0.15248639371E+02 0.15663737022E+02 0.15928665342E+02
 0.16637224877E+02 0.16534310320E+02 0.16181774144E+02 0.15741649817E+02 0.15180933004E+02
 0.14544358510E+02 0.13877026758E+02 0.13219119259E+02 0.12602303028E+02 0.12048085064E+02
 0.11567931114E+02 0.11164691034E+02 0.10834779073E+02 0.10570591735E+02 0.10362751298E+02
 0.10201898248E+02 0.10079895121E+02 0.99904311590E+01 0.99291206421E+01 0.98932604620E+01
 0.98814488441E+01 0.98932604620E+01 0.99291206421E+01 0.99904311590E+01 0.10079895121E+02
 0.10201898248E+02 0.10362751298E+02 0.10570591735E+02 0.10834779073E+02 0.11164691034E+02
 0.11567931114E+02 0.12048085064E+02 0.12602303028E+02 0.13219119259E+02 0.13877026758E+02
 0.14544358510E+02 0.15180933004E+02 0.15741649817E+02 0.16181774144E+02 0.16534310320E+02
 0.17182688714E+02 0.17072633959E+02 0.16754919745E+02 0.16264136801E+02 0.15616394759E+02
 0.14956301409E+02 0.14266954204E+02 0.13590806983E+02 0.12961194239E+02 0.12400594604E+02
 0.11920751460E+02 0.11524161722E+02 0.11206356635E+02 0.10958441909E+02 0.10769475604E+02
 0.10628399155E+02 0.10525376343E+02 0.10452522464E+02 0.10404110566E+02 0.10376416037E+02
 0.10367398662E+02 0.10376416037E+02 0.10404110566E+02 0.10452522464E+02 0.10525376343E+02