       N       E                     dE             d eps       ncg     rms          rms(c)
DAV:   1     0.266418963636E+03    0.26642E+03   -0.24157E+04 11652   0.264E+03
DAV:   2    -0.826119544821E+01   -0.27468E+03   -0.26339E+03 11736   0.486E+02
DAV:   3    -0.162016147678E+02   -0.79404E+01   -0.79225E+01 12576   0.887E+01
DAV:   4    -0.162717610720E+02   -0.70146E-01   -0.70147E-01 13308   0.794E+00
DAV:   5    -0.162730520552E+02   -0.12910E-02   -0.12910E-02 12660   0.102E+00    0.249E+01
DAV:   6    -0.164625143571E+02   -0.18946E+00   -0.74614E+00 11688   0.398E+01    0.687E+00
DAV:   7    -0.165148729824E+02   -0.52359E-01   -0.60297E-01 11796   0.984E+00    0.431E+00
DAV:   8    -0.165254887810E+02   -0.10616E-01   -0.14692E-02 12612   0.146E+00    0.137E+00
DAV:   9    -0.165172613620E+02    0.82274E-02   -0.49708E-03 12516   0.881E-01    0.342E-01
DAV:  10    -0.165169550120E+02    0.30635E-03   -0.21573E-03 11952   0.601E-01    0.445E-02
DAV:  11    -0.165169993782E+02   -0.44366E-04   -0.54831E-05 12372   0.701E-02    0.253E-02
DAV:  12    -0.165169973306E+02    0.20476E-05   -0.51296E-06 13404   0.251E-02    0.109E-02
DAV:  13    -0.165169985186E+02   -0.11881E-05   -0.15096E-06 12060   0.130E-02    0.285E-03
DAV:  14    -0.165169995081E+02   -0.98943E-06   -0.10875E-07  8028   0.298E-03    0.653E-04
DAV:  15    -0.165169994140E+02    0.94035E-07   -0.10257E-08  5988   0.117E-03
   1 F= -.16516999E+02 E0= -.16516999E+02  d E =0.000000E+00  mag=     4.4194
