 vasp.5.4.4.18Apr17-6-g9f103f2a35 (build Apr 28 2018 00:24:27) complex          
  
 executed on             LinuxIFC date 2021.09.07  01:12:42
 running on   24 total cores
 distrk:  each k-point on   24 cores,    1 groups
 distr:  one band on NCORES_PER_BAND=   4 cores,    6 groups


--------------------------------------------------------------------------------------------------------


 INCAR:
 POTCAR:    PAW_PBE Fe_pv 02Aug2007               
 POTCAR:    PAW_PBE Fe_pv 02Aug2007               
   VRHFIN =Fe:  3pd7s1                                                          
   LEXCH  = PE                                                                  
   EATOM  =  2457.4239 eV,  180.6156 Ry                                         
                                                                                
   TITEL  = PAW_PBE Fe_pv 02Aug2007                                             
   LULTRA =        F    use ultrasoft PP ?                                      
   IUNSCR =        1    unscreen: 0-lin 1-nonlin 2-no                           
   RPACOR =    1.750    partial core radius                                     
   POMASS =   55.847; ZVAL   =   14.000    mass and valenz                      
   RCORE  =    2.200    outmost cutoff radius                                   
   RWIGS  =    2.200; RWIGS  =    1.164    wigner-seitz radius (au A)           
   ENMAX  =  293.238; ENMIN  =  219.928 eV                                      
   ICORE  =        3    local potential                                         
   LCOR   =        T    correct aug charges                                     
   LPAW   =        T    paw PP                                                  
   EAUG   =  578.342                                                            
   DEXC   =    0.000                                                            
   RMAX   =    2.249    core radius for proj-oper                               
   RAUG   =    1.300    factor for augmentation sphere                          
   RDEP   =    2.296    radius for radial grids                                 
   RDEPT  =    1.766    core radius for aug-charge                              
                                                                                
   Atomic configuration                                                         
    8 entries                                                                   
     n  l   j            E        occ.                                          
     1  0  0.50     -6993.8440   2.0000                                         
     2  0  0.50      -814.6047   2.0000                                         
     2  1  1.50      -693.3689   6.0000                                         
     3  0  0.50       -89.4732   2.0000                                         
     3  1  1.50       -55.6373   6.0000                                         
     3  2  2.50        -3.8151   7.0000                                         
     4  0  0.50        -4.2551   1.0000                                         
     4  3  2.50        -1.3606   0.0000                                         
   Description                                                                  
     l       E           TYP  RCUT    TYP  RCUT                                 
     1    -55.6372668     23  2.000                                             
     1     -5.4423304     23  2.000                                             
     2     -3.8151096     23  2.200                                             
     2     -5.1756922     23  2.200                                             
     0     -4.2550951     23  2.200                                             
     0     27.2116520     23  2.200                                             
     3     -1.3605826     23  2.200                                             
  local pseudopotential read in
  partial core-charges read in
  partial kinetic energy density read in
  atomic valenz-charges read in
  non local Contribution for L=           1  read in
    real space projection operators read in
  non local Contribution for L=           1  read in
    real space projection operators read in
  non local Contribution for L=           2  read in
    real space projection operators read in
  non local Contribution for L=           2  read in
    real space projection operators read in
  non local Contribution for L=           0  read in
    real space projection operators read in
  non local Contribution for L=           0  read in
    real space projection operators read in
    PAW grid and wavefunctions read in
 
   number of l-projection  operators is LMAX  =           6
   number of lm-projection operators is LMMAX =          18
 

 ----------------------------------------------------------------------------- 
|                                                                             |
|  ADVICE TO THIS USER RUNNING 'VASP/VAMP'   (HEAR YOUR MASTER'S VOICE ...):  |
|                                                                             |
|      You have a (more or less) 'small supercell' and for smaller cells      |
|      it is recommended  to use the reciprocal-space projection scheme!      |
|      The real space optimization is not  efficient for small cells and it   |
|      is also less accurate ...                                              |
|      Therefore set LREAL=.FALSE. in the  INCAR file                         |
|                                                                             |
 ----------------------------------------------------------------------------- 

 Optimization of the real space projectors (new method)

 maximal supplied QI-value         = 17.01
 optimisation between [QCUT,QGAM] = [ 15.48, 30.95] = [ 67.08,268.30] Ry 
 Optimized for a Real-space Cutoff    1.26 Angstroem

   l    n(q)    QCUT    max X(q) W(low)/X(q) W(high)/X(q)  e(spline) 
   1     11    15.477     4.267    0.90E-04    0.14E-03    0.59E-06
   1     11    15.477     5.750    0.14E-03    0.21E-03    0.81E-06
   2     11    15.477    53.656    0.97E-04    0.12E-03    0.26E-06
   2     11    15.477    49.521    0.10E-03    0.12E-03    0.27E-06
   0     12    15.477    31.246    0.35E-04    0.34E-04    0.27E-06
   0     12    15.477    12.201    0.29E-04    0.28E-04    0.22E-06
  PAW_PBE Fe_pv 02Aug2007               :
 energy of atom  1       EATOM=-2457.4239
 kinetic energy error for atom=    0.0010 (will be added to EATOM!!)
 
 
 POSCAR: Fe2                                     
  positions in direct lattice
  No initial velocities read in
 exchange correlation table for  LEXCH =        8
   RHO(1)=    0.500       N(1)  =     2000
   RHO(2)=  100.500       N(2)  =     4000
 


--------------------------------------------------------------------------------------------------------


 ion  position               nearest neighbor table
   1  0.000  0.000  0.000-   2 2.46   2 2.46   2 2.46   2 2.46   2 2.46   2 2.46   2 2.46   2 2.46

   2  0.500  0.500  0.500-   1 2.46   1 2.46   1 2.46   1 2.46   1 2.46   1 2.46   1 2.46   1 2.46

 
  LATTYP: Found a simple cubic cell.
 ALAT       =     2.8400520000
  
  Lattice vectors:
  
 A1 = (   2.8400520000,   0.0000000000,   0.0000000000)
 A2 = (   0.0000000000,   2.8400520000,   0.0000000000)
 A3 = (   0.0000000000,   0.0000000000,   2.8400520000)


Analysis of symmetry for initial positions (statically):
=====================================================================
 Subroutine PRICEL returns following result:
 
  LATTYP: Found a body centered cubic cell.
 ALAT       =     2.8400520000
  
  Lattice vectors:
  
 A1 = (   1.4200260000,   1.4200260000,   1.4200260000)
 A2 = (   1.4200260000,  -1.4200260000,  -1.4200260000)
 A3 = (  -1.4200260000,   1.4200260000,  -1.4200260000)
 
   2 primitive cells build up your supercell.
 

 Routine SETGRP: Setting up the symmetry group for a 
 simple cubic supercell.


 Subroutine GETGRP returns: Found 48 space group operations
 (whereof 48 operations were pure point group operations)
 out of a pool of 48 trial point group operations.


The static configuration has the point symmetry O_h .


Analysis of symmetry for dynamics (positions and initial velocities):
=====================================================================
 Subroutine PRICEL returns following result:
 
  LATTYP: Found a body centered cubic cell.
 ALAT       =     2.8400520000
  
  Lattice vectors:
  
 A1 = (   1.4200260000,   1.4200260000,   1.4200260000)
 A2 = (   1.4200260000,  -1.4200260000,  -1.4200260000)
 A3 = (  -1.4200260000,   1.4200260000,  -1.4200260000)
 
   2 primitive cells build up your supercell.
 

 Routine SETGRP: Setting up the symmetry group for a 
 simple cubic supercell.


 Subroutine GETGRP returns: Found 48 space group operations
 (whereof 48 operations were pure point group operations)
 out of a pool of 48 trial point group operations.


The dynamic configuration has the point symmetry O_h .


Analysis of structural, dynamic, and magnetic symmetry:
=====================================================================
 Subroutine PRICEL returns following result:
 
  LATTYP: Found a body centered cubic cell.
 ALAT       =     2.8400520000
  
  Lattice vectors:
  
 A1 = (   1.4200260000,   1.4200260000,   1.4200260000)
 A2 = (   1.4200260000,  -1.4200260000,  -1.4200260000)
 A3 = (  -1.4200260000,   1.4200260000,  -1.4200260000)
 
   2 primitive cells build up your supercell.
 

 Routine SETGRP: Setting up the symmetry group for a 
 simple cubic supercell.


 Subroutine GETGRP returns: Found 48 space group operations
 (whereof 48 operations were pure point group operations)
 out of a pool of 48 trial point group operations.


The magnetic configuration has the point symmetry O_h .


 Subroutine INISYM returns: Found 48 space group operations
 (whereof 48 operations are pure point group operations),
 and found     2 'primitive' translations

 
 
 KPOINTS: Automatic mesh                          

Automatic generation of k-mesh.
 generate k-points for:   14   14   14
Space group operators:
 irot       det(A)        alpha          n_x          n_y          n_z        tau_x        tau_y        tau_z
    1     1.000000     0.000000     1.000000     0.000000     0.000000     0.000000     0.000000     0.000000
    2    -1.000000     0.000000     1.000000     0.000000     0.000000     0.000000     0.000000     0.000000
    3     1.000000   120.000000    -0.577350    -0.577350    -0.577350     0.000000     0.000000     0.000000
    4    -1.000000   120.000000    -0.577350    -0.577350    -0.577350     0.000000     0.000000     0.000000
    5     1.000000   120.000000     0.577350     0.577350     0.577350     0.000000     0.000000     0.000000
    6    -1.000000   120.000000     0.577350     0.577350     0.577350     0.000000     0.000000     0.000000
    7     1.000000    90.000000     0.000000     0.000000    -1.000000     0.000000     0.000000     0.000000
    8    -1.000000    90.000000     0.000000     0.000000    -1.000000     0.000000     0.000000     0.000000
    9     1.000000   180.000000     0.000000     0.707107     0.707107     0.000000     0.000000     0.000000
   10    -1.000000   180.000000     0.000000     0.707107     0.707107     0.000000     0.000000     0.000000
   11     1.000000    90.000000     0.000000     1.000000     0.000000     0.000000     0.000000     0.000000
   12    -1.000000    90.000000     0.000000     1.000000     0.000000     0.000000     0.000000     0.000000
   13     1.000000   180.000000     0.000000     0.000000     1.000000     0.000000     0.000000     0.000000
   14    -1.000000   180.000000     0.000000     0.000000     1.000000     0.000000     0.000000     0.000000
   15     1.000000   120.000000    -0.577350     0.577350     0.577350     0.000000     0.000000     0.000000
   16    -1.000000   120.000000    -0.577350     0.577350     0.577350     0.000000     0.000000     0.000000
   17     1.000000   120.000000    -0.577350     0.577350    -0.577350     0.000000     0.000000     0.000000
   18    -1.000000   120.000000    -0.577350     0.577350    -0.577350     0.000000     0.000000     0.000000
   19     1.000000    90.000000     0.000000     0.000000     1.000000     0.000000     0.000000     0.000000
   20    -1.000000    90.000000     0.000000     0.000000     1.000000     0.000000     0.000000     0.000000
   21     1.000000    90.000000    -1.000000     0.000000     0.000000     0.000000     0.000000     0.000000
   22    -1.000000    90.000000    -1.000000     0.000000     0.000000     0.000000     0.000000     0.000000
   23     1.000000   180.000000     0.707107     0.000000     0.707107     0.000000     0.000000     0.000000
   24    -1.000000   180.000000     0.707107     0.000000     0.707107     0.000000     0.000000     0.000000
   25     1.000000   120.000000     0.577350    -0.577350     0.577350     0.000000     0.000000     0.000000
   26    -1.000000   120.000000     0.577350    -0.577350     0.577350     0.000000     0.000000     0.000000
   27     1.000000   120.000000    -0.577350    -0.577350     0.577350     0.000000     0.000000     0.000000
   28    -1.000000   120.000000    -0.577350    -0.577350     0.577350     0.000000     0.000000     0.000000
   29     1.000000   180.000000     1.000000     0.000000     0.000000     0.000000     0.000000     0.000000
   30    -1.000000   180.000000     1.000000     0.000000     0.000000     0.000000     0.000000     0.000000
   31     1.000000    90.000000     0.000000    -1.000000     0.000000     0.000000     0.000000     0.000000
   32    -1.000000    90.000000     0.000000    -1.000000     0.000000     0.000000     0.000000     0.000000
   33     1.000000   180.000000     0.707107     0.707107     0.000000     0.000000     0.000000     0.000000
   34    -1.000000   180.000000     0.707107     0.707107     0.000000     0.000000     0.000000     0.000000
   35     1.000000    90.000000     1.000000     0.000000     0.000000     0.000000     0.000000     0.000000
   36    -1.000000    90.000000     1.000000     0.000000     0.000000     0.000000     0.000000     0.000000
   37     1.000000   120.000000     0.577350    -0.577350    -0.577350     0.000000     0.000000     0.000000
   38    -1.000000   120.000000     0.577350    -0.577350    -0.577350     0.000000     0.000000     0.000000
   39     1.000000   180.000000     0.000000     1.000000     0.000000     0.000000     0.000000     0.000000
   40    -1.000000   180.000000     0.000000     1.000000     0.000000     0.000000     0.000000     0.000000
   41     1.000000   120.000000     0.577350     0.577350    -0.577350     0.000000     0.000000     0.000000
   42    -1.000000   120.000000     0.577350     0.577350    -0.577350     0.000000     0.000000     0.000000
   43     1.000000   180.000000     0.000000    -0.707107     0.707107     0.000000     0.000000     0.000000
   44    -1.000000   180.000000     0.000000    -0.707107     0.707107     0.000000     0.000000     0.000000
   45     1.000000   180.000000     0.707107    -0.707107     0.000000     0.000000     0.000000     0.000000
   46    -1.000000   180.000000     0.707107    -0.707107     0.000000     0.000000     0.000000     0.000000
   47     1.000000   180.000000     0.707107     0.000000    -0.707107     0.000000     0.000000     0.000000
   48    -1.000000   180.000000     0.707107     0.000000    -0.707107     0.000000     0.000000     0.000000
 
 Subroutine IBZKPT returns following result:
 ===========================================
 
 Found    120 irreducible k-points:
 
 Following reciprocal coordinates:
            Coordinates               Weight
  0.000000  0.000000  0.000000      1.000000
  0.071429  0.000000  0.000000      6.000000
  0.142857  0.000000  0.000000      6.000000
  0.214286  0.000000  0.000000      6.000000
  0.285714  0.000000  0.000000      6.000000
  0.357143  0.000000  0.000000      6.000000
  0.428571  0.000000  0.000000      6.000000
  0.500000  0.000000  0.000000      3.000000
  0.071429  0.071429  0.000000     12.000000
  0.142857  0.071429  0.000000     24.000000
  0.214286  0.071429  0.000000     24.000000
  0.285714  0.071429  0.000000     24.000000
  0.357143  0.071429  0.000000     24.000000
  0.428571  0.071429  0.000000     24.000000
  0.500000  0.071429  0.000000     12.000000
  0.142857  0.142857  0.000000     12.000000
  0.214286  0.142857  0.000000     24.000000
  0.285714  0.142857  0.000000     24.000000
  0.357143  0.142857  0.000000     24.000000
  0.428571  0.142857  0.000000     24.000000
  0.500000  0.142857  0.000000     12.000000
  0.214286  0.214286  0.000000     12.000000
  0.285714  0.214286  0.000000     24.000000
  0.357143  0.214286  0.000000     24.000000
  0.428571  0.214286  0.000000     24.000000
  0.500000  0.214286  0.000000     12.000000
  0.285714  0.285714  0.000000     12.000000
  0.357143  0.285714  0.000000     24.000000
  0.428571  0.285714  0.000000     24.000000
  0.500000  0.285714  0.000000     12.000000
  0.357143  0.357143  0.000000     12.000000
  0.428571  0.357143  0.000000     24.000000
  0.500000  0.357143  0.000000     12.000000
  0.428571  0.428571  0.000000     12.000000
  0.500000  0.428571  0.000000     12.000000
  0.500000  0.500000  0.000000      3.000000
  0.071429  0.071429  0.071429      8.000000
  0.142857  0.071429  0.071429     24.000000
  0.214286  0.071429  0.071429     24.000000
  0.285714  0.071429  0.071429     24.000000
  0.357143  0.071429  0.071429     24.000000
  0.428571  0.071429  0.071429     24.000000
  0.500000  0.071429  0.071429     12.000000
  0.142857  0.142857  0.071429     24.000000
  0.214286  0.142857  0.071429     48.000000
  0.285714  0.142857  0.071429     48.000000
  0.357143  0.142857  0.071429     48.000000
  0.428571  0.142857  0.071429     48.000000
  0.500000  0.142857  0.071429     24.000000
  0.214286  0.214286  0.071429     24.000000
  0.285714  0.214286  0.071429     48.000000
  0.357143  0.214286  0.071429     48.000000
  0.428571  0.214286  0.071429     48.000000
  0.500000  0.214286  0.071429     24.000000
  0.285714  0.285714  0.071429     24.000000
  0.357143  0.285714  0.071429     48.000000
  0.428571  0.285714  0.071429     48.000000
  0.500000  0.285714  0.071429     24.000000
  0.357143  0.357143  0.071429     24.000000
  0.428571  0.357143  0.071429     48.000000
  0.500000  0.357143  0.071429     24.000000
  0.428571  0.428571  0.071429     24.000000
  0.500000  0.428571  0.071429     24.000000
  0.500000  0.500000  0.071429      6.000000
  0.142857  0.142857  0.142857      8.000000
  0.214286  0.142857  0.142857     24.000000
  0.285714  0.142857  0.142857     24.000000
  0.357143  0.142857  0.142857     24.000000
  0.428571  0.142857  0.142857     24.000000
  0.500000  0.142857  0.142857     12.000000
  0.214286  0.214286  0.142857     24.000000
  0.285714  0.214286  0.142857     48.000000
  0.357143  0.214286  0.142857     48.000000
  0.428571  0.214286  0.142857     48.000000
  0.500000  0.214286  0.142857     24.000000
  0.285714  0.285714  0.142857     24.000000
  0.357143  0.285714  0.142857     48.000000
  0.428571  0.285714  0.142857     48.000000
  0.500000  0.285714  0.142857     24.000000
  0.357143  0.357143  0.142857     24.000000
  0.428571  0.357143  0.142857     48.000000
  0.500000  0.357143  0.142857     24.000000
  0.428571  0.428571  0.142857     24.000000
  0.500000  0.428571  0.142857     24.000000
  0.500000  0.500000  0.142857      6.000000
  0.214286  0.214286  0.214286      8.000000
  0.285714  0.214286  0.214286     24.000000
  0.357143  0.214286  0.214286     24.000000
  0.428571  0.214286  0.214286     24.000000
  0.500000  0.214286  0.214286     12.000000
  0.285714  0.285714  0.214286     24.000000
  0.357143  0.285714  0.214286     48.000000
  0.428571  0.285714  0.214286     48.000000
  0.500000  0.285714  0.214286     24.000000
  0.357143  0.357143  0.214286     24.000000
  0.428571  0.357143  0.214286     48.000000
  0.500000  0.357143  0.214286     24.000000
  0.428571  0.428571  0.214286     24.000000
  0.500000  0.428571  0.214286     24.000000
  0.500000  0.500000  0.214286      6.000000
  0.285714  0.285714  0.285714      8.000000
  0.357143  0.285714  0.285714     24.000000
  0.428571  0.285714  0.285714     24.000000
  0.500000  0.285714  0.285714     12.000000
  0.357143  0.357143  0.285714     24.000000
  0.428571  0.357143  0.285714     48.000000
  0.500000  0.357143  0.285714     24.000000
  0.428571  0.428571  0.285714     24.000000
  0.500000  0.428571  0.285714     24.000000
  0.500000  0.500000  0.285714      6.000000
  0.357143  0.357143  0.357143      8.000000
  0.428571  0.357143  0.357143     24.000000
  0.500000  0.357143  0.357143     12.000000
  0.428571  0.428571  0.357143     24.000000
  0.500000  0.428571  0.357143     24.000000
  0.500000  0.500000  0.357143      6.000000
  0.428571  0.428571  0.428571      8.000000
  0.500000  0.428571  0.428571     12.000000
  0.500000  0.500000  0.428571      6.000000
  0.500000  0.500000  0.500000      1.000000
 
 Following cartesian coordinates:
            Coordinates               Weight
  0.000000  0.000000  0.000000      1.000000
  0.025150  0.000000  0.000000      6.000000
  0.050301  0.000000  0.000000      6.000000
  0.075451  0.000000  0.000000      6.000000
  0.100602  0.000000  0.000000      6.000000
  0.125752  0.000000  0.000000      6.000000
  0.150903  0.000000  0.000000      6.000000
  0.176053  0.000000  0.000000      3.000000
  0.025150  0.025150  0.000000     12.000000
  0.050301  0.025150  0.000000     24.000000
  0.075451  0.025150  0.000000     24.000000
  0.100602  0.025150  0.000000     24.000000
  0.125752  0.025150  0.000000     24.000000
  0.150903  0.025150  0.000000     24.000000
  0.176053  0.025150  0.000000     12.000000
  0.050301  0.050301  0.000000     12.000000
  0.075451  0.050301  0.000000     24.000000
  0.100602  0.050301  0.000000     24.000000
  0.125752  0.050301  0.000000     24.000000
  0.150903  0.050301  0.000000     24.000000
  0.176053  0.050301  0.000000     12.000000
  0.075451  0.075451  0.000000     12.000000
  0.100602  0.075451  0.000000     24.000000
  0.125752  0.075451  0.000000     24.000000
  0.150903  0.075451  0.000000     24.000000
  0.176053  0.075451  0.000000     12.000000
  0.100602  0.100602  0.000000     12.000000
  0.125752  0.100602  0.000000     24.000000
  0.150903  0.100602  0.000000     24.000000
  0.176053  0.100602  0.000000     12.000000
  0.125752  0.125752  0.000000     12.000000
  0.150903  0.125752  0.000000     24.000000
  0.176053  0.125752  0.000000     12.000000
  0.150903  0.150903  0.000000     12.000000
  0.176053  0.150903  0.000000     12.000000
  0.176053  0.176053  0.000000      3.000000
  0.025150  0.025150  0.025150      8.000000
  0.050301  0.025150  0.025150     24.000000
  0.075451  0.025150  0.025150     24.000000
  0.100602  0.025150  0.025150     24.000000
  0.125752  0.025150  0.025150     24.000000
  0.150903  0.025150  0.025150     24.000000
  0.176053  0.025150  0.025150     12.000000
  0.050301  0.050301  0.025150     24.000000
  0.075451  0.050301  0.025150     48.000000
  0.100602  0.050301  0.025150     48.000000
  0.125752  0.050301  0.025150     48.000000
  0.150903  0.050301  0.025150     48.000000
  0.176053  0.050301  0.025150     24.000000
  0.075451  0.075451  0.025150     24.000000
  0.100602  0.075451  0.025150     48.000000
  0.125752  0.075451  0.025150     48.000000
  0.150903  0.075451  0.025150     48.000000
  0.176053  0.075451  0.025150     24.000000
  0.100602  0.100602  0.025150     24.000000
  0.125752  0.100602  0.025150     48.000000
  0.150903  0.100602  0.025150     48.000000
  0.176053  0.100602  0.025150     24.000000
  0.125752  0.125752  0.025150     24.000000
  0.150903  0.125752  0.025150     48.000000
  0.176053  0.125752  0.025150     24.000000
  0.150903  0.150903  0.025150     24.000000
  0.176053  0.150903  0.025150     24.000000
  0.176053  0.176053  0.025150      6.000000
  0.050301  0.050301  0.050301      8.000000
  0.075451  0.050301  0.050301     24.000000
  0.100602  0.050301  0.050301     24.000000
  0.125752  0.050301  0.050301     24.000000
  0.150903  0.050301  0.050301     24.000000
  0.176053  0.050301  0.050301     12.000000
  0.075451  0.075451  0.050301     24.000000
  0.100602  0.075451  0.050301     48.000000
  0.125752  0.075451  0.050301     48.000000
  0.150903  0.075451  0.050301     48.000000
  0.176053  0.075451  0.050301     24.000000
  0.100602  0.100602  0.050301     24.000000
  0.125752  0.100602  0.050301     48.000000
  0.150903  0.100602  0.050301     48.000000
  0.176053  0.100602  0.050301     24.000000
  0.125752  0.125752  0.050301     24.000000
  0.150903  0.125752  0.050301     48.000000
  0.176053  0.125752  0.050301     24.000000
  0.150903  0.150903  0.050301     24.000000
  0.176053  0.150903  0.050301     24.000000
  0.176053  0.176053  0.050301      6.000000
  0.075451  0.075451  0.075451      8.000000
  0.100602  0.075451  0.075451     24.000000
  0.125752  0.075451  0.075451     24.000000
  0.150903  0.075451  0.075451     24.000000
  0.176053  0.075451  0.075451     12.000000
  0.100602  0.100602  0.075451     24.000000
  0.125752  0.100602  0.075451     48.000000
  0.150903  0.100602  0.075451     48.000000
  0.176053  0.100602  0.075451     24.000000
  0.125752  0.125752  0.075451     24.000000
  0.150903  0.125752  0.075451     48.000000
  0.176053  0.125752  0.075451     24.000000
  0.150903  0.150903  0.075451     24.000000
  0.176053  0.150903  0.075451     24.000000
  0.176053  0.176053  0.075451      6.000000
  0.100602  0.100602  0.100602      8.000000
  0.125752  0.100602  0.100602     24.000000
  0.150903  0.100602  0.100602     24.000000
  0.176053  0.100602  0.100602     12.000000
  0.125752  0.125752  0.100602     24.000000
  0.150903  0.125752  0.100602     48.000000
  0.176053  0.125752  0.100602     24.000000
  0.150903  0.150903  0.100602     24.000000
  0.176053  0.150903  0.100602     24.000000
  0.176053  0.176053  0.100602      6.000000
  0.125752  0.125752  0.125752      8.000000
  0.150903  0.125752  0.125752     24.000000
  0.176053  0.125752  0.125752     12.000000
  0.150903  0.150903  0.125752     24.000000
  0.176053  0.150903  0.125752     24.000000
  0.176053  0.176053  0.125752      6.000000
  0.150903  0.150903  0.150903      8.000000
  0.176053  0.150903  0.150903     12.000000
  0.176053  0.176053  0.150903      6.000000
  0.176053  0.176053  0.176053      1.000000
 
 TETIRR: Found   1360 inequivalent tetrahedra from    16464


--------------------------------------------------------------------------------------------------------




 Dimension of arrays:
   k-points           NKPTS =    120   k-points in BZ     NKDIM =    120   number of bands    NBANDS=     24
   number of dos      NEDOS =    301   number of ions     NIONS =      2
   non local maximal  LDIM  =      6   non local SUM 2l+1 LMDIM =     18
   total plane-waves  NPLWV =  21952
   max r-space proj   IRMAX =   8080   max aug-charges    IRDMAX=  28578
   dimension x,y,z NGX =    28 NGY =   28 NGZ =   28
   dimension x,y,z NGXF=    56 NGYF=   56 NGZF=   56
   support grid    NGXF=    56 NGYF=   56 NGZF=   56
   ions per type =               2
   NGX,Y,Z   is equivalent  to a cutoff of  16.39, 16.39, 16.39 a.u.
   NGXF,Y,Z  is equivalent  to a cutoff of  32.78, 32.78, 32.78 a.u.

 SYSTEM =  unknown system                          
 POSCAR =  Fe2                                     

 Startparameter for this run:
   NWRITE =      2    write-flag & timer
   PREC   = accura    normal or accurate (medium, high low for compatibility)
   ISTART =      0    job   : 0-new  1-cont  2-samecut
   ICHARG =      2    charge: 1-file 2-atom 10-const
   ISPIN  =      2    spin polarized calculation?
   LNONCOLLINEAR =      F non collinear calculations
   LSORBIT =      F    spin-orbit coupling
   INIWAV =      1    electr: 0-lowe 1-rand  2-diag
   LASPH  =      F    aspherical Exc in radial PAW
   METAGGA=      F    non-selfconsistent MetaGGA calc.

 Electronic Relaxation 1
   ENCUT  =  920.0 eV  67.62 Ry    8.22 a.u.   7.02  7.02  7.02*2*pi/ulx,y,z
   ENINI  =  920.0     initial cutoff
   ENAUG  =  578.3 eV  augmentation charge cutoff
   NELM   =    100;   NELMIN=  2; NELMDL= -5     # of ELM steps 
   EDIFF  = 0.1E-06   stopping-criterion for ELM
   LREAL  =      T    real-space projection
   NLSPLINE    = F    spline interpolate recip. space projectors
   LCOMPAT=      F    compatible to vasp.4.4
   GGA_COMPAT  = T    GGA compatible to vasp.4.4-vasp.4.6
   LMAXPAW     = -100 max onsite density
   LMAXMIX     =    2 max onsite mixed and CHGCAR
   VOSKOWN=      0    Vosko Wilk Nusair interpolation
   ROPT   =   -0.00025
 Ionic relaxation
   EDIFFG = 0.1E-05   stopping-criterion for IOM
   NSW    =      0    number of steps for IOM
   NBLOCK =      1;   KBLOCK =      1    inner block; outer block 
   IBRION =     -1    ionic relax: 0-MD 1-quasi-New 2-CG
   NFREE  =      0    steps in history (QN), initial steepest desc. (CG)
   ISIF   =      3    stress and relaxation
   IWAVPR =     10    prediction:  0-non 1-charg 2-wave 3-comb
   ISYM   =      2    0-nonsym 1-usesym 2-fastsym
   LCORR  =      T    Harris-Foulkes like correction to forces

   POTIM  = 0.5000    time-step for ionic-motion
   TEIN   =    0.0    initial temperature
   TEBEG  =    0.0;   TEEND  =   0.0 temperature during run
   SMASS  =  -3.00    Nose mass-parameter (am)
   estimated Nose-frequenzy (Omega)   =  0.10E-29 period in steps =****** mass=  -0.184E-27a.u.
   SCALEE = 1.0000    scale energy and forces
   NPACO  =    256;   APACO  = 16.0  distance and # of slots for P.C.
   PSTRESS=    0.0 pullay stress

  Mass of Ions in am
   POMASS =  55.85
  Ionic Valenz
   ZVAL   =  14.00
  Atomic Wigner-Seitz radii
   RWIGS  =  -1.00
  virtual crystal weights 
   VCA    =   1.00
   NELECT =      28.0000    total number of electrons
   NUPDOWN=      -1.0000    fix difference up-down

 DOS related values:
   EMIN   =  10.00;   EMAX   =-10.00  energy-range for DOS
   EFERMI =   0.00
   ISMEAR =    -5;   SIGMA  =   0.05  broadening in eV -4-tet -1-fermi 0-gaus

 Electronic relaxation 2 (details)
   IALGO  =     38    algorithm
   LDIAG  =      T    sub-space diagonalisation (order eigenvalues)
   LSUBROT=      F    optimize rotation matrix (better conditioning)
   TURBO    =      0    0=normal 1=particle mesh
   IRESTART =      0    0=no restart 2=restart with 2 vectors
   NREBOOT  =      0    no. of reboots
   NMIN     =      0    reboot dimension
   EREF     =   0.00    reference energy to select bands
   IMIX   =      4    mixing-type and parameters
     AMIX     =   0.40;   BMIX     =  1.00
     AMIX_MAG =   1.60;   BMIX_MAG =  1.00
     AMIN     =   0.10
     WC   =   100.;   INIMIX=   1;  MIXPRE=   1;  MAXMIX= -45

 Intra band minimization:
   WEIMIN = 0.0000     energy-eigenvalue tresh-hold
   EBREAK =  0.10E-08  absolut break condition
   DEPER  =   0.30     relativ break condition  

   TIME   =   0.40     timestep for ELM

  volume/ion in A,a.u.               =      11.45        77.29
  Fermi-wavevector in a.u.,A,eV,Ry     =   1.750389  3.307755 41.686364  3.063861
  Thomas-Fermi vector in A             =   2.821117
 
 Write flags
   LWAVE        =      F    write WAVECAR
   LDOWNSAMPLE  =      F    k-point downsampling of WAVECAR
   LCHARG       =      F    write CHGCAR
   LVTOT        =      F    write LOCPOT, total local potential
   LVHAR        =      F    write LOCPOT, Hartree potential only
   LELF         =      F    write electronic localiz. function (ELF)
   LORBIT       =     11    0 simple, 1 ext, 2 COOP (PROOUT), +10 PAW based schemes


 Dipole corrections
   LMONO  =      F    monopole corrections only (constant potential shift)
   LDIPOL =      F    correct potential (dipole corrections)
   IDIPOL =      0    1-x, 2-y, 3-z, 4-all directions 
   EPSILON=  1.0000000 bulk dielectric constant

 Exchange correlation treatment:
   GGA     =    --    GGA type
   LEXCH   =     8    internal setting for exchange type
   VOSKOWN=      0    Vosko Wilk Nusair interpolation
   LHFCALC =     F    Hartree Fock is set to
   LHFONE  =     F    Hartree Fock one center treatment
   AEXX    =    0.0000 exact exchange contribution

 Linear response parameters
   LEPSILON=     F    determine dielectric tensor
   LRPA    =     F    only Hartree local field effects (RPA)
   LNABLA  =     F    use nabla operator in PAW spheres
   LVEL    =     F    velocity operator in full k-point grid
   LINTERFAST=   F  fast interpolation
   KINTER  =     0    interpolate to denser k-point grid
   CSHIFT  =0.1000    complex shift for real part using Kramers Kronig
   OMEGAMAX=  -1.0    maximum frequency
   DEG_THRESHOLD= 0.2000000E-02 threshold for treating states as degnerate
   RTIME   =   -0.100 relaxation time in fs
  (WPLASMAI=    0.000 imaginary part of plasma frequency in eV, 0.658/RTIME)
   DFIELD  = 0.0000000 0.0000000 0.0000000 field for delta impulse in time
 
 Orbital magnetization related:
   ORBITALMAG=     F  switch on orbital magnetization
   LCHIMAG   =     F  perturbation theory with respect to B field
   DQ        =  0.001000  dq finite difference perturbation B field
   LLRAUG    =     F  two centre corrections for induced B field



--------------------------------------------------------------------------------------------------------


 Static calculation
 charge density and potential will be updated during run
 spin polarized calculation
 Variant of blocked Davidson
 Davidson routine will perform the subspace rotation
 perform sub-space diagonalisation
    after iterative eigenvector-optimisation
 modified Broyden-mixing scheme, WC =      100.0
 initial mixing is a Kerker type mixing with AMIX =  0.4000 and BMIX =      1.0000
 Hartree-type preconditioning will be used
 using additional bands           10
 real space projection scheme for non local part
 use partial core corrections
 calculate Harris-corrections to forces 
   (improved forces if not selfconsistent)
 use gradient corrections 
 use of overlap-Matrix (Vanderbilt PP)
 Fermi weights with tetrahedron method with Bloechl corrections


--------------------------------------------------------------------------------------------------------


  energy-cutoff  :      920.00
  volume of cell :       22.91
      direct lattice vectors                 reciprocal lattice vectors
     2.840052000  0.000000000  0.000000000     0.352106229  0.000000000  0.000000000
     0.000000000  2.840052000  0.000000000     0.000000000  0.352106229  0.000000000
     0.000000000  0.000000000  2.840052000     0.000000000  0.000000000  0.352106229

  length of vectors
     2.840052000  2.840052000  2.840052000     0.352106229  0.352106229  0.352106229


 
 k-points in units of 2pi/SCALE and weight: Automatic mesh                          
   0.00000000  0.00000000  0.00000000       0.000
   0.02515044  0.00000000  0.00000000       0.002
   0.05030089  0.00000000  0.00000000       0.002
   0.07545133  0.00000000  0.00000000       0.002
   0.10060178  0.00000000  0.00000000       0.002
   0.12575222  0.00000000  0.00000000       0.002
   0.15090267  0.00000000  0.00000000       0.002
   0.17605311  0.00000000  0.00000000       0.001
   0.02515044  0.02515044  0.00000000       0.004
   0.05030089  0.02515044  0.00000000       0.009
   0.07545133  0.02515044  0.00000000       0.009
   0.10060178  0.02515044  0.00000000       0.009
   0.12575222  0.02515044  0.00000000       0.009
   0.15090267  0.02515044  0.00000000       0.009
   0.17605311  0.02515044  0.00000000       0.004
   0.05030089  0.05030089  0.00000000       0.004
   0.07545133  0.05030089  0.00000000       0.009
   0.10060178  0.05030089  0.00000000       0.009
   0.12575222  0.05030089  0.00000000       0.009
   0.15090267  0.05030089  0.00000000       0.009
   0.17605311  0.05030089  0.00000000       0.004
   0.07545133  0.07545133  0.00000000       0.004
   0.10060178  0.07545133  0.00000000       0.009
   0.12575222  0.07545133  0.00000000       0.009
   0.15090267  0.07545133  0.00000000       0.009
   0.17605311  0.07545133  0.00000000       0.004
   0.10060178  0.10060178  0.00000000       0.004
   0.12575222  0.10060178  0.00000000       0.009
   0.15090267  0.10060178  0.00000000       0.009
   0.17605311  0.10060178  0.00000000       0.004
   0.12575222  0.12575222  0.00000000       0.004
   0.15090267  0.12575222  0.00000000       0.009
   0.17605311  0.12575222  0.00000000       0.004
   0.15090267  0.15090267  0.00000000       0.004
   0.17605311  0.15090267  0.00000000       0.004
   0.17605311  0.17605311  0.00000000       0.001
   0.02515044  0.02515044  0.02515044       0.003
   0.05030089  0.02515044  0.02515044       0.009
   0.07545133  0.02515044  0.02515044       0.009
   0.10060178  0.02515044  0.02515044       0.009
   0.12575222  0.02515044  0.02515044       0.009
   0.15090267  0.02515044  0.02515044       0.009
   0.17605311  0.02515044  0.02515044       0.004
   0.05030089  0.05030089  0.02515044       0.009
   0.07545133  0.05030089  0.02515044       0.017
   0.10060178  0.05030089  0.02515044       0.017
   0.12575222  0.05030089  0.02515044       0.017
   0.15090267  0.05030089  0.02515044       0.017
   0.17605311  0.05030089  0.02515044       0.009
   0.07545133  0.07545133  0.02515044       0.009
   0.10060178  0.07545133  0.02515044       0.017
   0.12575222  0.07545133  0.02515044       0.017
   0.15090267  0.07545133  0.02515044       0.017
   0.17605311  0.07545133  0.02515044       0.009
   0.10060178  0.10060178  0.02515044       0.009
   0.12575222  0.10060178  0.02515044       0.017
   0.15090267  0.10060178  0.02515044       0.017
   0.17605311  0.10060178  0.02515044       0.009
   0.12575222  0.12575222  0.02515044       0.009
   0.15090267  0.12575222  0.02515044       0.017
   0.17605311  0.12575222  0.02515044       0.009
   0.15090267  0.15090267  0.02515044       0.009
   0.17605311  0.15090267  0.02515044       0.009
   0.17605311  0.17605311  0.02515044       0.002
   0.05030089  0.05030089  0.05030089       0.003
   0.07545133  0.05030089  0.05030089       0.009
   0.10060178  0.05030089  0.05030089       0.009
   0.12575222  0.05030089  0.05030089       0.009
   0.15090267  0.05030089  0.05030089       0.009
   0.17605311  0.05030089  0.05030089       0.004
   0.07545133  0.07545133  0.05030089       0.009
   0.10060178  0.07545133  0.05030089       0.017
   0.12575222  0.07545133  0.05030089       0.017
   0.15090267  0.07545133  0.05030089       0.017
   0.17605311  0.07545133  0.05030089       0.009
   0.10060178  0.10060178  0.05030089       0.009
   0.12575222  0.10060178  0.05030089       0.017
   0.15090267  0.10060178  0.05030089       0.017
   0.17605311  0.10060178  0.05030089       0.009
   0.12575222  0.12575222  0.05030089       0.009
   0.15090267  0.12575222  0.05030089       0.017
   0.17605311  0.12575222  0.05030089       0.009
   0.15090267  0.15090267  0.05030089       0.009
   0.17605311  0.15090267  0.05030089       0.009
   0.17605311  0.17605311  0.05030089       0.002
   0.07545133  0.07545133  0.07545133       0.003
   0.10060178  0.07545133  0.07545133       0.009
   0.12575222  0.07545133  0.07545133       0.009
   0.15090267  0.07545133  0.07545133       0.009
   0.17605311  0.07545133  0.07545133       0.004
   0.10060178  0.10060178  0.07545133       0.009
   0.12575222  0.10060178  0.07545133       0.017
   0.15090267  0.10060178  0.07545133       0.017
   0.17605311  0.10060178  0.07545133       0.009
   0.12575222  0.12575222  0.07545133       0.009
   0.15090267  0.12575222  0.07545133       0.017
   0.17605311  0.12575222  0.07545133       0.009
   0.15090267  0.15090267  0.07545133       0.009
   0.17605311  0.15090267  0.07545133       0.009
   0.17605311  0.17605311  0.07545133       0.002
   0.10060178  0.10060178  0.10060178       0.003
   0.12575222  0.10060178  0.10060178       0.009
   0.15090267  0.10060178  0.10060178       0.009
   0.17605311  0.10060178  0.10060178       0.004
   0.12575222  0.12575222  0.10060178       0.009
   0.15090267  0.12575222  0.10060178       0.017
   0.17605311  0.12575222  0.10060178       0.009
   0.15090267  0.15090267  0.10060178       0.009
   0.17605311  0.15090267  0.10060178       0.009
   0.17605311  0.17605311  0.10060178       0.002
   0.12575222  0.12575222  0.12575222       0.003
   0.15090267  0.12575222  0.12575222       0.009
   0.17605311  0.12575222  0.12575222       0.004
   0.15090267  0.15090267  0.12575222       0.009
   0.17605311  0.15090267  0.12575222       0.009
   0.17605311  0.17605311  0.12575222       0.002
   0.15090267  0.15090267  0.15090267       0.003
   0.17605311  0.15090267  0.15090267       0.004
   0.17605311  0.17605311  0.15090267       0.002
   0.17605311  0.17605311  0.17605311       0.000
 
 k-points in reciprocal lattice and weights: Automatic mesh                          
   0.00000000  0.00000000  0.00000000       0.000
   0.07142857  0.00000000  0.00000000       0.002
   0.14285714  0.00000000  0.00000000       0.002
   0.21428571  0.00000000  0.00000000       0.002
   0.28571429  0.00000000  0.00000000       0.002
   0.35714286  0.00000000  0.00000000       0.002
   0.42857143  0.00000000  0.00000000       0.002
   0.50000000  0.00000000  0.00000000       0.001
   0.07142857  0.07142857  0.00000000       0.004
   0.14285714  0.07142857  0.00000000       0.009
   0.21428571  0.07142857  0.00000000       0.009
   0.28571429  0.07142857  0.00000000       0.009
   0.35714286  0.07142857  0.00000000       0.009
   0.42857143  0.07142857  0.00000000       0.009
   0.50000000  0.07142857  0.00000000       0.004
   0.14285714  0.14285714  0.00000000       0.004
   0.21428571  0.14285714  0.00000000       0.009
   0.28571429  0.14285714  0.00000000       0.009
   0.35714286  0.14285714  0.00000000       0.009
   0.42857143  0.14285714  0.00000000       0.009
   0.50000000  0.14285714  0.00000000       0.004
   0.21428571  0.21428571  0.00000000       0.004
   0.28571429  0.21428571  0.00000000       0.009
   0.35714286  0.21428571  0.00000000       0.009
   0.42857143  0.21428571  0.00000000       0.009
   0.50000000  0.21428571  0.00000000       0.004
   0.28571429  0.28571429  0.00000000       0.004
   0.35714286  0.28571429  0.00000000       0.009
   0.42857143  0.28571429  0.00000000       0.009
   0.50000000  0.28571429  0.00000000       0.004
   0.35714286  0.35714286  0.00000000       0.004
   0.42857143  0.35714286  0.00000000       0.009
   0.50000000  0.35714286  0.00000000       0.004
   0.42857143  0.42857143  0.00000000       0.004
   0.50000000  0.42857143  0.00000000       0.004
   0.50000000  0.50000000  0.00000000       0.001
   0.07142857  0.07142857  0.07142857       0.003
   0.14285714  0.07142857  0.07142857       0.009
   0.21428571  0.07142857  0.07142857       0.009
   0.28571429  0.07142857  0.07142857       0.009
   0.35714286  0.07142857  0.07142857       0.009
   0.42857143  0.07142857  0.07142857       0.009
   0.50000000  0.07142857  0.07142857       0.004
   0.14285714  0.14285714  0.07142857       0.009
   0.21428571  0.14285714  0.07142857       0.017
   0.28571429  0.14285714  0.07142857       0.017
   0.35714286  0.14285714  0.07142857       0.017
   0.42857143  0.14285714  0.07142857       0.017
   0.50000000  0.14285714  0.07142857       0.009
   0.21428571  0.21428571  0.07142857       0.009
   0.28571429  0.21428571  0.07142857       0.017
   0.35714286  0.21428571  0.07142857       0.017
   0.42857143  0.21428571  0.07142857       0.017
   0.50000000  0.21428571  0.07142857       0.009
   0.28571429  0.28571429  0.07142857       0.009
   0.35714286  0.28571429  0.07142857       0.017
   0.42857143  0.28571429  0.07142857       0.017
   0.50000000  0.28571429  0.07142857       0.009
   0.35714286  0.35714286  0.07142857       0.009
   0.42857143  0.35714286  0.07142857       0.017
   0.50000000  0.35714286  0.07142857       0.009
   0.42857143  0.42857143  0.07142857       0.009
   0.50000000  0.42857143  0.07142857       0.009
   0.50000000  0.50000000  0.07142857       0.002
   0.14285714  0.14285714  0.14285714       0.003
   0.21428571  0.14285714  0.14285714       0.009
   0.28571429  0.14285714  0.14285714       0.009
   0.35714286  0.14285714  0.14285714       0.009
   0.42857143  0.14285714  0.14285714       0.009
   0.50000000  0.14285714  0.14285714       0.004
   0.21428571  0.21428571  0.14285714       0.009
   0.28571429  0.21428571  0.14285714       0.017
   0.35714286  0.21428571  0.14285714       0.017
   0.42857143  0.21428571  0.14285714       0.017
   0.50000000  0.21428571  0.14285714       0.009
   0.28571429  0.28571429  0.14285714       0.009
   0.35714286  0.28571429  0.14285714       0.017
   0.42857143  0.28571429  0.14285714       0.017
   0.50000000  0.28571429  0.14285714       0.009
   0.35714286  0.35714286  0.14285714       0.009
   0.42857143  0.35714286  0.14285714       0.017
   0.50000000  0.35714286  0.14285714       0.009
   0.42857143  0.42857143  0.14285714       0.009
   0.50000000  0.42857143  0.14285714       0.009
   0.50000000  0.50000000  0.14285714       0.002
   0.21428571  0.21428571  0.21428571       0.003
   0.28571429  0.21428571  0.21428571       0.009
   0.35714286  0.21428571  0.21428571       0.009
   0.42857143  0.21428571  0.21428571       0.009
   0.50000000  0.21428571  0.21428571       0.004
   0.28571429  0.28571429  0.21428571       0.009
   0.35714286  0.28571429  0.21428571       0.017
   0.42857143  0.28571429  0.21428571       0.017
   0.50000000  0.28571429  0.21428571       0.009
   0.35714286  0.35714286  0.21428571       0.009
   0.42857143  0.35714286  0.21428571       0.017
   0.50000000  0.35714286  0.21428571       0.009
   0.42857143  0.42857143  0.21428571       0.009
   0.50000000  0.42857143  0.21428571       0.009
   0.50000000  0.50000000  0.21428571       0.002
   0.28571429  0.28571429  0.28571429       0.003
   0.35714286  0.28571429  0.28571429       0.009
   0.42857143  0.28571429  0.28571429       0.009
   0.50000000  0.28571429  0.28571429       0.004
   0.35714286  0.35714286  0.28571429       0.009
   0.42857143  0.35714286  0.28571429       0.017
   0.50000000  0.35714286  0.28571429       0.009
   0.42857143  0.42857143  0.28571429       0.009
   0.50000000  0.42857143  0.28571429       0.009
   0.50000000  0.50000000  0.28571429       0.002
   0.35714286  0.35714286  0.35714286       0.003
   0.42857143  0.35714286  0.35714286       0.009
   0.50000000  0.35714286  0.35714286       0.004
   0.42857143  0.42857143  0.35714286       0.009
   0.50000000  0.42857143  0.35714286       0.009
   0.50000000  0.50000000  0.35714286       0.002
   0.42857143  0.42857143  0.42857143       0.003
   0.50000000  0.42857143  0.42857143       0.004
   0.50000000  0.50000000  0.42857143       0.002
   0.50000000  0.50000000  0.50000000       0.000
 
 position of ions in fractional coordinates (direct lattice) 
   0.00000000  0.00000000  0.00000000
   0.50000000  0.50000000  0.50000000
 
 position of ions in cartesian coordinates  (Angst):
   0.00000000  0.00000000  0.00000000
   1.42002600  1.42002600  1.42002600
 


--------------------------------------------------------------------------------------------------------


 k-point  1 :   0.0000 0.0000 0.0000  plane waves:    1419
 k-point  2 :   0.0714 0.0000 0.0000  plane waves:    1418
 k-point  3 :   0.1429 0.0000 0.0000  plane waves:    1430
 k-point  4 :   0.2143 0.0000 0.0000  plane waves:    1434
 k-point  5 :   0.2857 0.0000 0.0000  plane waves:    1434
 k-point  6 :   0.3571 0.0000 0.0000  plane waves:    1450
 k-point  7 :   0.4286 0.0000 0.0000  plane waves:    1450
 k-point  8 :   0.5000 0.0000 0.0000  plane waves:    1462
 k-point  9 :   0.0714 0.0714 0.0000  plane waves:    1422
 k-point 10 :   0.1429 0.0714 0.0000  plane waves:    1435
 k-point 11 :   0.2143 0.0714 0.0000  plane waves:    1435
 k-point 12 :   0.2857 0.0714 0.0000  plane waves:    1440
 k-point 13 :   0.3571 0.0714 0.0000  plane waves:    1448
 k-point 14 :   0.4286 0.0714 0.0000  plane waves:    1453
 k-point 15 :   0.5000 0.0714 0.0000  plane waves:    1448
 k-point 16 :   0.1429 0.1429 0.0000  plane waves:    1436
 k-point 17 :   0.2143 0.1429 0.0000  plane waves:    1438
 k-point 18 :   0.2857 0.1429 0.0000  plane waves:    1445
 k-point 19 :   0.3571 0.1429 0.0000  plane waves:    1451
 k-point 20 :   0.4286 0.1429 0.0000  plane waves:    1455
 k-point 21 :   0.5000 0.1429 0.0000  plane waves:    1456
 k-point 22 :   0.2143 0.2143 0.0000  plane waves:    1438
 k-point 23 :   0.2857 0.2143 0.0000  plane waves:    1446
 k-point 24 :   0.3571 0.2143 0.0000  plane waves:    1448
 k-point 25 :   0.4286 0.2143 0.0000  plane waves:    1453
 k-point 26 :   0.5000 0.2143 0.0000  plane waves:    1452
 k-point 27 :   0.2857 0.2857 0.0000  plane waves:    1454
 k-point 28 :   0.3571 0.2857 0.0000  plane waves:    1448
 k-point 29 :   0.4286 0.2857 0.0000  plane waves:    1454
 k-point 30 :   0.5000 0.2857 0.0000  plane waves:    1460
 k-point 31 :   0.3571 0.3571 0.0000  plane waves:    1446
 k-point 32 :   0.4286 0.3571 0.0000  plane waves:    1451
 k-point 33 :   0.5000 0.3571 0.0000  plane waves:    1450
 k-point 34 :   0.4286 0.4286 0.0000  plane waves:    1452
 k-point 35 :   0.5000 0.4286 0.0000  plane waves:    1462
 k-point 36 :   0.5000 0.5000 0.0000  plane waves:    1452
 k-point 37 :   0.0714 0.0714 0.0714  plane waves:    1424
 k-point 38 :   0.1429 0.0714 0.0714  plane waves:    1441
 k-point 39 :   0.2143 0.0714 0.0714  plane waves:    1437
 k-point 40 :   0.2857 0.0714 0.0714  plane waves:    1449
 k-point 41 :   0.3571 0.0714 0.0714  plane waves:    1457
 k-point 42 :   0.4286 0.0714 0.0714  plane waves:    1450
 k-point 43 :   0.5000 0.0714 0.0714  plane waves:    1448
 k-point 44 :   0.1429 0.1429 0.0714  plane waves:    1439
 k-point 45 :   0.2143 0.1429 0.0714  plane waves:    1434
 k-point 46 :   0.2857 0.1429 0.0714  plane waves:    1442
 k-point 47 :   0.3571 0.1429 0.0714  plane waves:    1453
 k-point 48 :   0.4286 0.1429 0.0714  plane waves:    1449
 k-point 49 :   0.5000 0.1429 0.0714  plane waves:    1452
 k-point 50 :   0.2143 0.2143 0.0714  plane waves:    1444
 k-point 51 :   0.2857 0.2143 0.0714  plane waves:    1443
 k-point 52 :   0.3571 0.2143 0.0714  plane waves:    1455
 k-point 53 :   0.4286 0.2143 0.0714  plane waves:    1455
 k-point 54 :   0.5000 0.2143 0.0714  plane waves:    1458
 k-point 55 :   0.2857 0.2857 0.0714  plane waves:    1450
 k-point 56 :   0.3571 0.2857 0.0714  plane waves:    1447
 k-point 57 :   0.4286 0.2857 0.0714  plane waves:    1458
 k-point 58 :   0.5000 0.2857 0.0714  plane waves:    1454
 k-point 59 :   0.3571 0.3571 0.0714  plane waves:    1453
 k-point 60 :   0.4286 0.3571 0.0714  plane waves:    1456
 k-point 61 :   0.5000 0.3571 0.0714  plane waves:    1458
 k-point 62 :   0.4286 0.4286 0.0714  plane waves:    1455
 k-point 63 :   0.5000 0.4286 0.0714  plane waves:    1458
 k-point 64 :   0.5000 0.5000 0.0714  plane waves:    1452
 k-point 65 :   0.1429 0.1429 0.1429  plane waves:    1445
 k-point 66 :   0.2143 0.1429 0.1429  plane waves:    1448
 k-point 67 :   0.2857 0.1429 0.1429  plane waves:    1449
 k-point 68 :   0.3571 0.1429 0.1429  plane waves:    1454
 k-point 69 :   0.4286 0.1429 0.1429  plane waves:    1449
 k-point 70 :   0.5000 0.1429 0.1429  plane waves:    1452
 k-point 71 :   0.2143 0.2143 0.1429  plane waves:    1449
 k-point 72 :   0.2857 0.2143 0.1429  plane waves:    1448
 k-point 73 :   0.3571 0.2143 0.1429  plane waves:    1454
 k-point 74 :   0.4286 0.2143 0.1429  plane waves:    1457
 k-point 75 :   0.5000 0.2143 0.1429  plane waves:    1462
 k-point 76 :   0.2857 0.2857 0.1429  plane waves:    1457
 k-point 77 :   0.3571 0.2857 0.1429  plane waves:    1453
 k-point 78 :   0.4286 0.2857 0.1429  plane waves:    1455
 k-point 79 :   0.5000 0.2857 0.1429  plane waves:    1456
 k-point 80 :   0.3571 0.3571 0.1429  plane waves:    1453
 k-point 81 :   0.4286 0.3571 0.1429  plane waves:    1460
 k-point 82 :   0.5000 0.3571 0.1429  plane waves:    1460
 k-point 83 :   0.4286 0.4286 0.1429  plane waves:    1452
 k-point 84 :   0.5000 0.4286 0.1429  plane waves:    1452
 k-point 85 :   0.5000 0.5000 0.1429  plane waves:    1452
 k-point 86 :   0.2143 0.2143 0.2143  plane waves:    1457
 k-point 87 :   0.2857 0.2143 0.2143  plane waves:    1456
 k-point 88 :   0.3571 0.2143 0.2143  plane waves:    1444
 k-point 89 :   0.4286 0.2143 0.2143  plane waves:    1456
 k-point 90 :   0.5000 0.2143 0.2143  plane waves:    1456
 k-point 91 :   0.2857 0.2857 0.2143  plane waves:    1446
 k-point 92 :   0.3571 0.2857 0.2143  plane waves:    1454
 k-point 93 :   0.4286 0.2857 0.2143  plane waves:    1462
 k-point 94 :   0.5000 0.2857 0.2143  plane waves:    1464
 k-point 95 :   0.3571 0.3571 0.2143  plane waves:    1461
 k-point 96 :   0.4286 0.3571 0.2143  plane waves:    1460
 k-point 97 :   0.5000 0.3571 0.2143  plane waves:    1466
 k-point 98 :   0.4286 0.4286 0.2143  plane waves:    1461
 k-point 99 :   0.5000 0.4286 0.2143  plane waves:    1450
 k-point ** :   0.5000 0.5000 0.2143  plane waves:    1444
 k-point ** :   0.2857 0.2857 0.2857  plane waves:    1451
 k-point ** :   0.3571 0.2857 0.2857  plane waves:    1456
 k-point ** :   0.4286 0.2857 0.2857  plane waves:    1461
 k-point ** :   0.5000 0.2857 0.2857  plane waves:    1464
 k-point ** :   0.3571 0.3571 0.2857  plane waves:    1451
 k-point ** :   0.4286 0.3571 0.2857  plane waves:    1458
 k-point ** :   0.5000 0.3571 0.2857  plane waves:    1460
 k-point ** :   0.4286 0.4286 0.2857  plane waves:    1457
 k-point ** :   0.5000 0.4286 0.2857  plane waves:    1450
 k-point ** :   0.5000 0.5000 0.2857  plane waves:    1452
 k-point ** :   0.3571 0.3571 0.3571  plane waves:    1457
 k-point ** :   0.4286 0.3571 0.3571  plane waves:    1455
 k-point ** :   0.5000 0.3571 0.3571  plane waves:    1442
 k-point ** :   0.4286 0.4286 0.3571  plane waves:    1454
 k-point ** :   0.5000 0.4286 0.3571  plane waves:    1454
 k-point ** :   0.5000 0.5000 0.3571  plane waves:    1448
 k-point ** :   0.4286 0.4286 0.4286  plane waves:    1448
 k-point ** :   0.5000 0.4286 0.4286  plane waves:    1452
 k-point ** :   0.5000 0.5000 0.4286  plane waves:    1456
 k-point ** :   0.5000 0.5000 0.5000  plane waves:    1472

 maximum and minimum number of plane-waves per node :       392      331

 maximum number of plane-waves:      1472
 maximum index in each direction: 
   IXMAX=    7   IYMAX=    7   IZMAX=    7
   IXMIN=   -7   IYMIN=   -7   IZMIN=   -7


 real space projection operators:
  total allocation   :       2196.28 KBytes
  max/ min on nodes  :        551.81        546.33


 parallel 3D FFT for wavefunctions:
    minimum data exchange during FFTs selected (reduces bandwidth)
 parallel 3D FFT for charge:
    minimum data exchange during FFTs selected (reduces bandwidth)


 total amount of memory used by VASP MPI-rank0    38585. kBytes
=======================================================================

   base      :      30000. kBytes
   nonlr-proj:        945. kBytes
   fftplans  :        478. kBytes
   grid      :       1141. kBytes
   one-center:         31. kBytes
   wavefun   :       5990. kBytes
 
     INWAV:  cpu time    0.0000: real time    0.0001
 Broyden mixing: mesh for mixing (old mesh)
   NGX = 15   NGY = 15   NGZ = 15
  (NGX  = 56   NGY  = 56   NGZ  = 56)
  gives a total of   3375 points

 initial charge density was supplied:
 charge density of overlapping atoms calculated
 number of electron      28.0000000 magnetization      10.0000000
 keeping initial charge density in first step


--------------------------------------------------------------------------------------------------------


 Maximum index for non-local projection operator         1966
 Maximum index for augmentation-charges         1986 (set IRDMAX)


--------------------------------------------------------------------------------------------------------


 First call to EWALD:  gamma=   0.624
 Maximum number of real-space cells 3x 3x 3
 Maximum number of reciprocal cells 3x 3x 3

    FEWALD:  cpu time    0.0013: real time    0.0013


--------------------------------------- Iteration      1(   1)  ---------------------------------------


    POTLOK:  cpu time    0.0127: real time    0.0128
    SETDIJ:  cpu time    0.0069: real time    0.0070
     EDDAV:  cpu time    1.7582: real time    1.7630
 BZINTS: Fermi energy: 22.241793; 28.000000 electrons
         Band energy: -56.009547;  BLOECHL correction: -0.156342
       DOS:  cpu time    0.1135: real time    0.1138
    --------------------------------------------
      LOOP:  cpu time    1.8913: real time    1.8966

 eigenvalue-minimisations  : 11652
 total energy-change (2. order) : 0.2664190E+03  (-0.2415738E+04)
 number of electron      28.0000000 magnetization      10.0000000
 augmentation part       28.0000000 magnetization      10.0000000

 Free energy of the ion-electron system (eV)
  ---------------------------------------------------
  alpha Z        PSCENC =       218.87048721
  Ewald energy   TEWEN  =     -3616.56080017
  -Hartree energ DENC   =     -1162.86386254
  -exchange      EXHF   =         0.00000000
  -V(xc)+E(xc)   XCENC  =       147.54621443
  PAW double counting   =      3997.93860218    -4177.34792201
  entropy T*S    EENTRO =         0.00000000
  eigenvalues    EBANDS =       -56.00954706
  atomic energy  EATOM  =      4914.84579160
  Solvation  Ediel_sol  =         0.00000000
  ---------------------------------------------------
  free energy    TOTEN  =       266.41896364 eV

  energy without entropy =      266.41896364  energy(sigma->0) =      266.41896364


--------------------------------------------------------------------------------------------------------




--------------------------------------- Iteration      1(   2)  ---------------------------------------


     EDDAV:  cpu time    1.7619: real time    1.7710
 BZINTS: Fermi energy: 12.229813; 28.000000 electrons
         Band energy:-330.689706;  BLOECHL correction: -0.040452
       DOS:  cpu time    0.1113: real time    0.1116
    --------------------------------------------
      LOOP:  cpu time    1.8732: real time    1.8825

 eigenvalue-minimisations  : 11736
 total energy-change (2. order) :-0.2746802E+03  (-0.2633901E+03)
 number of electron      28.0000000 magnetization      10.0000000
 augmentation part       28.0000000 magnetization      10.0000000

 Free energy of the ion-electron system (eV)
  ---------------------------------------------------
  alpha Z        PSCENC =       218.87048721
  Ewald energy   TEWEN  =     -3616.56080017
  -Hartree energ DENC   =     -1162.86386254
  -exchange      EXHF   =         0.00000000
  -V(xc)+E(xc)   XCENC  =       147.54621443
  PAW double counting   =      3997.93860218    -4177.34792201
  entropy T*S    EENTRO =         0.00000000
  eigenvalues    EBANDS =      -330.68970615
  atomic energy  EATOM  =      4914.84579160
  Solvation  Ediel_sol  =         0.00000000
  ---------------------------------------------------
  free energy    TOTEN  =        -8.26119545 eV

  energy without entropy =       -8.26119545  energy(sigma->0) =       -8.26119545


--------------------------------------------------------------------------------------------------------




--------------------------------------- Iteration      1(   3)  ---------------------------------------


     EDDAV:  cpu time    1.8614: real time    1.8660
 BZINTS: Fermi energy: 12.030385; 28.000000 electrons
         Band energy:-338.630125;  BLOECHL correction: -0.041417
       DOS:  cpu time    0.1072: real time    0.1074
    --------------------------------------------
      LOOP:  cpu time    1.9686: real time    1.9735

 eigenvalue-minimisations  : 12576
 total energy-change (2. order) :-0.7940419E+01  (-0.7922457E+01)
 number of electron      28.0000000 magnetization      10.0000000
 augmentation part       28.0000000 magnetization      10.0000000

 Free energy of the ion-electron system (eV)
  ---------------------------------------------------
  alpha Z        PSCENC =       218.87048721
  Ewald energy   TEWEN  =     -3616.56080017
  -Hartree energ DENC   =     -1162.86386254
  -exchange      EXHF   =         0.00000000
  -V(xc)+E(xc)   XCENC  =       147.54621443
  PAW double counting   =      3997.93860218    -4177.34792201
  entropy T*S    EENTRO =         0.00000000
  eigenvalues    EBANDS =      -338.63012547
  atomic energy  EATOM  =      4914.84579160
  Solvation  Ediel_sol  =         0.00000000
  ---------------------------------------------------
  free energy    TOTEN  =       -16.20161477 eV

  energy without entropy =      -16.20161477  energy(sigma->0) =      -16.20161477


--------------------------------------------------------------------------------------------------------




--------------------------------------- Iteration      1(   4)  ---------------------------------------


     EDDAV:  cpu time    1.9771: real time    1.9819
 BZINTS: Fermi energy: 12.029766; 28.000000 electrons
         Band energy:-338.700272;  BLOECHL correction: -0.041418
       DOS:  cpu time    0.1064: real time    0.1066
    --------------------------------------------
      LOOP:  cpu time    2.0835: real time    2.0885

 eigenvalue-minimisations  : 13308
 total energy-change (2. order) :-0.7014630E-01  (-0.7014656E-01)
 number of electron      28.0000000 magnetization      10.0000000
 augmentation part       28.0000000 magnetization      10.0000000

 Free energy of the ion-electron system (eV)
  ---------------------------------------------------
  alpha Z        PSCENC =       218.87048721
  Ewald energy   TEWEN  =     -3616.56080017
  -Hartree energ DENC   =     -1162.86386254
  -exchange      EXHF   =         0.00000000
  -V(xc)+E(xc)   XCENC  =       147.54621443
  PAW double counting   =      3997.93860218    -4177.34792201
  entropy T*S    EENTRO =         0.00000000
  eigenvalues    EBANDS =      -338.70027177
  atomic energy  EATOM  =      4914.84579160
  Solvation  Ediel_sol  =         0.00000000
  ---------------------------------------------------
  free energy    TOTEN  =       -16.27176107 eV

  energy without entropy =      -16.27176107  energy(sigma->0) =      -16.27176107


--------------------------------------------------------------------------------------------------------




--------------------------------------- Iteration      1(   5)  ---------------------------------------


     EDDAV:  cpu time    1.8771: real time    1.8816
 BZINTS: Fermi energy: 12.029764; 28.000000 electrons
         Band energy:-338.701563;  BLOECHL correction: -0.041418
       DOS:  cpu time    0.1063: real time    0.1065
    CHARGE:  cpu time    0.0514: real time    0.0515
    MIXING:  cpu time    0.0006: real time    0.0007
    --------------------------------------------
      LOOP:  cpu time    2.0354: real time    2.0404

 eigenvalue-minimisations  : 12660
 total energy-change (2. order) :-0.1290983E-02  (-0.1290986E-02)
 number of electron      27.9999985 magnetization       4.3908174
 augmentation part       15.9050842 magnetization       2.8552088

 Broyden mixing:
  rms(total) = 0.24931E+01    rms(broyden)= 0.24931E+01
  rms(prec ) = 0.39468E+01
  weight for this iteration     100.00

 Free energy of the ion-electron system (eV)
  ---------------------------------------------------
  alpha Z        PSCENC =       218.87048721
  Ewald energy   TEWEN  =     -3616.56080017
  -Hartree energ DENC   =     -1162.86386254
  -exchange      EXHF   =         0.00000000
  -V(xc)+E(xc)   XCENC  =       147.54621443
  PAW double counting   =      3997.93860218    -4177.34792201
  entropy T*S    EENTRO =         0.00000000
  eigenvalues    EBANDS =      -338.70156275
  atomic energy  EATOM  =      4914.84579160
  Solvation  Ediel_sol  =         0.00000000
  ---------------------------------------------------
  free energy    TOTEN  =       -16.27305206 eV

  energy without entropy =      -16.27305206  energy(sigma->0) =      -16.27305206


--------------------------------------------------------------------------------------------------------




--------------------------------------- Iteration      1(   6)  ---------------------------------------


    POTLOK:  cpu time    0.0105: real time    0.0106
    SETDIJ:  cpu time    0.0054: real time    0.0054
     EDDAV:  cpu time    1.7404: real time    1.7445
 BZINTS: Fermi energy:  9.262039; 28.000000 electrons
         Band energy:-409.563291;  BLOECHL correction: -0.025455
       DOS:  cpu time    0.1064: real time    0.1066
    CHARGE:  cpu time    0.0511: real time    0.0512
    MIXING:  cpu time    0.0006: real time    0.0006
    --------------------------------------------
      LOOP:  cpu time    1.9143: real time    1.9190

 eigenvalue-minimisations  : 11688
 total energy-change (2. order) :-0.1894623E+00  (-0.7461427E+00)
 number of electron      27.9999984 magnetization       4.5594806
 augmentation part       17.0690019 magnetization       3.5627023

 Broyden mixing:
  rms(total) = 0.68721E+00    rms(broyden)= 0.68721E+00
  rms(prec ) = 0.86420E+00
  weight for this iteration     100.00

 eigenvalues of (default mixing * dielectric matrix)
  average eigenvalue GAMMA=   0.8386
  0.8386

 Free energy of the ion-electron system (eV)
  ---------------------------------------------------
  alpha Z        PSCENC =       218.87048721
  Ewald energy   TEWEN  =     -3616.56080017
  -Hartree energ DENC   =     -1089.11064992
  -exchange      EXHF   =         0.00000000
  -V(xc)+E(xc)   XCENC  =       140.65342337
  PAW double counting   =      4114.42012099    -4290.01759686
  entropy T*S    EENTRO =         0.00000000
  eigenvalues    EBANDS =      -409.56329058
  atomic energy  EATOM  =      4914.84579160
  Solvation  Ediel_sol  =         0.00000000
  ---------------------------------------------------
  free energy    TOTEN  =       -16.46251436 eV

  energy without entropy =      -16.46251436  energy(sigma->0) =      -16.46251436


--------------------------------------------------------------------------------------------------------




--------------------------------------- Iteration      1(   7)  ---------------------------------------


    POTLOK:  cpu time    0.0105: real time    0.0108
    SETDIJ:  cpu time    0.0054: real time    0.0054
     EDDAV:  cpu time    1.7487: real time    1.7529
 BZINTS: Fermi energy:  9.765006; 28.000000 electrons
         Band energy:-395.127472;  BLOECHL correction: -0.024560
       DOS:  cpu time    0.1002: real time    0.1004
    CHARGE:  cpu time    0.0508: real time    0.0509
    MIXING:  cpu time    0.0004: real time    0.0004
    --------------------------------------------
      LOOP:  cpu time    1.9161: real time    1.9209

 eigenvalue-minimisations  : 11796
 total energy-change (2. order) :-0.5235863E-01  (-0.6029705E-01)
 number of electron      27.9999985 magnetization       4.4588382
 augmentation part       16.7781844 magnetization       3.5354410

 Broyden mixing:
  rms(total) = 0.43107E+00    rms(broyden)= 0.43107E+00
  rms(prec ) = 0.52266E+00
  weight for this iteration     100.00

 eigenvalues of (default mixing * dielectric matrix)
  average eigenvalue GAMMA=   0.7679
  0.9911  0.5448

 Free energy of the ion-electron system (eV)
  ---------------------------------------------------
  alpha Z        PSCENC =       218.87048721
  Ewald energy   TEWEN  =     -3616.56080017
  -Hartree energ DENC   =     -1099.14502121
  -exchange      EXHF   =         0.00000000
  -V(xc)+E(xc)   XCENC  =       141.34357260
  PAW double counting   =      4220.68073277    -4401.42216356
  entropy T*S    EENTRO =         0.00000000
  eigenvalues    EBANDS =      -395.12747223
  atomic energy  EATOM  =      4914.84579160
  Solvation  Ediel_sol  =         0.00000000
  ---------------------------------------------------
  free energy    TOTEN  =       -16.51487298 eV

  energy without entropy =      -16.51487298  energy(sigma->0) =      -16.51487298


--------------------------------------------------------------------------------------------------------




--------------------------------------- Iteration      1(   8)  ---------------------------------------


    POTLOK:  cpu time    0.0103: real time    0.0105
    SETDIJ:  cpu time    0.0053: real time    0.0053
     EDDAV:  cpu time    1.8632: real time    1.8676
 BZINTS: Fermi energy:  9.695251; 28.000000 electrons
         Band energy:-397.283759;  BLOECHL correction: -0.024792
       DOS:  cpu time    0.1059: real time    0.1062
    CHARGE:  cpu time    0.0507: real time    0.0508
    MIXING:  cpu time    0.0004: real time    0.0004
    --------------------------------------------
      LOOP:  cpu time    2.0359: real time    2.0409

 eigenvalue-minimisations  : 12612
 total energy-change (2. order) :-0.1061580E-01  (-0.1469160E-02)
 number of electron      27.9999985 magnetization       4.3797352
 augmentation part       16.8119926 magnetization       3.4570053

 Broyden mixing:
  rms(total) = 0.13722E+00    rms(broyden)= 0.13722E+00
  rms(prec ) = 0.21426E+00
  weight for this iteration     100.00

 eigenvalues of (default mixing * dielectric matrix)
  average eigenvalue GAMMA=   1.0479
  1.6988  0.8574  0.5875

 Free energy of the ion-electron system (eV)
  ---------------------------------------------------
  alpha Z        PSCENC =       218.87048721
  Ewald energy   TEWEN  =     -3616.56080017
  -Hartree energ DENC   =     -1095.34685081
  -exchange      EXHF   =         0.00000000
  -V(xc)+E(xc)   XCENC  =       141.12018207
  PAW double counting   =      4268.73994237    -4450.91048191
  entropy T*S    EENTRO =         0.00000000
  eigenvalues    EBANDS =      -397.28375914
  atomic energy  EATOM  =      4914.84579160
  Solvation  Ediel_sol  =         0.00000000
  ---------------------------------------------------
  free energy    TOTEN  =       -16.52548878 eV

  energy without entropy =      -16.52548878  energy(sigma->0) =      -16.52548878


--------------------------------------------------------------------------------------------------------




--------------------------------------- Iteration      1(   9)  ---------------------------------------


    POTLOK:  cpu time    0.0104: real time    0.0105
    SETDIJ:  cpu time    0.0053: real time    0.0053
     EDDAV:  cpu time    1.8475: real time    1.8519
 BZINTS: Fermi energy:  9.617795; 28.000000 electrons
         Band energy:-399.546468;  BLOECHL correction: -0.025118
       DOS:  cpu time    0.1059: real time    0.1061
    CHARGE:  cpu time    0.0509: real time    0.0510
    MIXING:  cpu time    0.0004: real time    0.0004
    --------------------------------------------
      LOOP:  cpu time    2.0203: real time    2.0252

 eigenvalue-minimisations  : 12516
 total energy-change (2. order) : 0.8227419E-02  (-0.4970777E-03)
 number of electron      27.9999985 magnetization       4.4182219
 augmentation part       16.8472457 magnetization       3.4933008

 Broyden mixing:
  rms(total) = 0.34206E-01    rms(broyden)= 0.34206E-01
  rms(prec ) = 0.45915E-01
  weight for this iteration     100.00

 eigenvalues of (default mixing * dielectric matrix)
  average eigenvalue GAMMA=   1.1939
  2.3602  1.0725  0.6976  0.6454

 Free energy of the ion-electron system (eV)
  ---------------------------------------------------
  alpha Z        PSCENC =       218.87048721
  Ewald energy   TEWEN  =     -3616.56080017
  -Hartree energ DENC   =     -1090.51465907
  -exchange      EXHF   =         0.00000000
  -V(xc)+E(xc)   XCENC  =       140.87878325
  PAW double counting   =      4344.53025846    -4529.02065442
  entropy T*S    EENTRO =         0.00000000
  eigenvalues    EBANDS =      -399.54646823
  atomic energy  EATOM  =      4914.84579160
  Solvation  Ediel_sol  =         0.00000000
  ---------------------------------------------------
  free energy    TOTEN  =       -16.51726136 eV

  energy without entropy =      -16.51726136  energy(sigma->0) =      -16.51726136


--------------------------------------------------------------------------------------------------------




--------------------------------------- Iteration      1(  10)  ---------------------------------------


    POTLOK:  cpu time    0.0104: real time    0.0105
    SETDIJ:  cpu time    0.0052: real time    0.0053
     EDDAV:  cpu time    1.7799: real time    1.7842
 BZINTS: Fermi energy:  9.630501; 28.000000 electrons
         Band energy:-399.050341;  BLOECHL correction: -0.025158
       DOS:  cpu time    0.1032: real time    0.1034
    CHARGE:  cpu time    0.0514: real time    0.0515
    MIXING:  cpu time    0.0005: real time    0.0005
    --------------------------------------------
      LOOP:  cpu time    1.9506: real time    1.9553

 eigenvalue-minimisations  : 11952
 total energy-change (2. order) : 0.3063500E-03  (-0.2157257E-03)
 number of electron      27.9999985 magnetization       4.4207612
 augmentation part       16.8361606 magnetization       3.4926113

 Broyden mixing:
  rms(total) = 0.44482E-02    rms(broyden)= 0.44482E-02
  rms(prec ) = 0.54625E-02
  weight for this iteration     100.00

 eigenvalues of (default mixing * dielectric matrix)
  average eigenvalue GAMMA=   1.1348
  2.4381  1.1097  0.7954  0.6947  0.6358

 Free energy of the ion-electron system (eV)
  ---------------------------------------------------
  alpha Z        PSCENC =       218.87048721
  Ewald energy   TEWEN  =     -3616.56080017
  -Hartree energ DENC   =     -1090.06572615
  -exchange      EXHF   =         0.00000000
  -V(xc)+E(xc)   XCENC  =       140.88580066
  PAW double counting   =      4374.27106489    -4559.71323193
  entropy T*S    EENTRO =         0.00000000
  eigenvalues    EBANDS =      -399.05034113
  atomic energy  EATOM  =      4914.84579160
  Solvation  Ediel_sol  =         0.00000000
  ---------------------------------------------------
  free energy    TOTEN  =       -16.51695501 eV

  energy without entropy =      -16.51695501  energy(sigma->0) =      -16.51695501


--------------------------------------------------------------------------------------------------------




--------------------------------------- Iteration      1(  11)  ---------------------------------------


    POTLOK:  cpu time    0.0110: real time    0.0112
    SETDIJ:  cpu time    0.0053: real time    0.0054
     EDDAV:  cpu time    1.8389: real time    1.8432
 BZINTS: Fermi energy:  9.629170; 28.000000 electrons
         Band energy:-399.081201;  BLOECHL correction: -0.025159
       DOS:  cpu time    0.0975: real time    0.0977
    CHARGE:  cpu time    0.0504: real time    0.0506
    MIXING:  cpu time    0.0005: real time    0.0005
    --------------------------------------------
      LOOP:  cpu time    2.0036: real time    2.0086

 eigenvalue-minimisations  : 12372
 total energy-change (2. order) :-0.4436611E-04  (-0.5483075E-05)
 number of electron      27.9999985 magnetization       4.4191427
 augmentation part       16.8367003 magnetization       3.4913822

 Broyden mixing:
  rms(total) = 0.25312E-02    rms(broyden)= 0.25312E-02
  rms(prec ) = 0.34113E-02
  weight for this iteration     100.00

 eigenvalues of (default mixing * dielectric matrix)
  average eigenvalue GAMMA=   1.2988
  2.3062  2.3062  1.0869  0.6328  0.7604  0.7002

 Free energy of the ion-electron system (eV)
  ---------------------------------------------------
  alpha Z        PSCENC =       218.87048721
  Ewald energy   TEWEN  =     -3616.56080017
  -Hartree energ DENC   =     -1090.07201284
  -exchange      EXHF   =         0.00000000
  -V(xc)+E(xc)   XCENC  =       140.88752788
  PAW double counting   =      4375.04850045    -4560.45529271
  entropy T*S    EENTRO =         0.00000000
  eigenvalues    EBANDS =      -399.08120081
  atomic energy  EATOM  =      4914.84579160
  Solvation  Ediel_sol  =         0.00000000
  ---------------------------------------------------
  free energy    TOTEN  =       -16.51699938 eV

  energy without entropy =      -16.51699938  energy(sigma->0) =      -16.51699938


--------------------------------------------------------------------------------------------------------




--------------------------------------- Iteration      1(  12)  ---------------------------------------


    POTLOK:  cpu time    0.0104: real time    0.0105
    SETDIJ:  cpu time    0.0054: real time    0.0054
     EDDAV:  cpu time    1.9697: real time    1.9743
 BZINTS: Fermi energy:  9.627656; 28.000000 electrons
         Band energy:-399.116492;  BLOECHL correction: -0.025159
       DOS:  cpu time    0.0862: real time    0.0864
    CHARGE:  cpu time    0.0505: real time    0.0506
    MIXING:  cpu time    0.0005: real time    0.0005
    --------------------------------------------
      LOOP:  cpu time    2.1226: real time    2.1277

 eigenvalue-minimisations  : 13404
 total energy-change (2. order) : 0.2047582E-05  (-0.5129627E-06)
 number of electron      27.9999985 magnetization       4.4194636
 augmentation part       16.8374131 magnetization       3.4920929

 Broyden mixing:
  rms(total) = 0.10916E-02    rms(broyden)= 0.10916E-02
  rms(prec ) = 0.14127E-02
  weight for this iteration     100.00

 eigenvalues of (default mixing * dielectric matrix)
  average eigenvalue GAMMA=   1.2535
  2.4156  2.4156  1.0919  0.8358  0.7243  0.6338  0.6572

 Free energy of the ion-electron system (eV)
  ---------------------------------------------------
  alpha Z        PSCENC =       218.87048721
  Ewald energy   TEWEN  =     -3616.56080017
  -Hartree energ DENC   =     -1090.13146413
  -exchange      EXHF   =         0.00000000
  -V(xc)+E(xc)   XCENC  =       140.89028935
  PAW double counting   =      4375.96129073    -4561.27609948
  entropy T*S    EENTRO =         0.00000000
  eigenvalues    EBANDS =      -399.11649244
  atomic energy  EATOM  =      4914.84579160
  Solvation  Ediel_sol  =         0.00000000
  ---------------------------------------------------
  free energy    TOTEN  =       -16.51699733 eV

  energy without entropy =      -16.51699733  energy(sigma->0) =      -16.51699733


--------------------------------------------------------------------------------------------------------




--------------------------------------- Iteration      1(  13)  ---------------------------------------


    POTLOK:  cpu time    0.0104: real time    0.0105
    SETDIJ:  cpu time    0.0054: real time    0.0055
     EDDAV:  cpu time    1.7867: real time    1.7909
 BZINTS: Fermi energy:  9.628297; 28.000000 electrons
         Band energy:-399.102393;  BLOECHL correction: -0.025160
       DOS:  cpu time    0.1059: real time    0.1062
    CHARGE:  cpu time    0.0630: real time    0.0632
    MIXING:  cpu time    0.0005: real time    0.0005
    --------------------------------------------
      LOOP:  cpu time    1.9719: real time    1.9767

 eigenvalue-minimisations  : 12060
 total energy-change (2. order) :-0.1188060E-05  (-0.1509616E-06)
 number of electron      27.9999985 magnetization       4.4194278
 augmentation part       16.8370805 magnetization       3.4918707

 Broyden mixing:
  rms(total) = 0.28515E-03    rms(broyden)= 0.28515E-03
  rms(prec ) = 0.33351E-03
  weight for this iteration     100.00

 eigenvalues of (default mixing * dielectric matrix)
  average eigenvalue GAMMA=   1.2824
  2.5421  2.3930  1.4270  1.0724  0.8106  0.6263  0.6941  0.6941

 Free energy of the ion-electron system (eV)
  ---------------------------------------------------
  alpha Z        PSCENC =       218.87048721
  Ewald energy   TEWEN  =     -3616.56080017
  -Hartree energ DENC   =     -1090.13385946
  -exchange      EXHF   =         0.00000000
  -V(xc)+E(xc)   XCENC  =       140.89013996
[...]
     19      18.4411      0.00000
     20      20.2184      0.00000
     21      20.4762      0.00000
     22      22.0755      0.00000
     23      22.9598      0.00000
     24      24.7825      0.00000

 k-point   115 :       0.5000    0.4286    0.3571
  band No.  band energies     occupation 
      1     -41.9697      1.00000
      2     -41.9697      1.00000
      3     -41.8571      1.00000
      4     -41.8571      1.00000
      5     -41.7628      1.00000
      6     -41.7628      1.00000
      7       7.4698      1.00000
      8       7.4698      1.00000
      9       7.8336      1.00000
     10       7.8336      1.00000
     11       8.2022      1.00000
     12       8.2022      1.00000
     13      11.4611      0.00000
     14      11.4611      0.00000
     15      11.5456      0.00000
     16      11.5456      0.00000
     17      16.2310      0.00000
     18      16.2310      0.00000
     19      19.1364      0.00000
     20      19.1364      0.00000
     21      21.2794      0.00000
     22      21.2794      0.00000
     23      23.5907      0.00000
     24      23.5907      0.00000

 k-point   116 :       0.5000    0.5000    0.3571
  band No.  band energies     occupation 
      1     -41.9646      1.00000
      2     -41.9646      1.00000
      3     -41.8549      1.00000
      4     -41.8549      1.00000
      5     -41.7731      1.00000
      6     -41.7731      1.00000
      7       7.4803      1.00000
      8       7.4803      1.00000
      9       7.7940      1.00000
     10       7.7940      1.00000
     11       8.2690      1.00000
     12       8.2690      1.00000
     13      11.4773      0.00000
     14      11.4773      0.00000
     15      11.5589      0.00000
     16      11.5589      0.00000
     17      16.5971      0.00000
     18      16.5971      0.00000
     19      18.6470      0.00000
     20      18.6470      0.00000
     21      21.8928      0.00000
     22      21.8928      0.00000
     23      22.7146      0.00000
     24      22.7146      0.00000

 k-point   117 :       0.4286    0.4286    0.4286
  band No.  band energies     occupation 
      1     -41.9566      1.00000
      2     -41.9134      1.00000
      3     -41.9134      1.00000
      4     -41.8166      1.00000
      5     -41.8166      1.00000
      6     -41.7733      1.00000
      7       7.5864      1.00000
      8       7.8147      1.00000
      9       7.8147      1.00000
     10       7.8403      1.00000
     11       8.0019      1.00000
     12       8.0019      1.00000
     13      11.5223      0.00000
     14      11.5223      0.00000
     15      11.5303      0.00000
     16      11.5303      0.00000
     17      16.3162      0.00000
     18      18.0515      0.00000
     19      18.0515      0.00000
     20      19.9941      0.00000
     21      20.6811      0.00000
     22      20.6811      0.00000
     23      21.9173      0.00000
     24      23.4052      0.00000

 k-point   118 :       0.5000    0.4286    0.4286
  band No.  band energies     occupation 
      1     -41.9343      1.00000
      2     -41.9343      1.00000
      3     -41.8648      1.00000
      4     -41.8648      1.00000
      5     -41.7988      1.00000
      6     -41.7988      1.00000
      7       7.6776      1.00000
      8       7.6776      1.00000
      9       7.8704      1.00000
     10       7.8704      1.00000
     11       8.0124      1.00000
     12       8.0124      1.00000
     13      11.5272      0.00000
     14      11.5272      0.00000
     15      11.5534      0.00000
     16      11.5534      0.00000
     17      17.2057      0.00000
     18      17.2057      0.00000
     19      19.3361      0.00000
     20      19.3361      0.00000
     21      20.3555      0.00000
     22      20.3555      0.00000
     23      22.2766      0.00000
     24      22.2766      0.00000

 k-point   119 :       0.5000    0.5000    0.4286
  band No.  band energies     occupation 
      1     -41.9172      1.00000
      2     -41.9172      1.00000
      3     -41.8645      1.00000
      4     -41.8645      1.00000
      5     -41.8190      1.00000
      6     -41.8190      1.00000
      7       7.7650      1.00000
      8       7.7650      1.00000
      9       7.7981      1.00000
     10       7.7981      1.00000
     11       8.0244      1.00000
     12       8.0244      1.00000
     13      11.5430      0.00000
     14      11.5430      0.00000
     15      11.5654      0.00000
     16      11.5654      0.00000
     17      17.8334      0.00000
     18      17.8334      0.00000
     19      18.9375      0.00000
     20      18.9375      0.00000
     21      20.4922      0.00000
     22      20.4922      0.00000
     23      21.5403      0.00000
     24      21.5403      0.00000

 k-point   120 :       0.5000    0.5000    0.5000
  band No.  band energies     occupation 
      1     -41.8679      1.00000
      2     -41.8679      1.00000
      3     -41.8679      1.00000
      4     -41.8679      1.00000
      5     -41.8679      1.00000
      6     -41.8679      1.00000
      7       7.8702      1.00000
      8       7.8702      1.00000
      9       7.8702      1.00000
     10       7.8702      1.00000
     11       7.8702      1.00000
     12       7.8702      1.00000
     13      11.5677      0.00000
     14      11.5677      0.00000
     15      11.5677      0.00000
     16      11.5677      0.00000
     17      19.1351      0.00000
     18      19.1351      0.00000
     19      19.1351      0.00000
     20      19.1351      0.00000
     21      19.1351      0.00000
     22      19.1351      0.00000
     23      21.0333      0.00000
     24      21.0333      0.00000


--------------------------------------------------------------------------------------------------------


 soft charge-density along one line, spin component           1
         0         1         2         3         4         5         6         7         8         9
 total charge-density along one line
 
 soft charge-density along one line, spin component           2
         0         1         2         3         4         5         6         7         8         9
 total charge-density along one line
 
 pseudopotential strength for first ion, spin component:           1
-44.853   0.000   0.000   7.568  -0.000  -0.000  -0.000  -0.000
  0.000 -44.853   0.000  -0.000   7.568  -0.000   0.000  -0.000
  0.000   0.000 -44.853  -0.000  -0.000   7.568  -0.000   0.000
  7.568  -0.000  -0.000   5.638  -0.000  -0.000   0.000   0.000
 -0.000   7.568  -0.000  -0.000   5.638  -0.000  -0.000   0.000
 -0.000  -0.000   7.568  -0.000  -0.000   5.638   0.000  -0.000
 -0.000   0.000  -0.000   0.000  -0.000   0.000  -1.978   0.000
 -0.000  -0.000   0.000   0.000   0.000  -0.000   0.000  -1.978
  0.000  -0.000   0.000  -0.000   0.000   0.000  -0.000   0.000
  0.000  -0.000  -0.000  -0.000   0.000   0.000   0.000   0.000
  0.000  -0.000  -0.000  -0.000   0.000   0.000  -0.000  -0.000
 -0.000   0.000  -0.000   0.000  -0.000   0.000  -2.493   0.000
 -0.000  -0.000   0.000   0.000   0.000  -0.000   0.000  -2.493
  0.000  -0.000   0.000  -0.000   0.000  -0.000  -0.000   0.000
  0.000  -0.000  -0.000  -0.000   0.000   0.000   0.000   0.000
  0.000  -0.000  -0.000  -0.000   0.000  -0.000  -0.000  -0.000
  0.000   0.000  -0.000   0.000   0.000   0.000  -0.000  -0.000
  0.000   0.000   0.000   0.000   0.000   0.000  -0.000  -0.000
 pseudopotential strength for first ion, spin component:           2
-42.877   0.000   0.000   6.733  -0.000  -0.000  -0.000  -0.000
  0.000 -42.877  -0.000  -0.000   6.733   0.000  -0.000  -0.000
  0.000  -0.000 -42.877  -0.000   0.000   6.733  -0.000  -0.000
  6.733  -0.000  -0.000   5.867  -0.000  -0.000   0.000   0.000
 -0.000   6.733   0.000  -0.000   5.867   0.000   0.000   0.000
 -0.000   0.000   6.733  -0.000   0.000   5.867   0.000   0.000
 -0.000  -0.000  -0.000   0.000   0.000   0.000  -0.446  -0.000
 -0.000  -0.000  -0.000   0.000   0.000   0.000  -0.000  -0.446
  0.000  -0.000   0.000  -0.000   0.000   0.000  -0.000   0.000
 -0.000  -0.000  -0.000   0.000   0.000   0.000   0.000   0.000
  0.000  -0.000  -0.000  -0.000   0.000   0.000   0.000  -0.000
 -0.000  -0.000  -0.000   0.000   0.000   0.000  -0.986  -0.000
 -0.000  -0.000  -0.000   0.000   0.000   0.000  -0.000  -0.986
  0.000  -0.000   0.000  -0.000   0.000  -0.000  -0.000   0.000
 -0.000  -0.000  -0.000   0.000   0.000   0.000   0.000   0.000
  0.000  -0.000  -0.000  -0.000   0.000  -0.000   0.000  -0.000
  0.000   0.000   0.000   0.000   0.000   0.000  -0.000  -0.000
  0.000   0.000   0.000   0.000   0.000   0.000  -0.000  -0.000
 total augmentation occupancy for first ion, spin component:           1
  1.992   0.000   0.000  -0.026  -0.000   0.000   0.000   0.000   0.000   0.000  -0.000   0.000   0.000   0.000   0.000  -0.000
  0.000   1.992   0.000   0.000  -0.026   0.000   0.000   0.000   0.000   0.000   0.000   0.000   0.000   0.000   0.000   0.000
  0.000   0.000   1.992  -0.000  -0.000  -0.026   0.000   0.000   0.000   0.000  -0.000   0.000   0.000   0.000   0.000   0.000
 -0.026  -0.000  -0.000   0.201   0.000   0.000   0.000   0.000   0.000   0.000   0.000   0.000   0.000   0.000  -0.000   0.000
  0.000  -0.026   0.000   0.000   0.201  -0.000   0.000  -0.000   0.000   0.000   0.000   0.000   0.000   0.000   0.000   0.000
  0.000  -0.000  -0.026   0.000  -0.000   0.201   0.000  -0.000   0.000   0.000   0.000   0.000   0.000   0.000   0.000   0.000
  0.000   0.000   0.000  -0.000   0.000   0.000   2.192   0.000   0.000  -0.000   0.000  -1.239   0.000   0.000  -0.000  -0.000
  0.000   0.000   0.000   0.000   0.000  -0.000   0.000   2.192   0.000  -0.000   0.000  -0.000  -1.239   0.000  -0.000  -0.000
  0.000   0.000  -0.000   0.000   0.000   0.000   0.000   0.000   3.382   0.000  -0.000   0.000  -0.000  -2.168  -0.000   0.000
  0.000   0.000   0.000   0.000   0.000   0.000  -0.000  -0.000   0.000   2.192   0.000  -0.000   0.000   0.000  -1.239  -0.000
  0.000   0.000  -0.000   0.000   0.000   0.000   0.000  -0.000  -0.000   0.000   3.382   0.000   0.000  -0.000   0.000  -2.168
  0.000   0.000   0.000   0.000   0.000   0.000  -1.239  -0.000  -0.000   0.000   0.000   1.664  -0.000   0.000  -0.000   0.000
  0.000   0.000   0.000   0.000   0.000   0.000   0.000  -1.239  -0.000   0.000  -0.000   0.000   1.664  -0.000  -0.000  -0.000
  0.000   0.000  -0.000   0.000   0.000   0.000  -0.000   0.000  -2.168   0.000   0.000  -0.000   0.000   2.215   0.000   0.000
  0.000   0.000   0.000  -0.000   0.000   0.000   0.000   0.000  -0.000  -1.239   0.000  -0.000   0.000  -0.000   1.664   0.000
  0.000   0.000   0.000   0.000   0.000   0.000   0.000  -0.000   0.000  -0.000  -2.168   0.000   0.000   0.000   0.000   2.215
 -0.000   0.000   0.000   0.000   0.000   0.000   0.000  -0.000  -0.000   0.000   0.000   0.000   0.000   0.000   0.000  -0.000
  0.000   0.000   0.000   0.000   0.000   0.000  -0.000   0.000   0.000   0.000  -0.000   0.000   0.000   0.000  -0.000   0.000
 total augmentation occupancy for first ion, spin component:           2
 -0.002   0.000   0.000  -0.009   0.000  -0.000   0.000   0.000   0.000   0.000   0.000   0.000   0.000   0.000   0.000   0.000
  0.000  -0.002   0.000  -0.000  -0.009  -0.000  -0.000   0.000   0.000   0.000   0.000   0.000   0.000   0.000   0.000   0.000
  0.000   0.000  -0.002   0.000   0.000  -0.009   0.000  -0.000   0.000   0.000   0.000   0.000   0.000   0.000   0.000   0.000
 -0.009  -0.000   0.000  -0.019   0.000   0.000   0.000   0.000  -0.000   0.000   0.000   0.000   0.000   0.000   0.000   0.000
  0.000  -0.009  -0.000   0.000  -0.019  -0.000   0.000   0.000   0.000  -0.000   0.000   0.000   0.000   0.000   0.000   0.000
 -0.000   0.000  -0.009  -0.000   0.000  -0.019   0.000   0.000   0.000   0.000  -0.000   0.000   0.000   0.000   0.000   0.000
  0.000  -0.000   0.000   0.000   0.000  -0.000   1.781   0.000   0.000  -0.000   0.000  -0.674   0.000  -0.000   0.000   0.000
  0.000   0.000  -0.000   0.000   0.000   0.000   0.000   1.781  -0.000  -0.000   0.000  -0.000  -0.674   0.000   0.000  -0.000
  0.000   0.000   0.000   0.000   0.000   0.000   0.000  -0.000   2.794  -0.000  -0.000  -0.000  -0.000  -1.144  -0.000   0.000
  0.000   0.000   0.000   0.000   0.000   0.000  -0.000  -0.000   0.000   1.781   0.000  -0.000   0.000   0.000  -0.674  -0.000
  0.000   0.000  -0.000   0.000   0.000   0.000   0.000   0.000   0.000   0.000   2.794   0.000  -0.000   0.000   0.000  -1.144
  0.000   0.000   0.000   0.000   0.000   0.000  -0.674  -0.000  -0.000   0.000  -0.000   0.001  -0.000  -0.000  -0.000  -0.000
  0.000   0.000   0.000   0.000   0.000   0.000   0.000  -0.674  -0.000   0.000  -0.000   0.000   0.001  -0.000  -0.000  -0.000
  0.000   0.000  -0.000   0.000   0.000  -0.000  -0.000   0.000  -1.144   0.000   0.000  -0.000   0.000   0.226  -0.000  -0.000
  0.000   0.000   0.000   0.000   0.000   0.000   0.000  -0.000  -0.000  -0.674   0.000  -0.000  -0.000  -0.000   0.001  -0.000
  0.000   0.000   0.000   0.000   0.000   0.000   0.000   0.000   0.000  -0.000  -1.144   0.000   0.000   0.000   0.000   0.226
  0.000   0.000  -0.000   0.000   0.000   0.000  -0.000  -0.000  -0.000   0.000  -0.000   0.000   0.000  -0.000  -0.000  -0.000
  0.000   0.000   0.000   0.000   0.000   0.000   0.000   0.000  -0.000   0.000   0.000  -0.000   0.000   0.000  -0.000   0.000


------------------------ aborting loop because EDIFF is reached ----------------------------------------


 


 total charge     
 
# of ion       s       p       d       tot
------------------------------------------
    1        0.384   6.377   6.076  12.838
    2        0.384   6.377   6.077  12.838
--------------------------------------------------
tot          0.769  12.754  12.153  25.676
 


 magnetization (x)
 
# of ion       s       p       d       tot
------------------------------------------
    1       -0.008  -0.040   2.297   2.248
    2       -0.008  -0.040   2.297   2.248
--------------------------------------------------
tot         -0.016  -0.080   4.593   4.497
 
    CHARGE:  cpu time    0.0510: real time    0.0511
    FORLOC:  cpu time    0.0002: real time    0.0002
    FORNL :  cpu time    0.3510: real time    0.3519
    STRESS:  cpu time    1.0521: real time    1.0547
    FORCOR:  cpu time    0.0098: real time    0.0099
    FORHAR:  cpu time    0.0011: real time    0.0011
    MIXING:  cpu time    0.0006: real time    0.0006
    OFIELD:  cpu time    0.0000: real time    0.0000

  FORCE on cell =-STRESS in cart. coord.  units (eV):
  Direction    XX          YY          ZZ          XY          YZ          ZX
  --------------------------------------------------------------------------------------
  Alpha Z   218.87049   218.87049   218.87049
  Ewald   -1205.52018 -1205.52018 -1205.52018    -0.00000    -0.00000    -0.00000
  Hartree   363.37823   363.37823   363.37823    -0.00000    -0.00000    -0.00000
  E(xc)    -179.79489  -179.79489  -179.79489     0.00000     0.00000     0.00000
  Local     289.67085   289.67085   289.67085    -0.00000    -0.00000    -0.00000
  n-local   -60.33263   -54.13492   -50.48444     2.68679    -1.45521     0.56947
  augment   285.36118   285.36118   285.36118     0.00000     0.00000     0.00000
  Kinetic   283.89553   282.60133   281.92469     2.96253    -0.71497     0.04227
  Fock        0.00000     0.00000     0.00000     0.00000     0.00000     0.00000
  -------------------------------------------------------------------------------------
  Total      -0.21113    -0.21113    -0.21113     0.00000     0.00000    -0.00000
  in kB     -14.76647   -14.76647   -14.76647     0.00000     0.00000    -0.00000
  external pressure =      -14.77 kB  Pullay stress =        0.00 kB


 VOLUME and BASIS-vectors are now :
 -----------------------------------------------------------------------------
  energy-cutoff  :      920.00
  volume of cell :       22.91
      direct lattice vectors                 reciprocal lattice vectors
     2.840052000  0.000000000  0.000000000     0.352106229  0.000000000  0.000000000
     0.000000000  2.840052000  0.000000000     0.000000000  0.352106229  0.000000000
     0.000000000  0.000000000  2.840052000     0.000000000  0.000000000  0.352106229

  length of vectors
     2.840052000  2.840052000  2.840052000     0.352106229  0.352106229  0.352106229


 FORCES acting on ions
    electron-ion (+dipol)            ewald-force                    non-local-force                 convergence-correction
 -----------------------------------------------------------------------------------------------
   -.801E-14 -.243E-13 -.482E-13   -.529E-15 -.103E-14 -.897E-14   0.000E+00 0.000E+00 0.000E+00   -.410E-13 -.116E-14 0.959E-14
   0.815E-12 0.747E-11 0.865E-11   0.472E-14 0.447E-14 0.926E-14   0.162E-26 0.000E+00 0.000E+00   -.368E-13 -.421E-14 -.117E-12
 -----------------------------------------------------------------------------------------------
   0.807E-12 0.745E-11 0.861E-11   0.419E-14 0.343E-14 0.284E-15   0.162E-26 0.000E+00 0.000E+00   -.777E-13 -.538E-14 -.107E-12
 
 
 POSITION                                       TOTAL-FORCE (eV/Angst)
 -----------------------------------------------------------------------------------
      0.00000      0.00000      0.00000        -0.000000      0.000000     -0.000000
      1.42003      1.42003      1.42003         0.000000     -0.000000      0.000000
 -----------------------------------------------------------------------------------
    total drift:                                0.000000      0.000000      0.000000


--------------------------------------------------------------------------------------------------------



  FREE ENERGIE OF THE ION-ELECTRON SYSTEM (eV)
  ---------------------------------------------------
  free  energy   TOTEN  =       -16.51699941 eV

  energy  without entropy=      -16.51699941  energy(sigma->0) =      -16.51699941
 


--------------------------------------------------------------------------------------------------------


    POTLOK:  cpu time    0.0157: real time    0.0158


--------------------------------------------------------------------------------------------------------


     LOOP+:  cpu time   30.1342: real time   30.2141
    4ORBIT:  cpu time    0.0000: real time    0.0000
 


 total charge     
 
# of ion       s       p       d       tot
------------------------------------------
    1        0.384   6.377   6.076  12.838
    2        0.384   6.377   6.077  12.838
--------------------------------------------------
tot          0.769  12.754  12.153  25.676
 


 magnetization (x)
 
# of ion       s       p       d       tot
------------------------------------------
    1       -0.008  -0.040   2.297   2.248
    2       -0.008  -0.040   2.297   2.248
--------------------------------------------------
tot         -0.016  -0.080   4.593   4.497
 
 BZINTS: Fermi energy:  9.628473; 28.000000 electrons
         Band energy:-399.099160;  BLOECHL correction: -0.025161

 total amount of memory used by VASP MPI-rank0    38585. kBytes
=======================================================================

   base      :      30000. kBytes
   nonlr-proj:        945. kBytes
   fftplans  :        478. kBytes
   grid      :       1141. kBytes
   one-center:         31. kBytes
   wavefun   :       5990. kBytes
 
  
  
 General timing and accounting informations for this job:
 ========================================================
  
                  Total CPU time used (sec):       31.729
                            User time (sec):       31.377
                          System time (sec):        0.352
                         Elapsed time (sec):       31.816
  
                   Maximum memory used (kb):       65028.
                   Average memory used (kb):           0.
  
                          Minor page faults:        20829
                          Major page faults:            0
                 Voluntary context switches:          204
