<?xml version="1.0" encoding="ISO-8859-1"?>
<modeling>
 <generator>
  <i name="program" type="string">vasp </i>
  <i name="version" type="string">5.4.4.18Apr17-6-g9f103f2a35  </i>
  <i name="subversion" type="string">(build Apr 28 2018 00:24:27) complex            parallel </i>
  <i name="platform" type="string">LinuxIFC </i>
  <i name="date" type="string">2021 09 07 </i>
  <i name="time" type="string">01:12:42 </i>
 </generator>
 <incar>
  <i type="string" name="PREC">accurate</i>
  <i type="string" name="ALGO"> Normal</i>
  <i type="int" name="ISPIN">     2</i>
  <i type="int" name="NELM">   100</i>
  <i type="int" name="IBRION">    -1</i>
  <i name="EDIFF">      0.00000010</i>
  <i type="int" name="NSW">     0</i>
  <i type="int" name="ISIF">     3</i>
  <i name="ENCUT">    920.00000000</i>
  <v name="MAGMOM">      5.00000000      5.00000000</v>
  <i type="string" name="LREAL"> Auto</i>
  <i type="int" name="ISMEAR">    -5</i>
  <i name="SIGMA">      0.05000000</i>
  <i type="logical" name="LWAVE"> F  </i>
  <i type="logical" name="LCHARG"> F  </i>
  <i type="logical" name="LVHAR"> F  </i>
  <i type="int" name="LORBIT">    11</i>
  <i type="logical" name="LASPH"> F  </i>
  <i type="logical" name="LAECHG"> F  </i>
  <v type="int" name="KPOINT_BSE">    -1     0     0     0</v>
  <i type="int" name="NELM">   100</i>
  <i type="logical" name="LASPH"> F  </i>
  <i type="int" name="LMAXTAU">     0</i>
 </incar>
 <structure name="primitive_cell" >
  <crystal>
   <varray name="basis" >
    <v>       1.42002600       1.42002600       1.42002600 </v>
    <v>       1.42002600      -1.42002600      -1.42002600 </v>
    <v>      -1.42002600       1.42002600      -1.42002600 </v>
   </varray>
   <i name="volume">     11.45378113 </i>
   <varray name="rec_basis" >
    <v>       0.35210623       0.35210623       0.00000000 </v>
    <v>       0.35210623       0.00000000      -0.35210623 </v>
    <v>       0.00000000       0.35210623      -0.35210623 </v>
   </varray>
  </crystal>
  <varray name="positions" >
   <v>       0.00000000       0.00000000       0.00000000 </v>
  </varray>
 </structure>
 <varray name="primitive_index" >
  <v type="int" >        1 </v>
 </varray>
 <kpoints>
  <generation param="Auto">
   <i name="subdivisionlength">     40.00000000 </i>
   <v type="int" name="divisions">      14       14       14 </v>
   <v name="usershift">      0.00000000       0.00000000       0.00000000 </v>
   <v name="genvec1">      0.07142857       0.00000000       0.00000000 </v>
   <v name="genvec2">      0.00000000       0.07142857       0.00000000 </v>
   <v name="genvec3">      0.00000000       0.00000000       0.07142857 </v>
   <v name="shift">      0.00000000       0.00000000       0.00000000 </v>
  </generation>
  <varray name="kpointlist" >
   <v>       0.00000000       0.00000000       0.00000000 </v>
   <v>       0.07142857       0.00000000       0.00000000 </v>
   <v>       0.14285714       0.00000000       0.00000000 </v>
   <v>       0.21428571       0.00000000       0.00000000 </v>
   <v>       0.28571429       0.00000000       0.00000000 </v>
   <v>       0.35714286       0.00000000       0.00000000 </v>
   <v>       0.42857143       0.00000000       0.00000000 </v>
   <v>       0.50000000       0.00000000       0.00000000 </v>
   <v>       0.07142857       0.07142857       0.00000000 </v>
   <v>       0.14285714       0.07142857       0.00000000 </v>
   <v>       0.21428571       0.07142857       0.00000000 </v>
   <v>       0.28571429       0.07142857       0.00000000 </v>
   <v>       0.35714286       0.07142857       0.00000000 </v>
   <v>       0.42857143       0.07142857       0.00000000 </v>
   <v>       0.50000000       0.07142857       0.00000000 </v>
   <v>       0.14285714       0.14285714       0.00000000 </v>
   <v>       0.21428571       0.14285714       0.00000000 </v>
   <v>       0.28571429       0.14285714       0.00000000 </v>
   <v>       0.35714286       0.14285714       0.00000000 </v>
   <v>       0.42857143       0.14285714       0.00000000 </v>
   <v>       0.50000000       0.14285714       0.00000000 </v>
   <v>       0.21428571       0.21428571       0.00000000 </v>
   <v>       0.28571429       0.21428571       0.00000000 </v>
   <v>       0.35714286       0.21428571       0.00000000 </v>
   <v>       0.42857143       0.21428571       0.00000000 </v>
   <v>       0.50000000       0.21428571       0.00000000 </v>
   <v>       0.28571429       0.28571429       0.00000000 </v>
   <v>       0.35714286       0.28571429       0.00000000 </v>
   <v>       0.42857143       0.28571429       0.00000000 </v>
   <v>       0.50000000       0.28571429       0.00000000 </v>
   <v>       0.35714286       0.35714286       0.00000000 </v>
   <v>       0.42857143       0.35714286       0.00000000 </v>
   <v>       0.50000000       0.35714286       0.00000000 </v>
   <v>       0.42857143       0.42857143       0.00000000 </v>
   <v>       0.50000000       0.42857143       0.00000000 </v>
   <v>       0.50000000       0.50000000       0.00000000 </v>
   <v>       0.07142857       0.07142857       0.07142857 </v>
   <v>       0.14285714       0.07142857       0.07142857 </v>
   <v>       0.21428571       0.07142857       0.07142857 </v>
   <v>       0.28571429       0.07142857       0.07142857 </v>
   <v>       0.35714286       0.07142857       0.07142857 </v>
   <v>       0.42857143       0.07142857       0.07142857 </v>
   <v>       0.50000000       0.07142857       0.07142857 </v>
   <v>       0.14285714       0.14285714       0.07142857 </v>
   <v>       0.21428571       0.14285714       0.07142857 </v>
   <v>       0.28571429       0.14285714       0.07142857 </v>
   <v>       0.35714286       0.14285714       0.07142857 </v>
   <v>       0.42857143       0.14285714       0.07142857 </v>
   <v>       0.50000000       0.14285714       0.07142857 </v>
   <v>       0.21428571       0.21428571       0.07142857 </v>
   <v>       0.28571429       0.21428571       0.07142857 </v>
   <v>       0.35714286       0.21428571       0.07142857 </v>
   <v>       0.42857143       0.21428571       0.07142857 </v>
   <v>       0.50000000       0.21428571       0.07142857 </v>
   <v>       0.28571429       0.28571429       0.07142857 </v>
   <v>       0.35714286       0.28571429       0.07142857 </v>
   <v>       0.42857143       0.28571429       0.07142857 </v>
   <v>       0.50000000       0.28571429       0.07142857 </v>
   <v>       0.35714286       0.35714286       0.07142857 </v>
   <v>       0.42857143       0.35714286       0.07142857 </v>
   <v>       0.50000000       0.35714286       0.07142857 </v>
   <v>       0.42857143       0.42857143       0.07142857 </v>
   <v>       0.50000000       0.42857143       0.07142857 </v>
   <v>       0.50000000       0.50000000       0.07142857 </v>
   <v>       0.14285714       0.14285714       0.14285714 </v>
   <v>       0.21428571       0.14285714       0.14285714 </v>
   <v>       0.28571429       0.14285714       0.14285714 </v>
   <v>       0.35714286       0.14285714       0.14285714 </v>
   <v>       0.42857143       0.14285714       0.14285714 </v>
   <v>       0.50000000       0.14285714       0.14285714 </v>
   <v>       0.21428571       0.21428571       0.14285714 </v>
   <v>       0.28571429       0.21428571       0.14285714 </v>
   <v>       0.35714286       0.21428571       0.14285714 </v>
   <v>       0.42857143       0.21428571       0.14285714 </v>
   <v>       0.50000000       0.21428571       0.14285714 </v>
   <v>       0.28571429       0.28571429       0.14285714 </v>
   <v>       0.35714286       0.28571429       0.14285714 </v>
   <v>       0.42857143       0.28571429       0.14285714 </v>
   <v>       0.50000000       0.28571429       0.14285714 </v>
   <v>       0.35714286       0.35714286       0.14285714 </v>
   <v>       0.42857143       0.35714286       0.14285714 </v>
   <v>       0.50000000       0.35714286       0.14285714 </v>
   <v>       0.42857143       0.42857143       0.14285714 </v>
   <v>       0.50000000       0.42857143       0.14285714 </v>
   <v>       0.50000000       0.50000000       0.14285714 </v>
   <v>       0.21428571       0.21428571       0.21428571 </v>
   <v>       0.28571429       0.21428571       0.21428571 </v>
   <v>       0.35714286       0.21428571       0.21428571 </v>
   <v>       0.42857143       0.21428571       0.21428571 </v>
   <v>       0.50000000       0.21428571       0.21428571 </v>
   <v>       0.28571429       0.28571429       0.21428571 </v>
   <v>       0.35714286       0.28571429       0.21428571 </v>
   <v>       0.42857143       0.28571429       0.21428571 </v>
   <v>       0.50000000       0.28571429       0.21428571 </v>
   <v>       0.35714286       0.35714286       0.21428571 </v>
   <v>       0.42857143       0.35714286       0.21428571 </v>
   <v>       0.50000000       0.35714286       0.21428571 </v>
   <v>       0.42857143       0.42857143       0.21428571 </v>
   <v>       0.50000000       0.42857143       0.21428571 </v>
   <v>       0.50000000       0.50000000       0.21428571 </v>
   <v>       0.28571429       0.28571429       0.28571429 </v>
   <v>       0.35714286       0.28571429       0.28571429 </v>
   <v>       0.42857143       0.28571429       0.28571429 </v>
   <v>       0.50000000       0.28571429       0.28571429 </v>
   <v>       0.35714286       0.35714286       0.28571429 </v>
   <v>       0.42857143       0.35714286       0.28571429 </v>
   <v>       0.50000000       0.35714286       0.28571429 </v>
   <v>       0.42857143       0.42857143       0.28571429 </v>
   <v>       0.50000000       0.42857143       0.28571429 </v>
   <v>       0.50000000       0.50000000       0.28571429 </v>
   <v>       0.35714286       0.35714286       0.35714286 </v>
   <v>       0.42857143       0.35714286       0.35714286 </v>
   <v>       0.50000000       0.35714286       0.35714286 </v>
   <v>       0.42857143       0.42857143       0.35714286 </v>
   <v>       0.50000000       0.42857143       0.35714286 </v>
   <v>       0.50000000       0.50000000       0.35714286 </v>
   <v>       0.42857143       0.42857143       0.42857143 </v>
   <v>       0.50000000       0.42857143       0.42857143 </v>
   <v>       0.50000000       0.50000000       0.42857143 </v>
   <v>       0.50000000       0.50000000       0.50000000 </v>
  </varray>
  <varray name="weights" >
   <v>       0.00036443 </v>
   <v>       0.00218659 </v>
   <v>       0.00218659 </v>
   <v>       0.00218659 </v>
   <v>       0.00218659 </v>
   <v>       0.00218659 </v>
   <v>       0.00218659 </v>
   <v>       0.00109329 </v>
   <v>       0.00437318 </v>
   <v>       0.00874636 </v>
   <v>       0.00874636 </v>
   <v>       0.00874636 </v>
   <v>       0.00874636 </v>
   <v>       0.00874636 </v>
   <v>       0.00437318 </v>
   <v>       0.00437318 </v>
   <v>       0.00874636 </v>
   <v>       0.00874636 </v>
   <v>       0.00874636 </v>
   <v>       0.00874636 </v>
   <v>       0.00437318 </v>
   <v>       0.00437318 </v>
   <v>       0.00874636 </v>
   <v>       0.00874636 </v>
   <v>       0.00874636 </v>
   <v>       0.00437318 </v>
   <v>       0.00437318 </v>
   <v>       0.00874636 </v>
   <v>       0.00874636 </v>
   <v>       0.00437318 </v>
   <v>       0.00437318 </v>
   <v>       0.00874636 </v>
   <v>       0.00437318 </v>
   <v>       0.00437318 </v>
   <v>       0.00437318 </v>
   <v>       0.00109329 </v>
   <v>       0.00291545 </v>
   <v>       0.00874636 </v>
   <v>       0.00874636 </v>
   <v>       0.00874636 </v>
   <v>       0.00874636 </v>
   <v>       0.00874636 </v>
   <v>       0.00437318 </v>
   <v>       0.00874636 </v>
   <v>       0.01749271 </v>
   <v>       0.01749271 </v>
   <v>       0.01749271 </v>
   <v>       0.01749271 </v>
   <v>       0.00874636 </v>
   <v>       0.00874636 </v>
   <v>       0.01749271 </v>
   <v>       0.01749271 </v>
   <v>       0.01749271 </v>
   <v>       0.00874636 </v>
   <v>       0.00874636 </v>
   <v>       0.01749271 </v>
   <v>       0.01749271 </v>
   <v>       0.00874636 </v>
   <v>       0.00874636 </v>
   <v>       0.01749271 </v>
   <v>       0.00874636 </v>
   <v>       0.00874636 </v>
   <v>       0.00874636 </v>
   <v>       0.00218659 </v>
   <v>       0.00291545 </v>
   <v>       0.00874636 </v>
   <v>       0.00874636 </v>
   <v>       0.00874636 </v>
   <v>       0.00874636 </v>
   <v>       0.00437318 </v>
   <v>       0.00874636 </v>
   <v>       0.01749271 </v>
   <v>       0.01749271 </v>
   <v>       0.01749271 </v>
   <v>       0.00874636 </v>
   <v>       0.00874636 </v>
   <v>       0.01749271 </v>
   <v>       0.01749271 </v>
   <v>       0.00874636 </v>
   <v>       0.00874636 </v>
   <v>       0.01749271 </v>
   <v>       0.00874636 </v>
   <v>       0.00874636 </v>
   <v>       0.00874636 </v>
   <v>       0.00218659 </v>
   <v>       0.00291545 </v>
   <v>       0.00874636 </v>
   <v>       0.00874636 </v>
   <v>       0.00874636 </v>
   <v>       0.00437318 </v>
   <v>       0.00874636 </v>
   <v>       0.01749271 </v>
   <v>       0.01749271 </v>
   <v>       0.00874636 </v>
   <v>       0.00874636 </v>
   <v>       0.01749271 </v>
   <v>       0.00874636 </v>
   <v>       0.00874636 </v>
   <v>       0.00874636 </v>
   <v>       0.00218659 </v>
   <v>       0.00291545 </v>
   <v>       0.00874636 </v>
   <v>       0.00874636 </v>
   <v>       0.00437318 </v>
   <v>       0.00874636 </v>
   <v>       0.01749271 </v>
   <v>       0.00874636 </v>
   <v>       0.00874636 </v>
   <v>       0.00874636 </v>
   <v>       0.00218659 </v>
   <v>       0.00291545 </v>
   <v>       0.00874636 </v>
   <v>       0.00437318 </v>
   <v>       0.00874636 </v>
   <v>       0.00874636 </v>
   <v>       0.00218659 </v>
   <v>       0.00291545 </v>
   <v>       0.00437318 </v>
   <v>       0.00218659 </v>
   <v>       0.00036443 </v>
  </varray>
  <varray name="tetrahedronlist"  type="int" >
   <v type="int" >       12        1        2        2        9 </v>
   <v type="int" >       12        2        2        9        9 </v>
   <v type="int" >       12        2        9        9       37 </v>
   <v type="int" >       12        2        3        9       10 </v>
   <v type="int" >       12        2        9        9       10 </v>
   <v type="int" >       12        9        9       10       37 </v>
   <v type="int" >       12        3        9       10       10 </v>
   <v type="int" >       24        9       10       10       38 </v>
   <v type="int" >       24        9       10       37       38 </v>
   <v type="int" >       12        3        4       10       11 </v>
   <v type="int" >       12        3       10       10       11 </v>
   <v type="int" >       12       10       10       11       38 </v>
   <v type="int" >       12        4       10       11       11 </v>
   <v type="int" >       12       10       11       11       39 </v>
   <v type="int" >       12       10       11       38       39 </v>
   <v type="int" >       12        4        5       11       12 </v>
   <v type="int" >       12        4       11       11       12 </v>
   <v type="int" >       12       11       11       12       39 </v>
   <v type="int" >       12        5       11       12       12 </v>
   <v type="int" >       12       11       12       12       40 </v>
   <v type="int" >       12       11       12       39       40 </v>
   <v type="int" >       12        5        6       12       13 </v>
   <v type="int" >       12        5       12       12       13 </v>
   <v type="int" >       12       12       12       13       40 </v>
   <v type="int" >       12        6       12       13       13 </v>
   <v type="int" >       12       12       13       13       41 </v>
   <v type="int" >       12       12       13       40       41 </v>
   <v type="int" >       12        6        7       13       14 </v>
   <v type="int" >       12        6       13       13       14 </v>
   <v type="int" >       12       13       13       14       41 </v>
   <v type="int" >       12        7       13       14       14 </v>
   <v type="int" >       12       13       14       14       42 </v>
   <v type="int" >       12       13       14       41       42 </v>
   <v type="int" >       12        7        8       14       15 </v>
   <v type="int" >       12        7       14       14       15 </v>
   <v type="int" >       12       14       14       15       42 </v>
   <v type="int" >       12        8       14       15       15 </v>
   <v type="int" >       12       14       15       15       43 </v>
   <v type="int" >       12       14       15       42       43 </v>
   <v type="int" >       12        9       10       16       37 </v>
   <v type="int" >       12       10       16       37       38 </v>
   <v type="int" >       12       16       37       38       44 </v>
   <v type="int" >       12       10       11       17       38 </v>
   <v type="int" >       12       10       16       17       38 </v>
   <v type="int" >       12       16       17       38       44 </v>
   <v type="int" >       12       11       17       38       39 </v>
   <v type="int" >       12       17       38       39       45 </v>
   <v type="int" >       12       17       38       44       45 </v>
   <v type="int" >       12       11       12       18       39 </v>
   <v type="int" >       12       11       17       18       39 </v>
   <v type="int" >       12       17       18       39       45 </v>
   <v type="int" >       12       12       18       39       40 </v>
   <v type="int" >       12       18       39       40       46 </v>
   <v type="int" >       12       18       39       45       46 </v>
   <v type="int" >       12       12       13       19       40 </v>
   <v type="int" >       12       12       18       19       40 </v>
   <v type="int" >       12       18       19       40       46 </v>
   <v type="int" >       12       13       19       40       41 </v>
   <v type="int" >       12       19       40       41       47 </v>
   <v type="int" >       12       19       40       46       47 </v>
   <v type="int" >       12       13       14       20       41 </v>
   <v type="int" >       12       13       19       20       41 </v>
   <v type="int" >       12       19       20       41       47 </v>
   <v type="int" >       12       14       20       41       42 </v>
   <v type="int" >       12       20       41       42       48 </v>
   <v type="int" >       12       20       41       47       48 </v>
   <v type="int" >       12       14       15       21       42 </v>
   <v type="int" >       12       14       20       21       42 </v>
   <v type="int" >       12       20       21       42       48 </v>
   <v type="int" >       12       15       21       42       43 </v>
   <v type="int" >       12       21       42       43       49 </v>
   <v type="int" >       12       21       42       48       49 </v>
   <v type="int" >       12       14       15       20       43 </v>
   <v type="int" >       12       15       20       21       43 </v>
   <v type="int" >       12       20       21       43       49 </v>
   <v type="int" >       12       14       20       42       43 </v>
   <v type="int" >       12       20       42       43       48 </v>
   <v type="int" >       12       20       43       48       49 </v>
   <v type="int" >       12       13       14       19       42 </v>
   <v type="int" >       12       14       19       20       42 </v>
   <v type="int" >       12       19       20       42       48 </v>
   <v type="int" >       12       13       19       41       42 </v>
   <v type="int" >       12       19       41       42       47 </v>
   <v type="int" >       12       19       42       47       48 </v>
   <v type="int" >       12       12       13       18       41 </v>
   <v type="int" >       12       13       18       19       41 </v>
   <v type="int" >       12       18       19       41       47 </v>
   <v type="int" >       12       12       18       40       41 </v>
   <v type="int" >       12       18       40       41       46 </v>
   <v type="int" >       12       18       41       46       47 </v>
   <v type="int" >       12       11       12       17       40 </v>
   <v type="int" >       12       12       17       18       40 </v>
   <v type="int" >       12       17       18       40       46 </v>
   <v type="int" >       12       11       17       39       40 </v>
   <v type="int" >       12       17       39       40       45 </v>
   <v type="int" >       12       17       40       45       46 </v>
   <v type="int" >       12       10       11       16       39 </v>
   <v type="int" >       12       11       16       17       39 </v>
   <v type="int" >       12       16       17       39       45 </v>
   <v type="int" >       12       10       16       38       39 </v>
   <v type="int" >       12       16       38       39       44 </v>
   <v type="int" >       12       16       39       44       45 </v>
   <v type="int" >       12       10       10       16       38 </v>
   <v type="int" >       12       10       16       38       44 </v>
   <v type="int" >       12       10       37       38       38 </v>
   <v type="int" >       12       10       38       38       44 </v>
   <v type="int" >       12        2        3        9       37 </v>
   <v type="int" >       12        3        9       10       37 </v>
   <v type="int" >       12        3       10       37       38 </v>
   <v type="int" >       12       16       17       22       44 </v>
   <v type="int" >       12       17       22       44       45 </v>
   <v type="int" >       12       22       44       45       50 </v>
   <v type="int" >       12       17       18       23       45 </v>
   <v type="int" >       12       17       22       23       45 </v>
   <v type="int" >       12       22       23       45       50 </v>
   <v type="int" >       12       18       23       45       46 </v>
   <v type="int" >       12       23       45       46       51 </v>
   <v type="int" >       12       23       45       50       51 </v>
   <v type="int" >       12       18       19       24       46 </v>
   <v type="int" >       12       18       23       24       46 </v>
   <v type="int" >       12       23       24       46       51 </v>
   <v type="int" >       12       19       24       46       47 </v>
   <v type="int" >       12       24       46       47       52 </v>
   <v type="int" >       12       24       46       51       52 </v>
   <v type="int" >       12       19       20       25       47 </v>
   <v type="int" >       12       19       24       25       47 </v>
   <v type="int" >       12       24       25       47       52 </v>
   <v type="int" >       12       20       25       47       48 </v>
   <v type="int" >       12       25       47       48       53 </v>
   <v type="int" >       12       25       47       52       53 </v>
   <v type="int" >       12       20       21       26       48 </v>
   <v type="int" >       12       20       25       26       48 </v>
   <v type="int" >       12       25       26       48       53 </v>
   <v type="int" >       12       21       26       48       49 </v>
   <v type="int" >       12       26       48       49       54 </v>
   <v type="int" >       12       26       48       53       54 </v>
   <v type="int" >       12       20       21       25       49 </v>
   <v type="int" >       12       21       25       26       49 </v>
   <v type="int" >       12       25       26       49       54 </v>
   <v type="int" >       12       20       25       48       49 </v>
   <v type="int" >       12       25       48       49       53 </v>
   <v type="int" >       12       25       49       53       54 </v>
   <v type="int" >       12       19       20       24       48 </v>
   <v type="int" >       12       20       24       25       48 </v>
   <v type="int" >       12       24       25       48       53 </v>
   <v type="int" >       12       19       24       47       48 </v>
   <v type="int" >       12       24       47       48       52 </v>
   <v type="int" >       12       24       48       52       53 </v>
   <v type="int" >       12       18       19       23       47 </v>
   <v type="int" >       12       19       23       24       47 </v>
   <v type="int" >       12       23       24       47       52 </v>
   <v type="int" >       12       18       23       46       47 </v>
   <v type="int" >       12       23       46       47       51 </v>
   <v type="int" >       12       23       47       51       52 </v>
   <v type="int" >       12       17       18       22       46 </v>
   <v type="int" >       12       18       22       23       46 </v>
   <v type="int" >       12       22       23       46       51 </v>
   <v type="int" >       12       17       22       45       46 </v>
   <v type="int" >       12       22       45       46       50 </v>
   <v type="int" >       12       22       46       50       51 </v>
   <v type="int" >       12       16       17       17       45 </v>
   <v type="int" >       12       17       17       22       45 </v>
   <v type="int" >       12       17       22       45       50 </v>
   <v type="int" >       12       16       17       44       45 </v>
   <v type="int" >       12       17       44       45       45 </v>
   <v type="int" >       12       17       45       45       50 </v>
   <v type="int" >       12       10       11       16       44 </v>
   <v type="int" >       12       11       16       17       44 </v>
   <v type="int" >       12       11       17       44       45 </v>
   <v type="int" >       12       10       11       38       44 </v>
   <v type="int" >       12       11       38       39       44 </v>
   <v type="int" >       12       11       39       44       45 </v>
   <v type="int" >       12        3        4       10       38 </v>
   <v type="int" >       12        4       10       11       38 </v>
   <v type="int" >       12        4       11       38       39 </v>
   <v type="int" >       12       22       23       27       50 </v>
   <v type="int" >       12       23       27       50       51 </v>
   <v type="int" >       12       27       50       51       55 </v>
   <v type="int" >       12       23       24       28       51 </v>
   <v type="int" >       12       23       27       28       51 </v>
   <v type="int" >       12       27       28       51       55 </v>
   <v type="int" >       12       24       28       51       52 </v>
   <v type="int" >       12       28       51       52       56 </v>
   <v type="int" >       12       28       51       55       56 </v>
   <v type="int" >       12       24       25       29       52 </v>
   <v type="int" >       12       24       28       29       52 </v>
   <v type="int" >       12       28       29       52       56 </v>
   <v type="int" >       12       25       29       52       53 </v>
   <v type="int" >       12       29       52       53       57 </v>
   <v type="int" >       12       29       52       56       57 </v>
   <v type="int" >       12       25       26       30       53 </v>
   <v type="int" >       12       25       29       30       53 </v>
   <v type="int" >       12       29       30       53       57 </v>
   <v type="int" >       12       26       30       53       54 </v>
   <v type="int" >       12       30       53       54       58 </v>
   <v type="int" >       12       30       53       57       58 </v>
   <v type="int" >       12       25       26       29       54 </v>
   <v type="int" >       12       26       29       30       54 </v>
   <v type="int" >       12       29       30       54       58 </v>
   <v type="int" >       12       25       29       53       54 </v>
   <v type="int" >       12       29       53       54       57 </v>
   <v type="int" >       12       29       54       57       58 </v>
   <v type="int" >       12       24       25       28       53 </v>
   <v type="int" >       12       25       28       29       53 </v>
   <v type="int" >       12       28       29       53       57 </v>
   <v type="int" >       12       24       28       52       53 </v>
   <v type="int" >       12       28       52       53       56 </v>
   <v type="int" >       12       28       53       56       57 </v>
   <v type="int" >       12       23       24       27       52 </v>
   <v type="int" >       12       24       27       28       52 </v>
   <v type="int" >       12       27       28       52       56 </v>
   <v type="int" >       12       23       27       51       52 </v>
   <v type="int" >       12       27       51       52       55 </v>
   <v type="int" >       12       27       52       55       56 </v>
   <v type="int" >       12       22       23       23       51 </v>
   <v type="int" >       12       23       23       27       51 </v>
   <v type="int" >       12       23       27       51       55 </v>
   <v type="int" >       12       22       23       50       51 </v>
   <v type="int" >       12       23       50       51       51 </v>
   <v type="int" >       12       23       51       51       55 </v>
   <v type="int" >       12       17       18       22       50 </v>
   <v type="int" >       12       18       22       23       50 </v>
   <v type="int" >       12       18       23       50       51 </v>
   <v type="int" >       12       17       18       45       50 </v>
   <v type="int" >       12       18       45       46       50 </v>
   <v type="int" >       12       18       46       50       51 </v>
   <v type="int" >       12       11       12       17       45 </v>
   <v type="int" >       12       12       17       18       45 </v>
   <v type="int" >       12       12       18       45       46 </v>
   <v type="int" >       12       11       12       39       45 </v>
   <v type="int" >       12       12       39       40       45 </v>
   <v type="int" >       12       12       40       45       46 </v>
   <v type="int" >       12        4        5       11       39 </v>
   <v type="int" >       12        5       11       12       39 </v>
   <v type="int" >       12        5       12       39       40 </v>
   <v type="int" >       12       27       28       31       55 </v>
   <v type="int" >       12       28       31       55       56 </v>
   <v type="int" >       12       31       55       56       59 </v>
   <v type="int" >       12       28       29       32       56 </v>
   <v type="int" >       12       28       31       32       56 </v>
   <v type="int" >       12       31       32       56       59 </v>
   <v type="int" >       12       29       32       56       57 </v>
   <v type="int" >       12       32       56       57       60 </v>
   <v type="int" >       12       32       56       59       60 </v>
   <v type="int" >       12       29       30       33       57 </v>
   <v type="int" >       12       29       32       33       57 </v>
   <v type="int" >       12       32       33       57       60 </v>
   <v type="int" >       12       30       33       57       58 </v>
   <v type="int" >       12       33       57       58       61 </v>
   <v type="int" >       12       33       57       60       61 </v>
   <v type="int" >       12       29       30       32       58 </v>
   <v type="int" >       12       30       32       33       58 </v>
   <v type="int" >       12       32       33       58       61 </v>
   <v type="int" >       12       29       32       57       58 </v>
   <v type="int" >       12       32       57       58       60 </v>
   <v type="int" >       12       32       58       60       61 </v>
   <v type="int" >       12       28       29       31       57 </v>
   <v type="int" >       12       29       31       32       57 </v>
   <v type="int" >       12       31       32       57       60 </v>
   <v type="int" >       12       28       31       56       57 </v>
   <v type="int" >       12       31       56       57       59 </v>
   <v type="int" >       12       31       57       59       60 </v>
   <v type="int" >       12       27       28       28       56 </v>
   <v type="int" >       12       28       28       31       56 </v>
   <v type="int" >       12       28       31       56       59 </v>
   <v type="int" >       12       27       28       55       56 </v>
   <v type="int" >       12       28       55       56       56 </v>
   <v type="int" >       12       28       56       56       59 </v>
   <v type="int" >       12       23       24       27       55 </v>
   <v type="int" >       12       24       27       28       55 </v>
   <v type="int" >       12       24       28       55       56 </v>
   <v type="int" >       12       23       24       51       55 </v>
   <v type="int" >       12       24       51       52       55 </v>
   <v type="int" >       12       24       52       55       56 </v>
   <v type="int" >       12       18       19       23       51 </v>
   <v type="int" >       12       19       23       24       51 </v>
   <v type="int" >       12       19       24       51       52 </v>
   <v type="int" >       12       18       19       46       51 </v>
   <v type="int" >       12       19       46       47       51 </v>
   <v type="int" >       12       19       47       51       52 </v>
   <v type="int" >       12       12       13       18       46 </v>
   <v type="int" >       12       13       18       19       46 </v>
   <v type="int" >       12       13       19       46       47 </v>
   <v type="int" >       12       12       13       40       46 </v>
   <v type="int" >       12       13       40       41       46 </v>
   <v type="int" >       12       13       41       46       47 </v>
   <v type="int" >       12        5        6       12       40 </v>
   <v type="int" >       12        6       12       13       40 </v>
   <v type="int" >       12        6       13       40       41 </v>
   <v type="int" >       12       31       32       34       59 </v>
   <v type="int" >       12       32       34       59       60 </v>
   <v type="int" >       12       34       59       60       62 </v>
   <v type="int" >       12       32       33       35       60 </v>
   <v type="int" >       12       32       34       35       60 </v>
   <v type="int" >       12       34       35       60       62 </v>
   <v type="int" >       12       33       35       60       61 </v>
   <v type="int" >       12       35       60       61       63 </v>
   <v type="int" >       12       35       60       62       63 </v>
   <v type="int" >       12       32       33       34       61 </v>
   <v type="int" >       12       33       34       35       61 </v>
   <v type="int" >       12       34       35       61       63 </v>
   <v type="int" >       12       32       34       60       61 </v>
   <v type="int" >       12       34       60       61       62 </v>
   <v type="int" >       12       34       61       62       63 </v>
   <v type="int" >       12       31       32       32       60 </v>
   <v type="int" >       12       32       32       34       60 </v>
   <v type="int" >       12       32       34       60       62 </v>
   <v type="int" >       12       31       32       59       60 </v>
   <v type="int" >       12       32       59       60       60 </v>
   <v type="int" >       12       32       60       60       62 </v>
   <v type="int" >       12       28       29       31       59 </v>
   <v type="int" >       12       29       31       32       59 </v>
   <v type="int" >       12       29       32       59       60 </v>
   <v type="int" >       12       28       29       56       59 </v>
   <v type="int" >       12       29       56       57       59 </v>
   <v type="int" >       12       29       57       59       60 </v>
   <v type="int" >       12       24       25       28       56 </v>
   <v type="int" >       12       25       28       29       56 </v>
   <v type="int" >       12       25       29       56       57 </v>
   <v type="int" >       12       24       25       52       56 </v>
   <v type="int" >       12       25       52       53       56 </v>
   <v type="int" >       12       25       53       56       57 </v>
   <v type="int" >       12       19       20       24       52 </v>
   <v type="int" >       12       20       24       25       52 </v>
   <v type="int" >       12       20       25       52       53 </v>
   <v type="int" >       12       19       20       47       52 </v>
   <v type="int" >       12       20       47       48       52 </v>
   <v type="int" >       12       20       48       52       53 </v>
   <v type="int" >       12       13       14       19       47 </v>
   <v type="int" >       12       14       19       20       47 </v>
   <v type="int" >       12       14       20       47       48 </v>
   <v type="int" >       12       13       14       41       47 </v>
   <v type="int" >       12       14       41       42       47 </v>
   <v type="int" >       12       14       42       47       48 </v>
   <v type="int" >       12        6        7       13       41 </v>
   <v type="int" >       12        7       13       14       41 </v>
   <v type="int" >       12        7       14       41       42 </v>
   <v type="int" >       12       34       35       36       62 </v>
   <v type="int" >       12       35       36       62       63 </v>
   <v type="int" >       12       36       62       63       64 </v>
   <v type="int" >       12       34       35       35       63 </v>
   <v type="int" >       12       35       35       36       63 </v>
   <v type="int" >       12       35       36       63       64 </v>
   <v type="int" >       12       34       35       62       63 </v>
   <v type="int" >       12       35       62       63       63 </v>
   <v type="int" >       12       35       63       63       64 </v>
   <v type="int" >       12       32       33       34       62 </v>
   <v type="int" >       12       33       34       35       62 </v>
   <v type="int" >       12       33       35       62       63 </v>
   <v type="int" >       12       32       33       60       62 </v>
   <v type="int" >       12       33       60       61       62 </v>
   <v type="int" >       12       33       61       62       63 </v>
   <v type="int" >       12       29       30       32       60 </v>
   <v type="int" >       12       30       32       33       60 </v>
   <v type="int" >       12       30       33       60       61 </v>
   <v type="int" >       12       29       30       57       60 </v>
   <v type="int" >       12       30       57       58       60 </v>
   <v type="int" >       12       30       58       60       61 </v>
   <v type="int" >       12       25       26       29       57 </v>
   <v type="int" >       12       26       29       30       57 </v>
   <v type="int" >       12       26       30       57       58 </v>
   <v type="int" >       12       25       26       53       57 </v>
   <v type="int" >       12       26       53       54       57 </v>
   <v type="int" >       12       26       54       57       58 </v>
   <v type="int" >       12       20       21       25       53 </v>
   <v type="int" >       12       21       25       26       53 </v>
   <v type="int" >       12       21       26       53       54 </v>
   <v type="int" >       12       20       21       48       53 </v>
   <v type="int" >       12       21       48       49       53 </v>
   <v type="int" >       12       21       49       53       54 </v>
   <v type="int" >       12       14       15       20       48 </v>
   <v type="int" >       12       15       20       21       48 </v>
   <v type="int" >       12       15       21       48       49 </v>
   <v type="int" >       12       14       15       42       48 </v>
   <v type="int" >       12       15       42       43       48 </v>
   <v type="int" >       12       15       43       48       49 </v>
   <v type="int" >       12        7        8       14       42 </v>
   <v type="int" >       12        8       14       15       42 </v>
   <v type="int" >       12        8       15       42       43 </v>
   <v type="int" >       12       34       35       36       64 </v>
   <v type="int" >       12       34       35       63       64 </v>
   <v type="int" >       12       34       62       63       64 </v>
   <v type="int" >       12       32       33       35       63 </v>
   <v type="int" >       12       32       34       35       63 </v>
   <v type="int" >       12       32       34       62       63 </v>
   <v type="int" >       12       32       33       61       63 </v>
   <v type="int" >       12       32       60       61       63 </v>
   <v type="int" >       12       32       60       62       63 </v>
   <v type="int" >       12       29       30       33       61 </v>
   <v type="int" >       12       29       32       33       61 </v>
   <v type="int" >       12       29       32       60       61 </v>
   <v type="int" >       12       29       30       58       61 </v>
   <v type="int" >       12       29       57       58       61 </v>
   <v type="int" >       12       29       57       60       61 </v>
   <v type="int" >       12       25       26       30       58 </v>
   <v type="int" >       12       25       29       30       58 </v>
   <v type="int" >       12       25       29       57       58 </v>
   <v type="int" >       12       25       26       54       58 </v>
   <v type="int" >       12       25       53       54       58 </v>
   <v type="int" >       12       25       53       57       58 </v>
   <v type="int" >       12       20       21       26       54 </v>
   <v type="int" >       12       20       25       26       54 </v>
   <v type="int" >       12       20       25       53       54 </v>
   <v type="int" >       12       20       21       49       54 </v>
   <v type="int" >       12       20       48       49       54 </v>
   <v type="int" >       12       20       48       53       54 </v>
   <v type="int" >       12       14       15       21       49 </v>
   <v type="int" >       12       14       20       21       49 </v>
   <v type="int" >       12       14       20       48       49 </v>
   <v type="int" >       12       14       15       43       49 </v>
   <v type="int" >       12       14       42       43       49 </v>
   <v type="int" >       12       14       42       48       49 </v>
   <v type="int" >       12        7        8       15       43 </v>
   <v type="int" >       12        7       14       15       43 </v>
   <v type="int" >       12        7       14       42       43 </v>
   <v type="int" >       12       31       32       34       62 </v>
   <v type="int" >       12       31       32       60       62 </v>
   <v type="int" >       12       31       59       60       62 </v>
   <v type="int" >       12       28       29       32       60 </v>
   <v type="int" >       12       28       31       32       60 </v>
   <v type="int" >       12       28       31       59       60 </v>
   <v type="int" >       12       28       29       57       60 </v>
   <v type="int" >       12       28       56       57       60 </v>
   <v type="int" >       12       28       56       59       60 </v>
   <v type="int" >       12       24       25       29       57 </v>
   <v type="int" >       12       24       28       29       57 </v>
   <v type="int" >       12       24       28       56       57 </v>
   <v type="int" >       12       24       25       53       57 </v>
   <v type="int" >       12       24       52       53       57 </v>
   <v type="int" >       12       24       52       56       57 </v>
   <v type="int" >       12       19       20       25       53 </v>
   <v type="int" >       12       19       24       25       53 </v>
   <v type="int" >       12       19       24       52       53 </v>
   <v type="int" >       12       19       20       48       53 </v>
   <v type="int" >       12       19       47       48       53 </v>
   <v type="int" >       12       19       47       52       53 </v>
   <v type="int" >       12       13       14       20       48 </v>
   <v type="int" >       12       13       19       20       48 </v>
   <v type="int" >       12       13       19       47       48 </v>
   <v type="int" >       12       13       14       42       48 </v>
   <v type="int" >       12       13       41       42       48 </v>
   <v type="int" >       12       13       41       47       48 </v>
   <v type="int" >       12        6        7       14       42 </v>
   <v type="int" >       12        6       13       14       42 </v>
   <v type="int" >       12        6       13       41       42 </v>
   <v type="int" >       12       27       28       31       59 </v>
   <v type="int" >       12       27       28       56       59 </v>
   <v type="int" >       12       27       55       56       59 </v>
   <v type="int" >       12       23       24       28       56 </v>
   <v type="int" >       12       23       27       28       56 </v>
   <v type="int" >       12       23       27       55       56 </v>
   <v type="int" >       12       23       24       52       56 </v>
   <v type="int" >       12       23       51       52       56 </v>
   <v type="int" >       12       23       51       55       56 </v>
   <v type="int" >       12       18       19       24       52 </v>
   <v type="int" >       12       18       23       24       52 </v>
   <v type="int" >       12       18       23       51       52 </v>
   <v type="int" >       12       18       19       47       52 </v>
   <v type="int" >       12       18       46       47       52 </v>
   <v type="int" >       12       18       46       51       52 </v>
   <v type="int" >       12       12       13       19       47 </v>
   <v type="int" >       12       12       18       19       47 </v>
   <v type="int" >       12       12       18       46       47 </v>
   <v type="int" >       12       12       13       41       47 </v>
   <v type="int" >       12       12       40       41       47 </v>
   <v type="int" >       12       12       40       46       47 </v>
   <v type="int" >       12        5        6       13       41 </v>
   <v type="int" >       12        5       12       13       41 </v>
   <v type="int" >       12        5       12       40       41 </v>
   <v type="int" >       12       22       23       27       55 </v>
   <v type="int" >       12       22       23       51       55 </v>
   <v type="int" >       12       22       50       51       55 </v>
   <v type="int" >       12       17       18       23       51 </v>
   <v type="int" >       12       17       22       23       51 </v>
   <v type="int" >       12       17       22       50       51 </v>
   <v type="int" >       12       17       18       46       51 </v>
   <v type="int" >       12       17       45       46       51 </v>
   <v type="int" >       12       17       45       50       51 </v>
   <v type="int" >       12       11       12       18       46 </v>
   <v type="int" >       12       11       17       18       46 </v>
   <v type="int" >       12       11       17       45       46 </v>
   <v type="int" >       12       11       12       40       46 </v>
   <v type="int" >       12       11       39       40       46 </v>
   <v type="int" >       12       11       39       45       46 </v>
   <v type="int" >       12        4        5       12       40 </v>
   <v type="int" >       12        4       11       12       40 </v>
   <v type="int" >       12        4       11       39       40 </v>
   <v type="int" >       12       16       17       22       50 </v>
   <v type="int" >       12       16       17       45       50 </v>
   <v type="int" >       12       16       44       45       50 </v>
   <v type="int" >       12       10       11       17       45 </v>
   <v type="int" >       12       10       16       17       45 </v>
   <v type="int" >       12       10       16       44       45 </v>
   <v type="int" >       12       10       11       39       45 </v>
   <v type="int" >       12       10       38       39       45 </v>
   <v type="int" >       12       10       38       44       45 </v>
   <v type="int" >       12        3        4       11       39 </v>
   <v type="int" >       12        3       10       11       39 </v>
   <v type="int" >       12        3       10       38       39 </v>
   <v type="int" >       12        9       10       16       44 </v>
   <v type="int" >       12        9       10       38       44 </v>
   <v type="int" >       12        9       37       38       44 </v>
   <v type="int" >       12        2        3       10       38 </v>
   <v type="int" >       12        2        9       10       38 </v>
   <v type="int" >       12        2        9       37       38 </v>
   <v type="int" >       12        1        2        9       37 </v>
   <v type="int" >       12       37       38       38       44 </v>
   <v type="int" >       12       38       38       44       44 </v>
   <v type="int" >       12       38       44       44       65 </v>
   <v type="int" >       12       38       39       44       45 </v>
   <v type="int" >       12       38       44       44       45 </v>
   <v type="int" >       12       44       44       45       65 </v>
   <v type="int" >       12       39       44       45       45 </v>
   <v type="int" >       24       44       45       45       66 </v>
   <v type="int" >       24       44       45       65       66 </v>
   <v type="int" >       12       39       40       45       46 </v>
   <v type="int" >       12       39       45       45       46 </v>
   <v type="int" >       12       45       45       46       66 </v>
   <v type="int" >       12       40       45       46       46 </v>
   <v type="int" >       12       45       46       46       67 </v>
   <v type="int" >       12       45       46       66       67 </v>
   <v type="int" >       12       40       41       46       47 </v>
   <v type="int" >       12       40       46       46       47 </v>
   <v type="int" >       12       46       46       47       67 </v>
   <v type="int" >       12       41       46       47       47 </v>
   <v type="int" >       12       46       47       47       68 </v>
   <v type="int" >       12       46       47       67       68 </v>
   <v type="int" >       12       41       42       47       48 </v>
   <v type="int" >       12       41       47       47       48 </v>
   <v type="int" >       12       47       47       48       68 </v>
   <v type="int" >       12       42       47       48       48 </v>
   <v type="int" >       12       47       48       48       69 </v>
   <v type="int" >       12       47       48       68       69 </v>
   <v type="int" >       12       42       43       48       49 </v>
   <v type="int" >       12       42       48       48       49 </v>
   <v type="int" >       12       48       48       49       69 </v>
   <v type="int" >       12       43       48       49       49 </v>
   <v type="int" >       12       48       49       49       70 </v>
   <v type="int" >       12       48       49       69       70 </v>
   <v type="int" >       12       44       45       50       65 </v>
   <v type="int" >       12       45       50       65       66 </v>
   <v type="int" >       12       50       65       66       71 </v>
   <v type="int" >       12       45       46       51       66 </v>
   <v type="int" >       12       45       50       51       66 </v>
   <v type="int" >       12       50       51       66       71 </v>
   <v type="int" >       12       46       51       66       67 </v>
   <v type="int" >       12       51       66       67       72 </v>
   <v type="int" >       12       51       66       71       72 </v>
   <v type="int" >       12       46       47       52       67 </v>
   <v type="int" >       12       46       51       52       67 </v>
   <v type="int" >       12       51       52       67       72 </v>
   <v type="int" >       12       47       52       67       68 </v>
   <v type="int" >       12       52       67       68       73 </v>
   <v type="int" >       12       52       67       72       73 </v>
   <v type="int" >       12       47       48       53       68 </v>
   <v type="int" >       12       47       52       53       68 </v>
   <v type="int" >       12       52       53       68       73 </v>
   <v type="int" >       12       48       53       68       69 </v>
   <v type="int" >       12       53       68       69       74 </v>
   <v type="int" >       12       53       68       73       74 </v>
   <v type="int" >       12       48       49       54       69 </v>
   <v type="int" >       12       48       53       54       69 </v>
   <v type="int" >       12       53       54       69       74 </v>
   <v type="int" >       12       49       54       69       70 </v>
   <v type="int" >       12       54       69       70       75 </v>
   <v type="int" >       12       54       69       74       75 </v>
   <v type="int" >       12       48       49       53       70 </v>
   <v type="int" >       12       49       53       54       70 </v>
   <v type="int" >       12       53       54       70       75 </v>
   <v type="int" >       12       48       53       69       70 </v>
   <v type="int" >       12       53       69       70       74 </v>
   <v type="int" >       12       53       70       74       75 </v>
   <v type="int" >       12       47       48       52       69 </v>
   <v type="int" >       12       48       52       53       69 </v>
   <v type="int" >       12       52       53       69       74 </v>
   <v type="int" >       12       47       52       68       69 </v>
   <v type="int" >       12       52       68       69       73 </v>
   <v type="int" >       12       52       69       73       74 </v>
   <v type="int" >       12       46       47       51       68 </v>
   <v type="int" >       12       47       51       52       68 </v>
   <v type="int" >       12       51       52       68       73 </v>
   <v type="int" >       12       46       51       67       68 </v>
   <v type="int" >       12       51       67       68       72 </v>
   <v type="int" >       12       51       68       72       73 </v>
   <v type="int" >       12       45       46       50       67 </v>
   <v type="int" >       12       46       50       51       67 </v>
   <v type="int" >       12       50       51       67       72 </v>
   <v type="int" >       12       45       50       66       67 </v>
   <v type="int" >       12       50       66       67       71 </v>
   <v type="int" >       12       50       67       71       72 </v>
   <v type="int" >       12       45       45       50       66 </v>
   <v type="int" >       12       45       50       66       71 </v>
   <v type="int" >       12       45       65       66       66 </v>
   <v type="int" >       12       45       66       66       71 </v>
   <v type="int" >       12       38       39       44       65 </v>
   <v type="int" >       12       39       44       45       65 </v>
   <v type="int" >       12       39       45       65       66 </v>
   <v type="int" >       12       50       51       55       71 </v>
   <v type="int" >       12       51       55       71       72 </v>
   <v type="int" >       12       55       71       72       76 </v>
   <v type="int" >       12       51       52       56       72 </v>
   <v type="int" >       12       51       55       56       72 </v>
   <v type="int" >       12       55       56       72       76 </v>
   <v type="int" >       12       52       56       72       73 </v>
   <v type="int" >       12       56       72       73       77 </v>
   <v type="int" >       12       56       72       76       77 </v>
   <v type="int" >       12       52       53       57       73 </v>
   <v type="int" >       12       52       56       57       73 </v>
   <v type="int" >       12       56       57       73       77 </v>
   <v type="int" >       12       53       57       73       74 </v>
   <v type="int" >       12       57       73       74       78 </v>
   <v type="int" >       12       57       73       77       78 </v>
   <v type="int" >       12       53       54       58       74 </v>
   <v type="int" >       12       53       57       58       74 </v>
   <v type="int" >       12       57       58       74       78 </v>
   <v type="int" >       12       54       58       74       75 </v>
   <v type="int" >       12       58       74       75       79 </v>
   <v type="int" >       12       58       74       78       79 </v>
   <v type="int" >       12       53       54       57       75 </v>
   <v type="int" >       12       54       57       58       75 </v>
   <v type="int" >       12       57       58       75       79 </v>
   <v type="int" >       12       53       57       74       75 </v>
   <v type="int" >       12       57       74       75       78 </v>
   <v type="int" >       12       57       75       78       79 </v>
   <v type="int" >       12       52       53       56       74 </v>
   <v type="int" >       12       53       56       57       74 </v>
   <v type="int" >       12       56       57       74       78 </v>
   <v type="int" >       12       52       56       73       74 </v>
   <v type="int" >       12       56       73       74       77 </v>
   <v type="int" >       12       56       74       77       78 </v>
   <v type="int" >       12       51       52       55       73 </v>
   <v type="int" >       12       52       55       56       73 </v>
   <v type="int" >       12       55       56       73       77 </v>
   <v type="int" >       12       51       55       72       73 </v>
   <v type="int" >       12       55       72       73       76 </v>
   <v type="int" >       12       55       73       76       77 </v>
   <v type="int" >       12       50       51       51       72 </v>
   <v type="int" >       12       51       51       55       72 </v>
   <v type="int" >       12       51       55       72       76 </v>
   <v type="int" >       12       50       51       71       72 </v>
   <v type="int" >       12       51       71       72       72 </v>
   <v type="int" >       12       51       72       72       76 </v>
   <v type="int" >       12       45       46       50       71 </v>
   <v type="int" >       12       46       50       51       71 </v>
   <v type="int" >       12       46       51       71       72 </v>
   <v type="int" >       12       45       46       66       71 </v>
   <v type="int" >       12       46       66       67       71 </v>
   <v type="int" >       12       46       67       71       72 </v>
   <v type="int" >       12       39       40       45       66 </v>
   <v type="int" >       12       40       45       46       66 </v>
   <v type="int" >       12       40       46       66       67 </v>
   <v type="int" >       12       55       56       59       76 </v>
   <v type="int" >       12       56       59       76       77 </v>
   <v type="int" >       12       59       76       77       80 </v>
   <v type="int" >       12       56       57       60       77 </v>
   <v type="int" >       12       56       59       60       77 </v>
   <v type="int" >       12       59       60       77       80 </v>
   <v type="int" >       12       57       60       77       78 </v>
   <v type="int" >       12       60       77       78       81 </v>
   <v type="int" >       12       60       77       80       81 </v>
   <v type="int" >       12       57       58       61       78 </v>
   <v type="int" >       12       57       60       61       78 </v>
   <v type="int" >       12       60       61       78       81 </v>
   <v type="int" >       12       58       61       78       79 </v>
   <v type="int" >       12       61       78       79       82 </v>
   <v type="int" >       12       61       78       81       82 </v>
   <v type="int" >       12       57       58       60       79 </v>
   <v type="int" >       12       58       60       61       79 </v>
   <v type="int" >       12       60       61       79       82 </v>
   <v type="int" >       12       57       60       78       79 </v>
   <v type="int" >       12       60       78       79       81 </v>
   <v type="int" >       12       60       79       81       82 </v>
   <v type="int" >       12       56       57       59       78 </v>
   <v type="int" >       12       57       59       60       78 </v>
   <v type="int" >       12       59       60       78       81 </v>
   <v type="int" >       12       56       59       77       78 </v>
   <v type="int" >       12       59       77       78       80 </v>
   <v type="int" >       12       59       78       80       81 </v>
   <v type="int" >       12       55       56       56       77 </v>
   <v type="int" >       12       56       56       59       77 </v>
   <v type="int" >       12       56       59       77       80 </v>
   <v type="int" >       12       55       56       76       77 </v>
   <v type="int" >       12       56       76       77       77 </v>
   <v type="int" >       12       56       77       77       80 </v>
   <v type="int" >       12       51       52       55       76 </v>
   <v type="int" >       12       52       55       56       76 </v>
   <v type="int" >       12       52       56       76       77 </v>
   <v type="int" >       12       51       52       72       76 </v>
   <v type="int" >       12       52       72       73       76 </v>
   <v type="int" >       12       52       73       76       77 </v>
   <v type="int" >       12       46       47       51       72 </v>
   <v type="int" >       12       47       51       52       72 </v>
   <v type="int" >       12       47       52       72       73 </v>
   <v type="int" >       12       46       47       67       72 </v>
   <v type="int" >       12       47       67       68       72 </v>
   <v type="int" >       12       47       68       72       73 </v>
   <v type="int" >       12       40       41       46       67 </v>
   <v type="int" >       12       41       46       47       67 </v>
   <v type="int" >       12       41       47       67       68 </v>
   <v type="int" >       12       59       60       62       80 </v>
   <v type="int" >       12       60       62       80       81 </v>
   <v type="int" >       12       62       80       81       83 </v>
   <v type="int" >       12       60       61       63       81 </v>
   <v type="int" >       12       60       62       63       81 </v>
   <v type="int" >       12       62       63       81       83 </v>
   <v type="int" >       12       61       63       81       82 </v>
   <v type="int" >       12       63       81       82       84 </v>
   <v type="int" >       12       63       81       83       84 </v>
   <v type="int" >       12       60       61       62       82 </v>
   <v type="int" >       12       61       62       63       82 </v>
   <v type="int" >       12       62       63       82       84 </v>
   <v type="int" >       12       60       62       81       82 </v>
   <v type="int" >       12       62       81       82       83 </v>
   <v type="int" >       12       62       82       83       84 </v>
   <v type="int" >       12       59       60       60       81 </v>
   <v type="int" >       12       60       60       62       81 </v>
   <v type="int" >       12       60       62       81       83 </v>
   <v type="int" >       12       59       60       80       81 </v>
   <v type="int" >       12       60       80       81       81 </v>
   <v type="int" >       12       60       81       81       83 </v>
   <v type="int" >       12       56       57       59       80 </v>
   <v type="int" >       12       57       59       60       80 </v>
   <v type="int" >       12       57       60       80       81 </v>
   <v type="int" >       12       56       57       77       80 </v>
   <v type="int" >       12       57       77       78       80 </v>
   <v type="int" >       12       57       78       80       81 </v>
   <v type="int" >       12       52       53       56       77 </v>
   <v type="int" >       12       53       56       57       77 </v>
   <v type="int" >       12       53       57       77       78 </v>
   <v type="int" >       12       52       53       73       77 </v>
   <v type="int" >       12       53       73       74       77 </v>
   <v type="int" >       12       53       74       77       78 </v>
   <v type="int" >       12       47       48       52       73 </v>
   <v type="int" >       12       48       52       53       73 </v>
   <v type="int" >       12       48       53       73       74 </v>
   <v type="int" >       12       47       48       68       73 </v>
   <v type="int" >       12       48       68       69       73 </v>
   <v type="int" >       12       48       69       73       74 </v>
   <v type="int" >       12       41       42       47       68 </v>
   <v type="int" >       12       42       47       48       68 </v>
   <v type="int" >       12       42       48       68       69 </v>
   <v type="int" >       12       62       63       64       83 </v>
   <v type="int" >       12       63       64       83       84 </v>
   <v type="int" >       12       64       83       84       85 </v>
   <v type="int" >       12       62       63       63       84 </v>
   <v type="int" >       12       63       63       64       84 </v>
   <v type="int" >       12       63       64       84       85 </v>
   <v type="int" >       12       62       63       83       84 </v>
   <v type="int" >       12       63       83       84       84 </v>
   <v type="int" >       12       63       84       84       85 </v>
   <v type="int" >       12       60       61       62       83 </v>
   <v type="int" >       12       61       62       63       83 </v>
   <v type="int" >       12       61       63       83       84 </v>
   <v type="int" >       12       60       61       81       83 </v>
   <v type="int" >       12       61       81       82       83 </v>
   <v type="int" >       12       61       82       83       84 </v>
   <v type="int" >       12       57       58       60       81 </v>
   <v type="int" >       12       58       60       61       81 </v>
   <v type="int" >       12       58       61       81       82 </v>
   <v type="int" >       12       57       58       78       81 </v>
   <v type="int" >       12       58       78       79       81 </v>
   <v type="int" >       12       58       79       81       82 </v>
   <v type="int" >       12       53       54       57       78 </v>
   <v type="int" >       12       54       57       58       78 </v>
   <v type="int" >       12       54       58       78       79 </v>
   <v type="int" >       12       53       54       74       78 </v>
   <v type="int" >       12       54       74       75       78 </v>
   <v type="int" >       12       54       75       78       79 </v>
   <v type="int" >       12       48       49       53       74 </v>
   <v type="int" >       12       49       53       54       74 </v>
   <v type="int" >       12       49       54       74       75 </v>
   <v type="int" >       12       48       49       69       74 </v>
   <v type="int" >       12       49       69       70       74 </v>
   <v type="int" >       12       49       70       74       75 </v>
   <v type="int" >       12       42       43       48       69 </v>
   <v type="int" >       12       43       48       49       69 </v>
   <v type="int" >       12       43       49       69       70 </v>
   <v type="int" >       12       62       63       64       85 </v>
   <v type="int" >       12       62       63       84       85 </v>
   <v type="int" >       12       62       83       84       85 </v>
   <v type="int" >       12       60       61       63       84 </v>
   <v type="int" >       12       60       62       63       84 </v>
   <v type="int" >       12       60       62       83       84 </v>
   <v type="int" >       12       60       61       82       84 </v>
   <v type="int" >       12       60       81       82       84 </v>
   <v type="int" >       12       60       81       83       84 </v>
   <v type="int" >       12       57       58       61       82 </v>
   <v type="int" >       12       57       60       61       82 </v>
   <v type="int" >       12       57       60       81       82 </v>
   <v type="int" >       12       57       58       79       82 </v>
   <v type="int" >       12       57       78       79       82 </v>
   <v type="int" >       12       57       78       81       82 </v>
   <v type="int" >       12       53       54       58       79 </v>
   <v type="int" >       12       53       57       58       79 </v>
   <v type="int" >       12       53       57       78       79 </v>
   <v type="int" >       12       53       54       75       79 </v>
   <v type="int" >       12       53       74       75       79 </v>
   <v type="int" >       12       53       74       78       79 </v>
   <v type="int" >       12       48       49       54       75 </v>
   <v type="int" >       12       48       53       54       75 </v>
   <v type="int" >       12       48       53       74       75 </v>
   <v type="int" >       12       48       49       70       75 </v>
   <v type="int" >       12       48       69       70       75 </v>
   <v type="int" >       12       48       69       74       75 </v>
   <v type="int" >       12       42       43       49       70 </v>
   <v type="int" >       12       42       48       49       70 </v>
   <v type="int" >       12       42       48       69       70 </v>
   <v type="int" >       12       59       60       62       83 </v>
   <v type="int" >       12       59       60       81       83 </v>
   <v type="int" >       12       59       80       81       83 </v>
   <v type="int" >       12       56       57       60       81 </v>
   <v type="int" >       12       56       59       60       81 </v>
   <v type="int" >       12       56       59       80       81 </v>
   <v type="int" >       12       56       57       78       81 </v>
   <v type="int" >       12       56       77       78       81 </v>
   <v type="int" >       12       56       77       80       81 </v>
   <v type="int" >       12       52       53       57       78 </v>
   <v type="int" >       12       52       56       57       78 </v>
   <v type="int" >       12       52       56       77       78 </v>
   <v type="int" >       12       52       53       74       78 </v>
   <v type="int" >       12       52       73       74       78 </v>
   <v type="int" >       12       52       73       77       78 </v>
   <v type="int" >       12       47       48       53       74 </v>
   <v type="int" >       12       47       52       53       74 </v>
   <v type="int" >       12       47       52       73       74 </v>
   <v type="int" >       12       47       48       69       74 </v>
   <v type="int" >       12       47       68       69       74 </v>
   <v type="int" >       12       47       68       73       74 </v>
   <v type="int" >       12       41       42       48       69 </v>
   <v type="int" >       12       41       47       48       69 </v>
   <v type="int" >       12       41       47       68       69 </v>
   <v type="int" >       12       55       56       59       80 </v>
   <v type="int" >       12       55       56       77       80 </v>
   <v type="int" >       12       55       76       77       80 </v>
   <v type="int" >       12       51       52       56       77 </v>
   <v type="int" >       12       51       55       56       77 </v>
   <v type="int" >       12       51       55       76       77 </v>
   <v type="int" >       12       51       52       73       77 </v>
   <v type="int" >       12       51       72       73       77 </v>
   <v type="int" >       12       51       72       76       77 </v>
   <v type="int" >       12       46       47       52       73 </v>
   <v type="int" >       12       46       51       52       73 </v>
   <v type="int" >       12       46       51       72       73 </v>
   <v type="int" >       12       46       47       68       73 </v>
   <v type="int" >       12       46       67       68       73 </v>
   <v type="int" >       12       46       67       72       73 </v>
   <v type="int" >       12       40       41       47       68 </v>
   <v type="int" >       12       40       46       47       68 </v>
   <v type="int" >       12       40       46       67       68 </v>
   <v type="int" >       12       50       51       55       76 </v>
   <v type="int" >       12       50       51       72       76 </v>
   <v type="int" >       12       50       71       72       76 </v>
   <v type="int" >       12       45       46       51       72 </v>
   <v type="int" >       12       45       50       51       72 </v>
   <v type="int" >       12       45       50       71       72 </v>
   <v type="int" >       12       45       46       67       72 </v>
   <v type="int" >       12       45       66       67       72 </v>
   <v type="int" >       12       45       66       71       72 </v>
   <v type="int" >       12       39       40       46       67 </v>
   <v type="int" >       12       39       45       46       67 </v>
   <v type="int" >       12       39       45       66       67 </v>
   <v type="int" >       12       44       45       50       71 </v>
   <v type="int" >       12       44       45       66       71 </v>
   <v type="int" >       12       44       65       66       71 </v>
   <v type="int" >       12       38       39       45       66 </v>
   <v type="int" >       12       38       44       45       66 </v>
   <v type="int" >       12       38       44       65       66 </v>
   <v type="int" >       12       37       38       44       65 </v>
   <v type="int" >       12       65       66       66       71 </v>
   <v type="int" >       12       66       66       71       71 </v>
   <v type="int" >       12       66       71       71       86 </v>
   <v type="int" >       12       66       67       71       72 </v>
   <v type="int" >       12       66       71       71       72 </v>
   <v type="int" >       12       71       71       72       86 </v>
   <v type="int" >       12       67       71       72       72 </v>
   <v type="int" >       24       71       72       72       87 </v>
   <v type="int" >       24       71       72       86       87 </v>
   <v type="int" >       12       67       68       72       73 </v>
   <v type="int" >       12       67       72       72       73 </v>
   <v type="int" >       12       72       72       73       87 </v>
   <v type="int" >       12       68       72       73       73 </v>
   <v type="int" >       12       72       73       73       88 </v>
   <v type="int" >       12       72       73       87       88 </v>
   <v type="int" >       12       68       69       73       74 </v>
   <v type="int" >       12       68       73       73       74 </v>
   <v type="int" >       12       73       73       74       88 </v>
   <v type="int" >       12       69       73       74       74 </v>
   <v type="int" >       12       73       74       74       89 </v>
   <v type="int" >       12       73       74       88       89 </v>
   <v type="int" >       12       69       70       74       75 </v>
   <v type="int" >       12       69       74       74       75 </v>
   <v type="int" >       12       74       74       75       89 </v>
   <v type="int" >       12       70       74       75       75 </v>
   <v type="int" >       12       74       75       75       90 </v>
   <v type="int" >       12       74       75       89       90 </v>
   <v type="int" >       12       71       72       76       86 </v>
   <v type="int" >       12       72       76       86       87 </v>
   <v type="int" >       12       76       86       87       91 </v>
   <v type="int" >       12       72       73       77       87 </v>
   <v type="int" >       12       72       76       77       87 </v>
   <v type="int" >       12       76       77       87       91 </v>
   <v type="int" >       12       73       77       87       88 </v>
   <v type="int" >       12       77       87       88       92 </v>
   <v type="int" >       12       77       87       91       92 </v>
   <v type="int" >       12       73       74       78       88 </v>
   <v type="int" >       12       73       77       78       88 </v>
   <v type="int" >       12       77       78       88       92 </v>
   <v type="int" >       12       74       78       88       89 </v>
   <v type="int" >       12       78       88       89       93 </v>
   <v type="int" >       12       78       88       92       93 </v>
   <v type="int" >       12       74       75       79       89 </v>
   <v type="int" >       12       74       78       79       89 </v>
   <v type="int" >       12       78       79       89       93 </v>
   <v type="int" >       12       75       79       89       90 </v>
   <v type="int" >       12       79       89       90       94 </v>
   <v type="int" >       12       79       89       93       94 </v>
   <v type="int" >       12       74       75       78       90 </v>
   <v type="int" >       12       75       78       79       90 </v>
   <v type="int" >       12       78       79       90       94 </v>
   <v type="int" >       12       74       78       89       90 </v>
   <v type="int" >       12       78       89       90       93 </v>
   <v type="int" >       12       78       90       93       94 </v>
   <v type="int" >       12       73       74       77       89 </v>
   <v type="int" >       12       74       77       78       89 </v>
   <v type="int" >       12       77       78       89       93 </v>
   <v type="int" >       12       73       77       88       89 </v>
   <v type="int" >       12       77       88       89       92 </v>
   <v type="int" >       12       77       89       92       93 </v>
   <v type="int" >       12       72       73       76       88 </v>
   <v type="int" >       12       73       76       77       88 </v>
   <v type="int" >       12       76       77       88       92 </v>
   <v type="int" >       12       72       76       87       88 </v>
   <v type="int" >       12       76       87       88       91 </v>
   <v type="int" >       12       76       88       91       92 </v>
   <v type="int" >       12       72       72       76       87 </v>
   <v type="int" >       12       72       76       87       91 </v>
   <v type="int" >       12       72       86       87       87 </v>
   <v type="int" >       12       72       87       87       91 </v>
   <v type="int" >       12       66       67       71       86 </v>
   <v type="int" >       12       67       71       72       86 </v>
   <v type="int" >       12       67       72       86       87 </v>
   <v type="int" >       12       76       77       80       91 </v>
   <v type="int" >       12       77       80       91       92 </v>
   <v type="int" >       12       80       91       92       95 </v>
   <v type="int" >       12       77       78       81       92 </v>
   <v type="int" >       12       77       80       81       92 </v>
   <v type="int" >       12       80       81       92       95 </v>
   <v type="int" >       12       78       81       92       93 </v>
   <v type="int" >       12       81       92       93       96 </v>
   <v type="int" >       12       81       92       95       96 </v>
   <v type="int" >       12       78       79       82       93 </v>
   <v type="int" >       12       78       81       82       93 </v>
   <v type="int" >       12       81       82       93       96 </v>
   <v type="int" >       12       79       82       93       94 </v>
   <v type="int" >       12       82       93       94       97 </v>
   <v type="int" >       12       82       93       96       97 </v>
   <v type="int" >       12       78       79       81       94 </v>
[...]
       </set>
       <set comment="band 12">
        <r>  0.0000  0.0297  0.0398  0.0014  0.1744  0.0063  0.0152  0.1304  0.0029 </r>
        <r>  0.0000  0.0297  0.0398  0.0014  0.1744  0.0063  0.0152  0.1304  0.0029 </r>
       </set>
       <set comment="band 13">
        <r>  0.0000  0.0000  0.0001  0.0001  0.0097  0.0157  0.2555  0.0011  0.2086 </r>
        <r>  0.0000  0.0000  0.0001  0.0001  0.0097  0.0157  0.2555  0.0011  0.2086 </r>
       </set>
       <set comment="band 14">
        <r>  0.0000  0.0001  0.0001  0.0000  0.0079  0.0020  0.2086  0.0165  0.2555 </r>
        <r>  0.0000  0.0001  0.0001  0.0000  0.0079  0.0020  0.2086  0.0165  0.2555 </r>
       </set>
       <set comment="band 15">
        <r>  0.0000  0.0000  0.0000  0.0000  0.0017  0.0028  0.0926  0.0088  0.3849 </r>
        <r>  0.0000  0.0000  0.0000  0.0000  0.0017  0.0028  0.0926  0.0088  0.3849 </r>
       </set>
       <set comment="band 16">
        <r>  0.0000  0.0000  0.0000  0.0000  0.0071  0.0061  0.3849  0.0000  0.0926 </r>
        <r>  0.0000  0.0000  0.0000  0.0000  0.0071  0.0061  0.3849  0.0000  0.0926 </r>
       </set>
       <set comment="band 17">
        <r>  0.0331  0.0388  0.0388  0.0388  0.0861  0.0861  0.0000  0.0861  0.0000 </r>
        <r>  0.0331  0.0388  0.0388  0.0388  0.0861  0.0861  0.0000  0.0861  0.0000 </r>
       </set>
       <set comment="band 18">
        <r>  0.0000  0.0498  0.1094  0.0116  0.1319  0.0140  0.0109  0.0601  0.0004 </r>
        <r>  0.0000  0.0498  0.1094  0.0116  0.1319  0.0140  0.0109  0.0601  0.0004 </r>
       </set>
       <set comment="band 19">
        <r>  0.0000  0.0640  0.0045  0.1023  0.0054  0.1233  0.0004  0.0772  0.0109 </r>
        <r>  0.0000  0.0640  0.0045  0.1023  0.0054  0.1233  0.0004  0.0772  0.0109 </r>
       </set>
       <set comment="band 20">
        <r>  0.2378  0.0089  0.0089  0.0089  0.0374  0.0374  0.0000  0.0374  0.0000 </r>
        <r>  0.2378  0.0089  0.0089  0.0089  0.0374  0.0374  0.0000  0.0374  0.0000 </r>
       </set>
       <set comment="band 21">
        <r>  0.0000  0.0151  0.0710  0.0908  0.0740  0.0946  0.0040  0.0157  0.0026 </r>
        <r>  0.0000  0.0151  0.0710  0.0908  0.0740  0.0946  0.0040  0.0157  0.0026 </r>
       </set>
       <set comment="band 22">
        <r>  0.0000  0.1029  0.0469  0.0272  0.0489  0.0283  0.0026  0.1071  0.0040 </r>
        <r>  0.0000  0.1029  0.0469  0.0272  0.0489  0.0283  0.0026  0.1071  0.0040 </r>
       </set>
       <set comment="band 23">
        <r>  0.3213  0.0210  0.0210  0.0210  0.0003  0.0003  0.0000  0.0003  0.0000 </r>
        <r>  0.3213  0.0210  0.0210  0.0210  0.0003  0.0003  0.0000  0.0003  0.0000 </r>
       </set>
       <set comment="band 24">
        <r>  0.1243  0.0560  0.0560  0.0560  0.0271  0.0271  0.0000  0.0271  0.0000 </r>
        <r>  0.1243  0.0560  0.0560  0.0560  0.0271  0.0271  0.0000  0.0271  0.0000 </r>
       </set>
      </set>
      <set comment="kpoint 118">
       <set comment="band 1">
        <r>  0.0000  0.0329  0.0329  0.4407  0.0001  0.0000  0.0000  0.0001  0.0000 </r>
        <r>  0.0000  0.2086  0.2086  0.0696  0.0000  0.0001  0.0000  0.0000  0.0000 </r>
       </set>
       <set comment="band 2">
        <r>  0.0000  0.2086  0.2086  0.0696  0.0000  0.0001  0.0000  0.0000  0.0000 </r>
        <r>  0.0000  0.0329  0.0329  0.4407  0.0001  0.0000  0.0000  0.0001  0.0000 </r>
       </set>
       <set comment="band 3">
        <r>  0.0000  0.0227  0.0227  0.0000  0.0002  0.0000  0.0000  0.0002  0.0000 </r>
        <r>  0.0000  0.4746  0.4746  0.0000  0.0000  0.0000  0.0000  0.0000  0.0000 </r>
       </set>
       <set comment="band 4">
        <r>  0.0000  0.4746  0.4746  0.0000  0.0000  0.0000  0.0000  0.0000  0.0000 </r>
        <r>  0.0000  0.0227  0.0227  0.0000  0.0002  0.0000  0.0000  0.0002  0.0000 </r>
       </set>
       <set comment="band 5">
        <r>  0.0000  0.0834  0.0834  0.3264  0.0000  0.0000  0.0000  0.0000  0.0000 </r>
        <r>  0.0000  0.1724  0.1724  0.1579  0.0000  0.0001  0.0000  0.0000  0.0000 </r>
       </set>
       <set comment="band 6">
        <r>  0.0000  0.1724  0.1724  0.1579  0.0000  0.0001  0.0000  0.0000  0.0000 </r>
        <r>  0.0000  0.0834  0.0834  0.3264  0.0000  0.0000  0.0000  0.0000  0.0000 </r>
       </set>
       <set comment="band 7">
        <r>  0.0064  0.0163  0.0163  0.0041  0.1530  0.0771  0.0007  0.1530  0.0020 </r>
        <r>  0.0073  0.0186  0.0186  0.0036  0.1340  0.0881  0.0008  0.1340  0.0023 </r>
       </set>
       <set comment="band 8">
        <r>  0.0073  0.0186  0.0186  0.0036  0.1340  0.0881  0.0008  0.1340  0.0023 </r>
        <r>  0.0064  0.0163  0.0163  0.0041  0.1530  0.0771  0.0007  0.1530  0.0020 </r>
       </set>
       <set comment="band 9">
        <r>  0.0000  0.0349  0.0349  0.0000  0.1247  0.0000  0.0125  0.1247  0.0042 </r>
        <r>  0.0000  0.0199  0.0199  0.0000  0.2183  0.0000  0.0071  0.2183  0.0024 </r>
       </set>
       <set comment="band 10">
        <r>  0.0000  0.0199  0.0199  0.0000  0.2183  0.0000  0.0071  0.2183  0.0024 </r>
        <r>  0.0000  0.0349  0.0349  0.0000  0.1247  0.0000  0.0125  0.1247  0.0042 </r>
       </set>
       <set comment="band 11">
        <r>  0.0024  0.0085  0.0085  0.0647  0.0285  0.2239  0.0004  0.0285  0.0011 </r>
        <r>  0.0033  0.0117  0.0117  0.0467  0.0206  0.3102  0.0005  0.0206  0.0016 </r>
       </set>
       <set comment="band 12">
        <r>  0.0033  0.0117  0.0117  0.0467  0.0206  0.3102  0.0005  0.0206  0.0016 </r>
        <r>  0.0024  0.0085  0.0085  0.0647  0.0285  0.2239  0.0004  0.0285  0.0011 </r>
       </set>
       <set comment="band 13">
        <r>  0.0000  0.0000  0.0000  0.0000  0.0141  0.0000  0.1742  0.0141  0.0581 </r>
        <r>  0.0000  0.0001  0.0001  0.0000  0.0046  0.0000  0.5339  0.0046  0.1780 </r>
       </set>
       <set comment="band 14">
        <r>  0.0000  0.0001  0.0001  0.0000  0.0046  0.0000  0.5339  0.0046  0.1780 </r>
        <r>  0.0000  0.0000  0.0000  0.0000  0.0141  0.0000  0.1742  0.0141  0.0581 </r>
       </set>
       <set comment="band 15">
        <r>  0.0000  0.0000  0.0000  0.0000  0.0059  0.0001  0.0233  0.0059  0.0700 </r>
        <r>  0.0000  0.0000  0.0000  0.0000  0.0006  0.0007  0.2189  0.0006  0.6566 </r>
       </set>
       <set comment="band 16">
        <r>  0.0000  0.0000  0.0000  0.0000  0.0006  0.0007  0.2189  0.0006  0.6566 </r>
        <r>  0.0000  0.0000  0.0000  0.0000  0.0059  0.0001  0.0233  0.0059  0.0700 </r>
       </set>
       <set comment="band 17">
        <r>  0.0155  0.0262  0.0262  0.0910  0.0800  0.0760  0.0004  0.0800  0.0013 </r>
        <r>  0.0263  0.0445  0.0445  0.0535  0.0470  0.1291  0.0007  0.0470  0.0021 </r>
       </set>
       <set comment="band 18">
        <r>  0.0263  0.0445  0.0445  0.0535  0.0470  0.1291  0.0007  0.0470  0.0021 </r>
        <r>  0.0155  0.0262  0.0262  0.0910  0.0800  0.0760  0.0004  0.0800  0.0013 </r>
       </set>
       <set comment="band 19">
        <r>  0.0000  0.0421  0.0421  0.0000  0.1482  0.0000  0.0031  0.1482  0.0010 </r>
        <r>  0.0000  0.1336  0.1336  0.0000  0.0467  0.0000  0.0097  0.0467  0.0032 </r>
       </set>
       <set comment="band 20">
        <r>  0.0000  0.1336  0.1336  0.0000  0.0467  0.0000  0.0097  0.0467  0.0032 </r>
        <r>  0.0000  0.0421  0.0421  0.0000  0.1482  0.0000  0.0031  0.1482  0.0010 </r>
       </set>
       <set comment="band 21">
        <r>  0.0528  0.0021  0.0021  0.1269  0.0434  0.0278  0.0000  0.0434  0.0001 </r>
        <r>  0.2498  0.0099  0.0099  0.0268  0.0092  0.1314  0.0001  0.0092  0.0004 </r>
       </set>
       <set comment="band 22">
        <r>  0.2498  0.0099  0.0099  0.0268  0.0092  0.1314  0.0001  0.0092  0.0004 </r>
        <r>  0.0528  0.0021  0.0021  0.1269  0.0434  0.0278  0.0000  0.0434  0.0001 </r>
       </set>
       <set comment="band 23">
        <r>  0.0322  0.0085  0.0085  0.0391  0.0323  0.0040  0.0000  0.0323  0.0001 </r>
        <r>  0.3544  0.0933  0.0933  0.0036  0.0029  0.0442  0.0003  0.0029  0.0008 </r>
       </set>
       <set comment="band 24">
        <r>  0.3544  0.0933  0.0933  0.0036  0.0029  0.0442  0.0003  0.0029  0.0008 </r>
        <r>  0.0322  0.0085  0.0085  0.0391  0.0323  0.0040  0.0000  0.0323  0.0001 </r>
       </set>
      </set>
      <set comment="kpoint 119">
       <set comment="band 1">
        <r>  0.0000  0.4701  0.0000  0.0267  0.0000  0.0001  0.0000  0.0000  0.0000 </r>
        <r>  0.0000  0.0267  0.0000  0.4701  0.0000  0.0000  0.0000  0.0001  0.0000 </r>
       </set>
       <set comment="band 2">
        <r>  0.0000  0.0267  0.0000  0.4701  0.0000  0.0000  0.0000  0.0001  0.0000 </r>
        <r>  0.0000  0.4701  0.0000  0.0267  0.0000  0.0001  0.0000  0.0000  0.0000 </r>
       </set>
       <set comment="band 3">
        <r>  0.0000  0.0000  0.7080  0.0000  0.0001  0.0000  0.0000  0.0000  0.0000 </r>
        <r>  0.0000  0.0000  0.2866  0.0000  0.0002  0.0000  0.0000  0.0000  0.0000 </r>
       </set>
       <set comment="band 4">
        <r>  0.0000  0.0000  0.2866  0.0000  0.0002  0.0000  0.0000  0.0000  0.0000 </r>
        <r>  0.0000  0.0000  0.7080  0.0000  0.0001  0.0000  0.0000  0.0000  0.0000 </r>
       </set>
       <set comment="band 5">
        <r>  0.0000  0.2332  0.0000  0.2645  0.0000  0.0001  0.0000  0.0001  0.0000 </r>
        <r>  0.0000  0.2645  0.0000  0.2332  0.0000  0.0001  0.0000  0.0001  0.0000 </r>
       </set>
       <set comment="band 6">
        <r>  0.0000  0.2645  0.0000  0.2332  0.0000  0.0001  0.0000  0.0001  0.0000 </r>
        <r>  0.0000  0.2332  0.0000  0.2645  0.0000  0.0001  0.0000  0.0001  0.0000 </r>
       </set>
       <set comment="band 7">
        <r>  0.0065  0.0000  0.0729  0.0000  0.2201  0.0000  0.0115  0.0000  0.0000 </r>
        <r>  0.0031  0.0000  0.0347  0.0000  0.4621  0.0000  0.0055  0.0000  0.0000 </r>
       </set>
       <set comment="band 8">
        <r>  0.0031  0.0000  0.0347  0.0000  0.4621  0.0000  0.0055  0.0000  0.0000 </r>
        <r>  0.0065  0.0000  0.0729  0.0000  0.2201  0.0000  0.0115  0.0000  0.0000 </r>
       </set>
       <set comment="band 9">
        <r>  0.0000  0.0250  0.0000  0.0172  0.0000  0.2240  0.0000  0.1542  0.0000 </r>
        <r>  0.0000  0.0172  0.0000  0.0250  0.0000  0.1542  0.0000  0.2240  0.0000 </r>
       </set>
       <set comment="band 10">
        <r>  0.0000  0.0172  0.0000  0.0250  0.0000  0.1542  0.0000  0.2240  0.0000 </r>
        <r>  0.0000  0.0250  0.0000  0.0172  0.0000  0.2240  0.0000  0.1542  0.0000 </r>
       </set>
       <set comment="band 11">
        <r>  0.0000  0.0689  0.0000  0.0056  0.0000  0.3002  0.0000  0.0246  0.0000 </r>
        <r>  0.0000  0.0056  0.0000  0.0689  0.0000  0.0246  0.0000  0.3002  0.0000 </r>
       </set>
       <set comment="band 12">
        <r>  0.0000  0.0056  0.0000  0.0689  0.0000  0.0246  0.0000  0.3002  0.0000 </r>
        <r>  0.0000  0.0689  0.0000  0.0056  0.0000  0.3002  0.0000  0.0246  0.0000 </r>
       </set>
       <set comment="band 13">
        <r>  0.0000  0.0000  0.0000  0.0000  0.0244  0.0000  0.0097  0.0000  0.0000 </r>
        <r>  0.0000  0.0000  0.0001  0.0000  0.0002  0.0000  0.9479  0.0000  0.0000 </r>
       </set>
       <set comment="band 14">
        <r>  0.0000  0.0000  0.0001  0.0000  0.0002  0.0000  0.9479  0.0000  0.0000 </r>
        <r>  0.0000  0.0000  0.0000  0.0000  0.0244  0.0000  0.0097  0.0000  0.0000 </r>
       </set>
       <set comment="band 15">
        <r>  0.0000  0.0000  0.0000  0.0000  0.0000  0.0000  0.0000  0.0000  0.0315 </r>
        <r>  0.0000  0.0000  0.0000  0.0000  0.0000  0.0000  0.0000  0.0000  0.9517 </r>
       </set>
       <set comment="band 16">
        <r>  0.0000  0.0000  0.0000  0.0000  0.0000  0.0000  0.0000  0.0000  0.9517 </r>
        <r>  0.0000  0.0000  0.0000  0.0000  0.0000  0.0000  0.0000  0.0000  0.0315 </r>
       </set>
       <set comment="band 17">
        <r>  0.0000  0.1672  0.0000  0.0010  0.0000  0.2183  0.0000  0.0012  0.0000 </r>
        <r>  0.0000  0.0010  0.0000  0.1672  0.0000  0.0012  0.0000  0.2183  0.0000 </r>
       </set>
       <set comment="band 18">
        <r>  0.0000  0.0010  0.0000  0.1672  0.0000  0.0012  0.0000  0.2183  0.0000 </r>
        <r>  0.0000  0.1672  0.0000  0.0010  0.0000  0.2183  0.0000  0.0012  0.0000 </r>
       </set>
       <set comment="band 19">
        <r>  0.0169  0.0000  0.0348  0.0000  0.3279  0.0000  0.0014  0.0000  0.0000 </r>
        <r>  0.1065  0.0000  0.2198  0.0000  0.0519  0.0000  0.0087  0.0000  0.0000 </r>
       </set>
       <set comment="band 20">
        <r>  0.1065  0.0000  0.2198  0.0000  0.0519  0.0000  0.0087  0.0000  0.0000 </r>
        <r>  0.0169  0.0000  0.0348  0.0000  0.3279  0.0000  0.0014  0.0000  0.0000 </r>
       </set>
       <set comment="band 21">
        <r>  0.0000  0.0459  0.0000  0.1307  0.0000  0.0497  0.0000  0.1415  0.0000 </r>
        <r>  0.0000  0.1307  0.0000  0.0459  0.0000  0.1415  0.0000  0.0497  0.0000 </r>
       </set>
       <set comment="band 22">
        <r>  0.0000  0.1307  0.0000  0.0459  0.0000  0.1415  0.0000  0.0497  0.0000 </r>
        <r>  0.0000  0.0459  0.0000  0.1307  0.0000  0.0497  0.0000  0.1415  0.0000 </r>
       </set>
       <set comment="band 23">
        <r>  0.3548  0.0000  0.0625  0.0000  0.0122  0.0000  0.0008  0.0000  0.0000 </r>
        <r>  0.2673  0.0000  0.0471  0.0000  0.0162  0.0000  0.0006  0.0000  0.0000 </r>
       </set>
       <set comment="band 24">
        <r>  0.2673  0.0000  0.0471  0.0000  0.0162  0.0000  0.0006  0.0000  0.0000 </r>
        <r>  0.3548  0.0000  0.0625  0.0000  0.0122  0.0000  0.0008  0.0000  0.0000 </r>
       </set>
      </set>
      <set comment="kpoint 120">
       <set comment="band 1">
        <r>  0.0000  0.1021  0.3038  0.4621  0.0000  0.0000  0.0000  0.0000  0.0000 </r>
        <r>  0.0000  0.0349  0.0766  0.0151  0.0001  0.0002  0.0000  0.0000  0.0000 </r>
       </set>
       <set comment="band 2">
        <r>  0.0000  0.3260  0.0307  0.0599  0.0001  0.0000  0.0000  0.0000  0.0000 </r>
        <r>  0.0000  0.1140  0.3155  0.1484  0.0000  0.0000  0.0000  0.0001  0.0000 </r>
       </set>
       <set comment="band 3">
        <r>  0.0000  0.2104  0.4517  0.1997  0.0000  0.0000  0.0000  0.0000  0.0000 </r>
        <r>  0.0000  0.0337  0.0675  0.0315  0.0001  0.0001  0.0000  0.0001  0.0000 </r>
       </set>
       <set comment="band 4">
        <r>  0.0000  0.3529  0.1575  0.2673  0.0000  0.0000  0.0000  0.0000  0.0000 </r>
        <r>  0.0000  0.0563  0.1058  0.0547  0.0001  0.0001  0.0000  0.0001  0.0000 </r>
       </set>
       <set comment="band 5">
        <r>  0.0000  0.0012  0.0466  0.0018  0.0000  0.0000  0.0000  0.0002  0.0000 </r>
        <r>  0.0000  0.7450  0.1123  0.0877  0.0000  0.0000  0.0000  0.0000  0.0000 </r>
       </set>
       <set comment="band 6">
        <r>  0.0000  0.0020  0.0043  0.0037  0.0001  0.0002  0.0000  0.0000  0.0000 </r>
        <r>  0.0000  0.0106  0.3169  0.6570  0.0000  0.0000  0.0000  0.0000  0.0000 </r>
       </set>
       <set comment="band 7">
        <r>  0.0000  0.0019  0.0775  0.0150  0.0270  0.0316  0.0000  0.0650  0.0000 </r>
        <r>  0.0000  0.0105  0.0044  0.0051  0.4778  0.0925  0.0000  0.0119  0.0000 </r>
       </set>
       <set comment="band 8">
        <r>  0.0000  0.0282  0.0073  0.0015  0.0111  0.3648  0.0000  0.1019  0.0000 </r>
        <r>  0.0000  0.0165  0.0018  0.0592  0.0453  0.0090  0.0000  0.1738  0.0000 </r>
       </set>
       <set comment="band 9">
        <r>  0.0000  0.0511  0.0011  0.0161  0.1891  0.0809  0.0000  0.0147  0.0000 </r>
        <r>  0.0000  0.0024  0.0307  0.0131  0.0067  0.0994  0.0000  0.3151  0.0000 </r>
       </set>
       <set comment="band 10">
        <r>  0.0000  0.0270  0.0280  0.0337  0.0722  0.0081  0.0000  0.0789  0.0000 </r>
        <r>  0.0000  0.0128  0.0117  0.0013  0.1727  0.2076  0.0000  0.1664  0.0000 </r>
       </set>
       <set comment="band 11">
        <r>  0.0000  0.0007  0.0006  0.0338  0.0713  0.0745  0.0000  0.3437  0.0000 </r>
        <r>  0.0000  0.0557  0.0116  0.0121  0.0034  0.2087  0.0000  0.0043  0.0000 </r>
       </set>
       <set comment="band 12">
        <r>  0.0000  0.0056  0.0000  0.0144  0.3352  0.1460  0.0000  0.1016  0.0000 </r>
        <r>  0.0000  0.0165  0.0544  0.0237  0.0000  0.0887  0.0000  0.0344  0.0000 </r>
       </set>
       <set comment="band 13">
        <r>  0.0000  0.0000  0.0000  0.0000  0.0000  0.0000  0.0005  0.0000  0.9271 </r>
        <r>  0.0000  0.0000  0.0000  0.0000  0.0000  0.0000  0.0554  0.0000  0.0002 </r>
       </set>
       <set comment="band 14">
        <r>  0.0000  0.0000  0.0000  0.0000  0.0000  0.0000  0.0087  0.0000  0.0522 </r>
        <r>  0.0000  0.0000  0.0000  0.0000  0.0000  0.0000  0.8343  0.0000  0.0881 </r>
       </set>
       <set comment="band 15">
        <r>  0.0000  0.0000  0.0000  0.0000  0.0000  0.0000  0.6023  0.0000  0.0015 </r>
        <r>  0.0000  0.0000  0.0000  0.0000  0.0000  0.0000  0.0118  0.0000  0.3677 </r>
       </set>
       <set comment="band 16">
        <r>  0.0000  0.0000  0.0000  0.0000  0.0000  0.0000  0.3718  0.0000  0.0025 </r>
        <r>  0.0000  0.0000  0.0000  0.0000  0.0000  0.0000  0.0817  0.0000  0.5273 </r>
       </set>
       <set comment="band 17">
        <r>  0.0000  0.0007  0.0955  0.0104  0.0135  0.2038  0.0000  0.0667  0.0000 </r>
        <r>  0.0000  0.0569  0.0115  0.1738  0.1120  0.0122  0.0000  0.0008  0.0000 </r>
       </set>
       <set comment="band 18">
        <r>  0.0000  0.0945  0.0251  0.0693  0.0936  0.0668  0.0000  0.0270  0.0000 </r>
        <r>  0.0000  0.0230  0.0798  0.0570  0.0294  0.0813  0.0000  0.1109  0.0000 </r>
       </set>
       <set comment="band 19">
        <r>  0.0000  0.1154  0.0291  0.0406  0.0278  0.0929  0.0000  0.0712  0.0000 </r>
        <r>  0.0000  0.0607  0.0237  0.0793  0.0341  0.0477  0.0000  0.1354  0.0000 </r>
       </set>
       <set comment="band 20">
        <r>  0.0000  0.0188  0.1184  0.0880  0.0057  0.0059  0.0000  0.1333  0.0000 </r>
        <r>  0.0000  0.1137  0.0049  0.0050  0.1388  0.1032  0.0000  0.0221  0.0000 </r>
       </set>
       <set comment="band 21">
        <r>  0.0000  0.0649  0.0126  0.0237  0.1824  0.0231  0.0000  0.0848  0.0000 </r>
        <r>  0.0000  0.0723  0.1556  0.0197  0.0148  0.0278  0.0000  0.0761  0.0000 </r>
       </set>
       <set comment="band 22">
        <r>  0.0000  0.0544  0.0681  0.1168  0.0859  0.0165  0.0000  0.0260  0.0000 </r>
        <r>  0.0000  0.0222  0.0733  0.0141  0.0799  0.1369  0.0000  0.0638  0.0000 </r>
       </set>
       <set comment="band 23">
        <r>  0.3938  0.0000  0.0000  0.0000  0.0000  0.0000  0.0000  0.0000  0.0000 </r>
        <r>  0.3661  0.0000  0.0000  0.0000  0.0000  0.0000  0.0000  0.0000  0.0000 </r>
       </set>
       <set comment="band 24">
        <r>  0.3661  0.0000  0.0000  0.0000  0.0000  0.0000  0.0000  0.0000  0.0000 </r>
        <r>  0.3938  0.0000  0.0000  0.0000  0.0000  0.0000  0.0000  0.0000  0.0000 </r>
       </set>
      </set>
     </set>
    </set>
   </array>
  </projected>
 </calculation>
 <structure name="finalpos" >
  <crystal>
   <varray name="basis" >
    <v>       2.84005200       0.00000000       0.00000000 </v>
    <v>       0.00000000       2.84005200       0.00000000 </v>
    <v>       0.00000000       0.00000000       2.84005200 </v>
   </varray>
   <i name="volume">     22.90756226 </i>
   <varray name="rec_basis" >
    <v>       0.35210623       0.00000000       0.00000000 </v>
    <v>       0.00000000       0.35210623       0.00000000 </v>
    <v>       0.00000000       0.00000000       0.35210623 </v>
   </varray>
  </crystal>
  <varray name="positions" >
   <v>       0.00000000       0.00000000       0.00000000 </v>
   <v>       0.50000000       0.50000000       0.50000000 </v>
  </varray>
 </structure>
</modeling>
