       N       E                     dE             d eps       ncg     rms          rms(c)
DAV:   1     0.444908219895E+03    0.44491E+03   -0.17796E+04 26188   0.314E+03
DAV:   2     0.493172925428E+02   -0.39559E+03   -0.37286E+03 35832   0.397E+02
DAV:   3    -0.258903489959E+02   -0.75208E+02   -0.74051E+02 37504   0.249E+02
DAV:   4    -0.316912892228E+02   -0.58009E+01   -0.56415E+01 43116   0.559E+01
DAV:   5    -0.322184436282E+02   -0.52715E+00   -0.51981E+00 42544   0.154E+01    0.186E+01
DAV:   6    -0.385991609474E+02   -0.63807E+01   -0.85528E+01 36928   0.984E+01    0.224E+01
DAV:   7    -0.383762281245E+02    0.22293E+00   -0.12002E+01 36728   0.617E+01    0.989E+00
DAV:   8    -0.374503369655E+02    0.92589E+00   -0.43006E+00 39780   0.325E+01    0.424E+00
DAV:   9    -0.376010430760E+02   -0.15071E+00   -0.36765E+00 41784   0.168E+01    0.474E+00
DAV:  10    -0.374396770190E+02    0.16137E+00   -0.21417E+00 38456   0.120E+01    0.185E+00
DAV:  11    -0.374756856953E+02   -0.36009E-01   -0.94583E-02 46036   0.245E+00    0.889E-01
DAV:  12    -0.374712444174E+02    0.44413E-02   -0.21348E-02 38944   0.130E+00    0.606E-01
DAV:  13    -0.374699582694E+02    0.12861E-02   -0.63273E-03 42596   0.616E-01    0.469E-01
DAV:  14    -0.374687731214E+02    0.11851E-02   -0.41138E-03 38624   0.466E-01    0.224E-01
DAV:  15    -0.374686182461E+02    0.15488E-03   -0.12013E-03 42880   0.303E-01    0.107E-01
DAV:  16    -0.374686547706E+02   -0.36525E-04   -0.15928E-03 38288   0.350E-01    0.637E-02
DAV:  17    -0.374686425796E+02    0.12191E-04   -0.14829E-04 43528   0.876E-02    0.400E-02
DAV:  18    -0.374686328517E+02    0.97278E-05   -0.21616E-05 35876   0.381E-02    0.249E-02
DAV:  19    -0.374686171619E+02    0.15690E-04   -0.31224E-05 31412   0.498E-02    0.443E-03
DAV:  20    -0.374686152011E+02    0.19608E-05   -0.38827E-06 25976   0.136E-02    0.167E-03
DAV:  21    -0.374686153396E+02   -0.13858E-06   -0.32183E-07 17232   0.874E-03
   1 F= -.37468615E+02 E0= -.37468615E+02  d E =0.000000E+00  mag=     0.0000
