 vasp.5.4.4.18Apr17-6-g9f103f2a35 (build Apr 28 2018 00:24:27) complex          
  
 executed on             LinuxIFC date 2021.09.07  01:11:16
 running on   24 total cores
 distrk:  each k-point on   24 cores,    1 groups
 distr:  one band on NCORES_PER_BAND=   4 cores,    6 groups


--------------------------------------------------------------------------------------------------------


 INCAR:
 POTCAR:    PAW_PBE Fe_pv 02Aug2007               
 POTCAR:    PAW_PBE Fe_pv 02Aug2007               
   VRHFIN =Fe:  3pd7s1                                                          
   LEXCH  = PE                                                                  
   EATOM  =  2457.4239 eV,  180.6156 Ry                                         
                                                                                
   TITEL  = PAW_PBE Fe_pv 02Aug2007                                             
   LULTRA =        F    use ultrasoft PP ?                                      
   IUNSCR =        1    unscreen: 0-lin 1-nonlin 2-no                           
   RPACOR =    1.750    partial core radius                                     
   POMASS =   55.847; ZVAL   =   14.000    mass and valenz                      
   RCORE  =    2.200    outmost cutoff radius                                   
   RWIGS  =    2.200; RWIGS  =    1.164    wigner-seitz radius (au A)           
   ENMAX  =  293.238; ENMIN  =  219.928 eV                                      
   ICORE  =        3    local potential                                         
   LCOR   =        T    correct aug charges                                     
   LPAW   =        T    paw PP                                                  
   EAUG   =  578.342                                                            
   DEXC   =    0.000                                                            
   RMAX   =    2.249    core radius for proj-oper                               
   RAUG   =    1.300    factor for augmentation sphere                          
   RDEP   =    2.296    radius for radial grids                                 
   RDEPT  =    1.766    core radius for aug-charge                              
                                                                                
   Atomic configuration                                                         
    8 entries                                                                   
     n  l   j            E        occ.                                          
     1  0  0.50     -6993.8440   2.0000                                         
     2  0  0.50      -814.6047   2.0000                                         
     2  1  1.50      -693.3689   6.0000                                         
     3  0  0.50       -89.4732   2.0000                                         
     3  1  1.50       -55.6373   6.0000                                         
     3  2  2.50        -3.8151   7.0000                                         
     4  0  0.50        -4.2551   1.0000                                         
     4  3  2.50        -1.3606   0.0000                                         
   Description                                                                  
     l       E           TYP  RCUT    TYP  RCUT                                 
     1    -55.6372668     23  2.000                                             
     1     -5.4423304     23  2.000                                             
     2     -3.8151096     23  2.200                                             
     2     -5.1756922     23  2.200                                             
     0     -4.2550951     23  2.200                                             
     0     27.2116520     23  2.200                                             
     3     -1.3605826     23  2.200                                             
  local pseudopotential read in
  partial core-charges read in
  partial kinetic energy density read in
  atomic valenz-charges read in
  non local Contribution for L=           1  read in
    real space projection operators read in
  non local Contribution for L=           1  read in
    real space projection operators read in
  non local Contribution for L=           2  read in
    real space projection operators read in
  non local Contribution for L=           2  read in
    real space projection operators read in
  non local Contribution for L=           0  read in
    real space projection operators read in
  non local Contribution for L=           0  read in
    real space projection operators read in
    PAW grid and wavefunctions read in
 
   number of l-projection  operators is LMAX  =           6
   number of lm-projection operators is LMMAX =          18
 

 ----------------------------------------------------------------------------- 
|                                                                             |
|  ADVICE TO THIS USER RUNNING 'VASP/VAMP'   (HEAR YOUR MASTER'S VOICE ...):  |
|                                                                             |
|      You have a (more or less) 'small supercell' and for smaller cells      |
|      it is recommended  to use the reciprocal-space projection scheme!      |
|      The real space optimization is not  efficient for small cells and it   |
|      is also less accurate ...                                              |
|      Therefore set LREAL=.FALSE. in the  INCAR file                         |
|                                                                             |
 ----------------------------------------------------------------------------- 

 Optimization of the real space projectors (new method)

 maximal supplied QI-value         = 17.01
 optimisation between [QCUT,QGAM] = [ 14.12, 28.23] = [ 55.80,223.20] Ry 
 Optimized for a Real-space Cutoff    1.27 Angstroem

   l    n(q)    QCUT    max X(q) W(low)/X(q) W(high)/X(q)  e(spline) 
   1     10    14.116     4.267    0.41E-04    0.20E-03    0.42E-06
   1     10    14.116     5.750    0.69E-04    0.31E-03    0.63E-06
   2     10    14.116    53.656    0.62E-04    0.17E-03    0.42E-06
   2     10    14.116    49.521    0.64E-04    0.17E-03    0.43E-06
   0     11    14.116    31.246    0.25E-04    0.61E-04    0.45E-06
   0     11    14.116    12.201    0.18E-04    0.51E-04    0.37E-06
  PAW_PBE Fe_pv 02Aug2007               :
 energy of atom  1       EATOM=-2457.4239
 kinetic energy error for atom=    0.0014 (will be added to EATOM!!)
 
 
 POSCAR: Fe2                                     
  positions in direct lattice
  No initial velocities read in
 exchange correlation table for  LEXCH =        8
   RHO(1)=    0.500       N(1)  =     2000
   RHO(2)=  100.500       N(2)  =     4000
 


--------------------------------------------------------------------------------------------------------


 ion  position               nearest neighbor table
   1  0.000  0.000  0.000-   2 2.46   2 2.46   2 2.46   2 2.46   2 2.46   2 2.46   2 2.46   2 2.46

   2  0.500  0.500  0.500-   1 2.46   1 2.46   1 2.46   1 2.46   1 2.46   1 2.46   1 2.46   1 2.46

 
  LATTYP: Found a simple cubic cell.
 ALAT       =     2.8400520000
  
  Lattice vectors:
  
 A1 = (   2.8400520000,   0.0000000000,   0.0000000000)
 A2 = (   0.0000000000,   2.8400520000,   0.0000000000)
 A3 = (   0.0000000000,   0.0000000000,   2.8400520000)


Analysis of symmetry for initial positions (statically):
=====================================================================
 Subroutine PRICEL returns following result:
 
  LATTYP: Found a body centered cubic cell.
 ALAT       =     2.8400520000
  
  Lattice vectors:
  
 A1 = (   1.4200260000,   1.4200260000,   1.4200260000)
 A2 = (   1.4200260000,  -1.4200260000,  -1.4200260000)
 A3 = (  -1.4200260000,   1.4200260000,  -1.4200260000)
 
   2 primitive cells build up your supercell.
 

 Routine SETGRP: Setting up the symmetry group for a 
 simple cubic supercell.


 Subroutine GETGRP returns: Found 48 space group operations
 (whereof 48 operations were pure point group operations)
 out of a pool of 48 trial point group operations.


The static configuration has the point symmetry O_h .


Analysis of symmetry for dynamics (positions and initial velocities):
=====================================================================
 Subroutine PRICEL returns following result:
 
  LATTYP: Found a body centered cubic cell.
 ALAT       =     2.8400520000
  
  Lattice vectors:
  
 A1 = (   1.4200260000,   1.4200260000,   1.4200260000)
 A2 = (   1.4200260000,  -1.4200260000,  -1.4200260000)
 A3 = (  -1.4200260000,   1.4200260000,  -1.4200260000)
 
   2 primitive cells build up your supercell.
 

 Routine SETGRP: Setting up the symmetry group for a 
 simple cubic supercell.


 Subroutine GETGRP returns: Found 48 space group operations
 (whereof 48 operations were pure point group operations)
 out of a pool of 48 trial point group operations.


The dynamic configuration has the point symmetry O_h .


Analysis of structural, dynamic, and magnetic symmetry:
=====================================================================
 Subroutine PRICEL returns following result:
 
  LATTYP: Found a body centered cubic cell.
 ALAT       =     2.8400520000
  
  Lattice vectors:
  
 A1 = (   1.4200260000,   1.4200260000,   1.4200260000)
 A2 = (   1.4200260000,  -1.4200260000,  -1.4200260000)
 A3 = (  -1.4200260000,   1.4200260000,  -1.4200260000)
 
   2 primitive cells build up your supercell.
 

 Routine SETGRP: Setting up the symmetry group for a 
 simple cubic supercell.


 Subroutine GETGRP returns: Found 48 space group operations
 (whereof 48 operations were pure point group operations)
 out of a pool of 48 trial point group operations.


The magnetic configuration has the point symmetry O_h .


 Subroutine INISYM returns: Found 48 space group operations
 (whereof 48 operations are pure point group operations),
 and found     2 'primitive' translations

 
 
 KPOINTS: pymatgen with grid density = 2166 / numb

Automatic generation of k-mesh.
Space group operators:
 irot       det(A)        alpha          n_x          n_y          n_z        tau_x        tau_y        tau_z
    1     1.000000     0.000000     1.000000     0.000000     0.000000     0.000000     0.000000     0.000000
    2    -1.000000     0.000000     1.000000     0.000000     0.000000     0.000000     0.000000     0.000000
    3     1.000000   120.000000    -0.577350    -0.577350    -0.577350     0.000000     0.000000     0.000000
    4    -1.000000   120.000000    -0.577350    -0.577350    -0.577350     0.000000     0.000000     0.000000
    5     1.000000   120.000000     0.577350     0.577350     0.577350     0.000000     0.000000     0.000000
    6    -1.000000   120.000000     0.577350     0.577350     0.577350     0.000000     0.000000     0.000000
    7     1.000000    90.000000     0.000000     0.000000    -1.000000     0.000000     0.000000     0.000000
    8    -1.000000    90.000000     0.000000     0.000000    -1.000000     0.000000     0.000000     0.000000
    9     1.000000   180.000000     0.000000     0.707107     0.707107     0.000000     0.000000     0.000000
   10    -1.000000   180.000000     0.000000     0.707107     0.707107     0.000000     0.000000     0.000000
   11     1.000000    90.000000     0.000000     1.000000     0.000000     0.000000     0.000000     0.000000
   12    -1.000000    90.000000     0.000000     1.000000     0.000000     0.000000     0.000000     0.000000
   13     1.000000   180.000000     0.000000     0.000000     1.000000     0.000000     0.000000     0.000000
   14    -1.000000   180.000000     0.000000     0.000000     1.000000     0.000000     0.000000     0.000000
   15     1.000000   120.000000    -0.577350     0.577350     0.577350     0.000000     0.000000     0.000000
   16    -1.000000   120.000000    -0.577350     0.577350     0.577350     0.000000     0.000000     0.000000
   17     1.000000   120.000000    -0.577350     0.577350    -0.577350     0.000000     0.000000     0.000000
   18    -1.000000   120.000000    -0.577350     0.577350    -0.577350     0.000000     0.000000     0.000000
   19     1.000000    90.000000     0.000000     0.000000     1.000000     0.000000     0.000000     0.000000
   20    -1.000000    90.000000     0.000000     0.000000     1.000000     0.000000     0.000000     0.000000
   21     1.000000    90.000000    -1.000000     0.000000     0.000000     0.000000     0.000000     0.000000
   22    -1.000000    90.000000    -1.000000     0.000000     0.000000     0.000000     0.000000     0.000000
   23     1.000000   180.000000     0.707107     0.000000     0.707107     0.000000     0.000000     0.000000
   24    -1.000000   180.000000     0.707107     0.000000     0.707107     0.000000     0.000000     0.000000
   25     1.000000   120.000000     0.577350    -0.577350     0.577350     0.000000     0.000000     0.000000
   26    -1.000000   120.000000     0.577350    -0.577350     0.577350     0.000000     0.000000     0.000000
   27     1.000000   120.000000    -0.577350    -0.577350     0.577350     0.000000     0.000000     0.000000
   28    -1.000000   120.000000    -0.577350    -0.577350     0.577350     0.000000     0.000000     0.000000
   29     1.000000   180.000000     1.000000     0.000000     0.000000     0.000000     0.000000     0.000000
   30    -1.000000   180.000000     1.000000     0.000000     0.000000     0.000000     0.000000     0.000000
   31     1.000000    90.000000     0.000000    -1.000000     0.000000     0.000000     0.000000     0.000000
   32    -1.000000    90.000000     0.000000    -1.000000     0.000000     0.000000     0.000000     0.000000
   33     1.000000   180.000000     0.707107     0.707107     0.000000     0.000000     0.000000     0.000000
   34    -1.000000   180.000000     0.707107     0.707107     0.000000     0.000000     0.000000     0.000000
   35     1.000000    90.000000     1.000000     0.000000     0.000000     0.000000     0.000000     0.000000
   36    -1.000000    90.000000     1.000000     0.000000     0.000000     0.000000     0.000000     0.000000
   37     1.000000   120.000000     0.577350    -0.577350    -0.577350     0.000000     0.000000     0.000000
   38    -1.000000   120.000000     0.577350    -0.577350    -0.577350     0.000000     0.000000     0.000000
   39     1.000000   180.000000     0.000000     1.000000     0.000000     0.000000     0.000000     0.000000
   40    -1.000000   180.000000     0.000000     1.000000     0.000000     0.000000     0.000000     0.000000
   41     1.000000   120.000000     0.577350     0.577350    -0.577350     0.000000     0.000000     0.000000
   42    -1.000000   120.000000     0.577350     0.577350    -0.577350     0.000000     0.000000     0.000000
   43     1.000000   180.000000     0.000000    -0.707107     0.707107     0.000000     0.000000     0.000000
   44    -1.000000   180.000000     0.000000    -0.707107     0.707107     0.000000     0.000000     0.000000
   45     1.000000   180.000000     0.707107    -0.707107     0.000000     0.000000     0.000000     0.000000
   46    -1.000000   180.000000     0.707107    -0.707107     0.000000     0.000000     0.000000     0.000000
   47     1.000000   180.000000     0.707107     0.000000    -0.707107     0.000000     0.000000     0.000000
   48    -1.000000   180.000000     0.707107     0.000000    -0.707107     0.000000     0.000000     0.000000
 
 Subroutine IBZKPT returns following result:
 ===========================================
 
 Found     35 irreducible k-points:
 
 Following reciprocal coordinates:
            Coordinates               Weight
  0.050000  0.050000  0.050000      8.000000
  0.150000  0.050000  0.050000     24.000000
  0.250000  0.050000  0.050000     24.000000
  0.350000  0.050000  0.050000     24.000000
  0.450000  0.050000  0.050000     24.000000
  0.150000  0.150000  0.050000     24.000000
  0.250000  0.150000  0.050000     48.000000
  0.350000  0.150000  0.050000     48.000000
  0.450000  0.150000  0.050000     48.000000
  0.250000  0.250000  0.050000     24.000000
  0.350000  0.250000  0.050000     48.000000
  0.450000  0.250000  0.050000     48.000000
  0.350000  0.350000  0.050000     24.000000
  0.450000  0.350000  0.050000     48.000000
  0.450000  0.450000  0.050000     24.000000
  0.150000  0.150000  0.150000      8.000000
  0.250000  0.150000  0.150000     24.000000
  0.350000  0.150000  0.150000     24.000000
  0.450000  0.150000  0.150000     24.000000
  0.250000  0.250000  0.150000     24.000000
  0.350000  0.250000  0.150000     48.000000
  0.450000  0.250000  0.150000     48.000000
  0.350000  0.350000  0.150000     24.000000
  0.450000  0.350000  0.150000     48.000000
  0.450000  0.450000  0.150000     24.000000
  0.250000  0.250000  0.250000      8.000000
  0.350000  0.250000  0.250000     24.000000
  0.450000  0.250000  0.250000     24.000000
  0.350000  0.350000  0.250000     24.000000
  0.450000  0.350000  0.250000     48.000000
  0.450000  0.450000  0.250000     24.000000
  0.350000  0.350000  0.350000      8.000000
  0.450000  0.350000  0.350000     24.000000
  0.450000  0.450000  0.350000     24.000000
  0.450000  0.450000  0.450000      8.000000
 
 Following cartesian coordinates:
            Coordinates               Weight
  0.017605  0.017605  0.017605      8.000000
  0.052816  0.017605  0.017605     24.000000
  0.088027  0.017605  0.017605     24.000000
  0.123237  0.017605  0.017605     24.000000
  0.158448  0.017605  0.017605     24.000000
  0.052816  0.052816  0.017605     24.000000
  0.088027  0.052816  0.017605     48.000000
  0.123237  0.052816  0.017605     48.000000
  0.158448  0.052816  0.017605     48.000000
  0.088027  0.088027  0.017605     24.000000
  0.123237  0.088027  0.017605     48.000000
  0.158448  0.088027  0.017605     48.000000
  0.123237  0.123237  0.017605     24.000000
  0.158448  0.123237  0.017605     48.000000
  0.158448  0.158448  0.017605     24.000000
  0.052816  0.052816  0.052816      8.000000
  0.088027  0.052816  0.052816     24.000000
  0.123237  0.052816  0.052816     24.000000
  0.158448  0.052816  0.052816     24.000000
  0.088027  0.088027  0.052816     24.000000
  0.123237  0.088027  0.052816     48.000000
  0.158448  0.088027  0.052816     48.000000
  0.123237  0.123237  0.052816     24.000000
  0.158448  0.123237  0.052816     48.000000
  0.158448  0.158448  0.052816     24.000000
  0.088027  0.088027  0.088027      8.000000
  0.123237  0.088027  0.088027     24.000000
  0.158448  0.088027  0.088027     24.000000
  0.123237  0.123237  0.088027     24.000000
  0.158448  0.123237  0.088027     48.000000
  0.158448  0.158448  0.088027     24.000000
  0.123237  0.123237  0.123237      8.000000
  0.158448  0.123237  0.123237     24.000000
  0.158448  0.158448  0.123237     24.000000
  0.158448  0.158448  0.158448      8.000000
 
 TETIRR: Found    466 inequivalent tetrahedra from     6000


--------------------------------------------------------------------------------------------------------




 Dimension of arrays:
   k-points           NKPTS =     35   k-points in BZ     NKDIM =     35   number of bands    NBANDS=     24
   number of dos      NEDOS =    301   number of ions     NIONS =      2
   non local maximal  LDIM  =      6   non local SUM 2l+1 LMDIM =     18
   total plane-waves  NPLWV =  21952
   max r-space proj   IRMAX =   8247   max aug-charges    IRDMAX=  28578
   dimension x,y,z NGX =    28 NGY =   28 NGZ =   28
   dimension x,y,z NGXF=    56 NGYF=   56 NGZF=   56
   support grid    NGXF=    56 NGYF=   56 NGZF=   56
   ions per type =               2
   NGX,Y,Z   is equivalent  to a cutoff of  16.39, 16.39, 16.39 a.u.
   NGXF,Y,Z  is equivalent  to a cutoff of  32.78, 32.78, 32.78 a.u.

 SYSTEM =  unknown system                          
 POSCAR =  Fe2                                     

 Startparameter for this run:
   NWRITE =      2    write-flag & timer
   PREC   = accura    normal or accurate (medium, high low for compatibility)
   ISTART =      0    job   : 0-new  1-cont  2-samecut
   ICHARG =      2    charge: 1-file 2-atom 10-const
   ISPIN  =      2    spin polarized calculation?
   LNONCOLLINEAR =      F non collinear calculations
   LSORBIT =      F    spin-orbit coupling
   INIWAV =      1    electr: 0-lowe 1-rand  2-diag
   LASPH  =      F    aspherical Exc in radial PAW
   METAGGA=      F    non-selfconsistent MetaGGA calc.

 Electronic Relaxation 1
   ENCUT  =  760.0 eV  55.86 Ry    7.47 a.u.   6.38  6.38  6.38*2*pi/ulx,y,z
   ENINI  =  760.0     initial cutoff
   ENAUG  =  578.3 eV  augmentation charge cutoff
   NELM   =    100;   NELMIN=  2; NELMDL= -5     # of ELM steps 
   EDIFF  = 0.1E-06   stopping-criterion for ELM
   LREAL  =      T    real-space projection
   NLSPLINE    = F    spline interpolate recip. space projectors
   LCOMPAT=      F    compatible to vasp.4.4
   GGA_COMPAT  = T    GGA compatible to vasp.4.4-vasp.4.6
   LMAXPAW     = -100 max onsite density
   LMAXMIX     =    2 max onsite mixed and CHGCAR
   VOSKOWN=      0    Vosko Wilk Nusair interpolation
   ROPT   =   -0.00025
 Ionic relaxation
   EDIFFG = 0.1E-05   stopping-criterion for IOM
   NSW    =      0    number of steps for IOM
   NBLOCK =      1;   KBLOCK =      1    inner block; outer block 
   IBRION =     -1    ionic relax: 0-MD 1-quasi-New 2-CG
   NFREE  =      0    steps in history (QN), initial steepest desc. (CG)
   ISIF   =      3    stress and relaxation
   IWAVPR =     10    prediction:  0-non 1-charg 2-wave 3-comb
   ISYM   =      2    0-nonsym 1-usesym 2-fastsym
   LCORR  =      T    Harris-Foulkes like correction to forces

   POTIM  = 0.5000    time-step for ionic-motion
   TEIN   =    0.0    initial temperature
   TEBEG  =    0.0;   TEEND  =   0.0 temperature during run
   SMASS  =  -3.00    Nose mass-parameter (am)
   estimated Nose-frequenzy (Omega)   =  0.10E-29 period in steps =****** mass=  -0.184E-27a.u.
   SCALEE = 1.0000    scale energy and forces
   NPACO  =    256;   APACO  = 16.0  distance and # of slots for P.C.
   PSTRESS=    0.0 pullay stress

  Mass of Ions in am
   POMASS =  55.85
  Ionic Valenz
   ZVAL   =  14.00
  Atomic Wigner-Seitz radii
   RWIGS  =  -1.00
  virtual crystal weights 
   VCA    =   1.00
   NELECT =      28.0000    total number of electrons
   NUPDOWN=      -1.0000    fix difference up-down

 DOS related values:
   EMIN   =  10.00;   EMAX   =-10.00  energy-range for DOS
   EFERMI =   0.00
   ISMEAR =    -5;   SIGMA  =   0.05  broadening in eV -4-tet -1-fermi 0-gaus

 Electronic relaxation 2 (details)
   IALGO  =     38    algorithm
   LDIAG  =      T    sub-space diagonalisation (order eigenvalues)
   LSUBROT=      F    optimize rotation matrix (better conditioning)
   TURBO    =      0    0=normal 1=particle mesh
   IRESTART =      0    0=no restart 2=restart with 2 vectors
   NREBOOT  =      0    no. of reboots
   NMIN     =      0    reboot dimension
   EREF     =   0.00    reference energy to select bands
   IMIX   =      4    mixing-type and parameters
     AMIX     =   0.40;   BMIX     =  1.00
     AMIX_MAG =   1.60;   BMIX_MAG =  1.00
     AMIN     =   0.10
     WC   =   100.;   INIMIX=   1;  MIXPRE=   1;  MAXMIX= -45

 Intra band minimization:
   WEIMIN = 0.0000     energy-eigenvalue tresh-hold
   EBREAK =  0.10E-08  absolut break condition
   DEPER  =   0.30     relativ break condition  

   TIME   =   0.40     timestep for ELM

  volume/ion in A,a.u.               =      11.45        77.29
  Fermi-wavevector in a.u.,A,eV,Ry     =   1.750389  3.307755 41.686364  3.063861
  Thomas-Fermi vector in A             =   2.821117
 
 Write flags
   LWAVE        =      F    write WAVECAR
   LDOWNSAMPLE  =      F    k-point downsampling of WAVECAR
   LCHARG       =      F    write CHGCAR
   LVTOT        =      F    write LOCPOT, total local potential
   LVHAR        =      F    write LOCPOT, Hartree potential only
   LELF         =      F    write electronic localiz. function (ELF)
   LORBIT       =     11    0 simple, 1 ext, 2 COOP (PROOUT), +10 PAW based schemes


 Dipole corrections
   LMONO  =      F    monopole corrections only (constant potential shift)
   LDIPOL =      F    correct potential (dipole corrections)
   IDIPOL =      0    1-x, 2-y, 3-z, 4-all directions 
   EPSILON=  1.0000000 bulk dielectric constant

 Exchange correlation treatment:
   GGA     =    --    GGA type
   LEXCH   =     8    internal setting for exchange type
   VOSKOWN=      0    Vosko Wilk Nusair interpolation
   LHFCALC =     F    Hartree Fock is set to
   LHFONE  =     F    Hartree Fock one center treatment
   AEXX    =    0.0000 exact exchange contribution

 Linear response parameters
   LEPSILON=     F    determine dielectric tensor
   LRPA    =     F    only Hartree local field effects (RPA)
   LNABLA  =     F    use nabla operator in PAW spheres
   LVEL    =     F    velocity operator in full k-point grid
   LINTERFAST=   F  fast interpolation
   KINTER  =     0    interpolate to denser k-point grid
   CSHIFT  =0.1000    complex shift for real part using Kramers Kronig
   OMEGAMAX=  -1.0    maximum frequency
   DEG_THRESHOLD= 0.2000000E-02 threshold for treating states as degnerate
   RTIME   =   -0.100 relaxation time in fs
  (WPLASMAI=    0.000 imaginary part of plasma frequency in eV, 0.658/RTIME)
   DFIELD  = 0.0000000 0.0000000 0.0000000 field for delta impulse in time
 
 Orbital magnetization related:
   ORBITALMAG=     F  switch on orbital magnetization
   LCHIMAG   =     F  perturbation theory with respect to B field
   DQ        =  0.001000  dq finite difference perturbation B field
   LLRAUG    =     F  two centre corrections for induced B field



--------------------------------------------------------------------------------------------------------


 Static calculation
 charge density and potential will be updated during run
 spin polarized calculation
 Variant of blocked Davidson
 Davidson routine will perform the subspace rotation
 perform sub-space diagonalisation
    after iterative eigenvector-optimisation
 modified Broyden-mixing scheme, WC =      100.0
 initial mixing is a Kerker type mixing with AMIX =  0.4000 and BMIX =      1.0000
 Hartree-type preconditioning will be used
 using additional bands           10
 real space projection scheme for non local part
 use partial core corrections
 calculate Harris-corrections to forces 
   (improved forces if not selfconsistent)
 use gradient corrections 
 use of overlap-Matrix (Vanderbilt PP)
 Fermi weights with tetrahedron method with Bloechl corrections


--------------------------------------------------------------------------------------------------------


  energy-cutoff  :      760.00
  volume of cell :       22.91
      direct lattice vectors                 reciprocal lattice vectors
     2.840052000  0.000000000  0.000000000     0.352106229  0.000000000  0.000000000
     0.000000000  2.840052000  0.000000000     0.000000000  0.352106229  0.000000000
     0.000000000  0.000000000  2.840052000     0.000000000  0.000000000  0.352106229

  length of vectors
     2.840052000  2.840052000  2.840052000     0.352106229  0.352106229  0.352106229


 
 k-points in units of 2pi/SCALE and weight: pymatgen with grid density = 2166 / numb
   0.01760531  0.01760531  0.01760531       0.008
   0.05281593  0.01760531  0.01760531       0.024
   0.08802656  0.01760531  0.01760531       0.024
   0.12323718  0.01760531  0.01760531       0.024
   0.15844780  0.01760531  0.01760531       0.024
   0.05281593  0.05281593  0.01760531       0.024
   0.08802656  0.05281593  0.01760531       0.048
   0.12323718  0.05281593  0.01760531       0.048
   0.15844780  0.05281593  0.01760531       0.048
   0.08802656  0.08802656  0.01760531       0.024
   0.12323718  0.08802656  0.01760531       0.048
   0.15844780  0.08802656  0.01760531       0.048
   0.12323718  0.12323718  0.01760531       0.024
   0.15844780  0.12323718  0.01760531       0.048
   0.15844780  0.15844780  0.01760531       0.024
   0.05281593  0.05281593  0.05281593       0.008
   0.08802656  0.05281593  0.05281593       0.024
   0.12323718  0.05281593  0.05281593       0.024
   0.15844780  0.05281593  0.05281593       0.024
   0.08802656  0.08802656  0.05281593       0.024
   0.12323718  0.08802656  0.05281593       0.048
   0.15844780  0.08802656  0.05281593       0.048
   0.12323718  0.12323718  0.05281593       0.024
   0.15844780  0.12323718  0.05281593       0.048
   0.15844780  0.15844780  0.05281593       0.024
   0.08802656  0.08802656  0.08802656       0.008
   0.12323718  0.08802656  0.08802656       0.024
   0.15844780  0.08802656  0.08802656       0.024
   0.12323718  0.12323718  0.08802656       0.024
   0.15844780  0.12323718  0.08802656       0.048
   0.15844780  0.15844780  0.08802656       0.024
   0.12323718  0.12323718  0.12323718       0.008
   0.15844780  0.12323718  0.12323718       0.024
   0.15844780  0.15844780  0.12323718       0.024
   0.15844780  0.15844780  0.15844780       0.008
 
 k-points in reciprocal lattice and weights: pymatgen with grid density = 2166 / numb
   0.05000000  0.05000000  0.05000000       0.008
   0.15000000  0.05000000  0.05000000       0.024
   0.25000000  0.05000000  0.05000000       0.024
   0.35000000  0.05000000  0.05000000       0.024
   0.45000000  0.05000000  0.05000000       0.024
   0.15000000  0.15000000  0.05000000       0.024
   0.25000000  0.15000000  0.05000000       0.048
   0.35000000  0.15000000  0.05000000       0.048
   0.45000000  0.15000000  0.05000000       0.048
   0.25000000  0.25000000  0.05000000       0.024
   0.35000000  0.25000000  0.05000000       0.048
   0.45000000  0.25000000  0.05000000       0.048
   0.35000000  0.35000000  0.05000000       0.024
   0.45000000  0.35000000  0.05000000       0.048
   0.45000000  0.45000000  0.05000000       0.024
   0.15000000  0.15000000  0.15000000       0.008
   0.25000000  0.15000000  0.15000000       0.024
   0.35000000  0.15000000  0.15000000       0.024
   0.45000000  0.15000000  0.15000000       0.024
   0.25000000  0.25000000  0.15000000       0.024
   0.35000000  0.25000000  0.15000000       0.048
   0.45000000  0.25000000  0.15000000       0.048
   0.35000000  0.35000000  0.15000000       0.024
   0.45000000  0.35000000  0.15000000       0.048
   0.45000000  0.45000000  0.15000000       0.024
   0.25000000  0.25000000  0.25000000       0.008
   0.35000000  0.25000000  0.25000000       0.024
   0.45000000  0.25000000  0.25000000       0.024
   0.35000000  0.35000000  0.25000000       0.024
   0.45000000  0.35000000  0.25000000       0.048
   0.45000000  0.45000000  0.25000000       0.024
   0.35000000  0.35000000  0.35000000       0.008
   0.45000000  0.35000000  0.35000000       0.024
   0.45000000  0.45000000  0.35000000       0.024
   0.45000000  0.45000000  0.45000000       0.008
 
 position of ions in fractional coordinates (direct lattice) 
   0.00000000  0.00000000  0.00000000
   0.50000000  0.50000000  0.50000000
 
 position of ions in cartesian coordinates  (Angst):
   0.00000000  0.00000000  0.00000000
   1.42002600  1.42002600  1.42002600
 


--------------------------------------------------------------------------------------------------------


 k-point  1 :   0.0500 0.0500 0.0500  plane waves:    1081
 k-point  2 :   0.1500 0.0500 0.0500  plane waves:    1084
 k-point  3 :   0.2500 0.0500 0.0500  plane waves:    1093
 k-point  4 :   0.3500 0.0500 0.0500  plane waves:    1089
 k-point  5 :   0.4500 0.0500 0.0500  plane waves:    1100
 k-point  6 :   0.1500 0.1500 0.0500  plane waves:    1098
 k-point  7 :   0.2500 0.1500 0.0500  plane waves:    1094
 k-point  8 :   0.3500 0.1500 0.0500  plane waves:    1100
 k-point  9 :   0.4500 0.1500 0.0500  plane waves:    1098
 k-point 10 :   0.2500 0.2500 0.0500  plane waves:    1095
 k-point 11 :   0.3500 0.2500 0.0500  plane waves:    1092
 k-point 12 :   0.4500 0.2500 0.0500  plane waves:    1099
 k-point 13 :   0.3500 0.3500 0.0500  plane waves:    1091
 k-point 14 :   0.4500 0.3500 0.0500  plane waves:    1088
 k-point 15 :   0.4500 0.4500 0.0500  plane waves:    1083
 k-point 16 :   0.1500 0.1500 0.1500  plane waves:    1084
 k-point 17 :   0.2500 0.1500 0.1500  plane waves:    1088
 k-point 18 :   0.3500 0.1500 0.1500  plane waves:    1090
 k-point 19 :   0.4500 0.1500 0.1500  plane waves:    1099
 k-point 20 :   0.2500 0.2500 0.1500  plane waves:    1096
 k-point 21 :   0.3500 0.2500 0.1500  plane waves:    1090
 k-point 22 :   0.4500 0.2500 0.1500  plane waves:    1093
 k-point 23 :   0.3500 0.3500 0.1500  plane waves:    1091
 k-point 24 :   0.4500 0.3500 0.1500  plane waves:    1088
 k-point 25 :   0.4500 0.4500 0.1500  plane waves:    1084
 k-point 26 :   0.2500 0.2500 0.2500  plane waves:    1093
 k-point 27 :   0.3500 0.2500 0.2500  plane waves:    1090
 k-point 28 :   0.4500 0.2500 0.2500  plane waves:    1085
 k-point 29 :   0.3500 0.3500 0.2500  plane waves:    1087
 k-point 30 :   0.4500 0.3500 0.2500  plane waves:    1081
 k-point 31 :   0.4500 0.4500 0.2500  plane waves:    1078
 k-point 32 :   0.3500 0.3500 0.3500  plane waves:    1082
 k-point 33 :   0.4500 0.3500 0.3500  plane waves:    1081
 k-point 34 :   0.4500 0.4500 0.3500  plane waves:    1078
 k-point 35 :   0.4500 0.4500 0.4500  plane waves:    1076

 maximum and minimum number of plane-waves per node :       281      265

 maximum number of plane-waves:      1100
 maximum index in each direction: 
   IXMAX=    6   IYMAX=    6   IZMAX=    6
   IXMIN=   -6   IYMIN=   -6   IZMIN=   -6


 real space projection operators:
  total allocation   :       2257.03 KBytes
  max/ min on nodes  :        569.95        558.56


 parallel 3D FFT for wavefunctions:
    minimum data exchange during FFTs selected (reduces bandwidth)
 parallel 3D FFT for charge:
    minimum data exchange during FFTs selected (reduces bandwidth)


 total amount of memory used by VASP MPI-rank0    33974. kBytes
=======================================================================

   base      :      30000. kBytes
   nonlr-proj:        982. kBytes
   fftplans  :        476. kBytes
   grid      :       1141. kBytes
   one-center:         31. kBytes
   wavefun   :       1344. kBytes
 
     INWAV:  cpu time    0.0000: real time    0.0001
 Broyden mixing: mesh for mixing (old mesh)
   NGX = 13   NGY = 13   NGZ = 13
  (NGX  = 56   NGY  = 56   NGZ  = 56)
  gives a total of   2197 points

 initial charge density was supplied:
 charge density of overlapping atoms calculated
 number of electron      28.0000000 magnetization      10.0000000
 keeping initial charge density in first step


--------------------------------------------------------------------------------------------------------


 Maximum index for non-local projection operator         2062
 Maximum index for augmentation-charges         1986 (set IRDMAX)


--------------------------------------------------------------------------------------------------------


 First call to EWALD:  gamma=   0.624
 Maximum number of real-space cells 3x 3x 3
 Maximum number of reciprocal cells 3x 3x 3

    FEWALD:  cpu time    0.0012: real time    0.0013


--------------------------------------- Iteration      1(   1)  ---------------------------------------


    POTLOK:  cpu time    0.0128: real time    0.0129
    SETDIJ:  cpu time    0.0070: real time    0.0070
     EDDAV:  cpu time    0.5175: real time    0.5292
 BZINTS: Fermi energy: 21.417467; 28.000000 electrons
         Band energy: -74.364261;  BLOECHL correction: -0.127125
       DOS:  cpu time    0.0352: real time    0.0353
    --------------------------------------------
      LOOP:  cpu time    0.5724: real time    0.5844

 eigenvalue-minimisations  :  3420
 total energy-change (2. order) : 0.2480635E+03  (-0.2192457E+04)
 number of electron      28.0000000 magnetization      10.0000000
 augmentation part       28.0000000 magnetization      10.0000000

 Free energy of the ion-electron system (eV)
  ---------------------------------------------------
  alpha Z        PSCENC =       218.87048721
  Ewald energy   TEWEN  =     -3616.56080017
  -Hartree energ DENC   =     -1162.86386254
  -exchange      EXHF   =         0.00000000
  -V(xc)+E(xc)   XCENC  =       147.54621443
  PAW double counting   =      3997.93860218    -4177.34792201
  entropy T*S    EENTRO =         0.00000000
  eigenvalues    EBANDS =       -74.36426148
  atomic energy  EATOM  =      4914.84507650
  Solvation  Ediel_sol  =         0.00000000
  ---------------------------------------------------
  free energy    TOTEN  =       248.06353412 eV

  energy without entropy =      248.06353412  energy(sigma->0) =      248.06353412


--------------------------------------------------------------------------------------------------------




--------------------------------------- Iteration      1(   2)  ---------------------------------------


     EDDAV:  cpu time    0.5099: real time    0.5111
 BZINTS: Fermi energy: 12.204304; 28.000000 electrons
         Band energy:-331.407197;  BLOECHL correction: -0.072821
       DOS:  cpu time    0.0308: real time    0.0309
    --------------------------------------------
      LOOP:  cpu time    0.5407: real time    0.5420

 eigenvalue-minimisations  :  3432
 total energy-change (2. order) :-0.2570429E+03  (-0.2467969E+03)
 number of electron      28.0000000 magnetization      10.0000000
 augmentation part       28.0000000 magnetization      10.0000000

 Free energy of the ion-electron system (eV)
  ---------------------------------------------------
  alpha Z        PSCENC =       218.87048721
  Ewald energy   TEWEN  =     -3616.56080017
  -Hartree energ DENC   =     -1162.86386254
  -exchange      EXHF   =         0.00000000
  -V(xc)+E(xc)   XCENC  =       147.54621443
  PAW double counting   =      3997.93860218    -4177.34792201
  entropy T*S    EENTRO =         0.00000000
  eigenvalues    EBANDS =      -331.40719674
  atomic energy  EATOM  =      4914.84507650
  Solvation  Ediel_sol  =         0.00000000
  ---------------------------------------------------
  free energy    TOTEN  =        -8.97940114 eV

  energy without entropy =       -8.97940114  energy(sigma->0) =       -8.97940114


--------------------------------------------------------------------------------------------------------




--------------------------------------- Iteration      1(   3)  ---------------------------------------


     EDDAV:  cpu time    0.5423: real time    0.5443
 BZINTS: Fermi energy: 12.036989; 28.000000 electrons
         Band energy:-338.639528;  BLOECHL correction: -0.071282
       DOS:  cpu time    0.0334: real time    0.0335
    --------------------------------------------
      LOOP:  cpu time    0.5757: real time    0.5778

 eigenvalue-minimisations  :  3672
 total energy-change (2. order) :-0.7232331E+01  (-0.7219135E+01)
 number of electron      28.0000000 magnetization      10.0000000
 augmentation part       28.0000000 magnetization      10.0000000

 Free energy of the ion-electron system (eV)
  ---------------------------------------------------
  alpha Z        PSCENC =       218.87048721
  Ewald energy   TEWEN  =     -3616.56080017
  -Hartree energ DENC   =     -1162.86386254
  -exchange      EXHF   =         0.00000000
  -V(xc)+E(xc)   XCENC  =       147.54621443
  PAW double counting   =      3997.93860218    -4177.34792201
  entropy T*S    EENTRO =         0.00000000
  eigenvalues    EBANDS =      -338.63952789
  atomic energy  EATOM  =      4914.84507650
  Solvation  Ediel_sol  =         0.00000000
  ---------------------------------------------------
  free energy    TOTEN  =       -16.21173229 eV

  energy without entropy =      -16.21173229  energy(sigma->0) =      -16.21173229


--------------------------------------------------------------------------------------------------------




--------------------------------------- Iteration      1(   4)  ---------------------------------------


     EDDAV:  cpu time    0.5669: real time    0.5686
 BZINTS: Fermi energy: 12.036513; 28.000000 electrons
         Band energy:-338.701675;  BLOECHL correction: -0.071274
       DOS:  cpu time    0.0326: real time    0.0328
    --------------------------------------------
      LOOP:  cpu time    0.5995: real time    0.6014

 eigenvalue-minimisations  :  3888
 total energy-change (2. order) :-0.6214666E-01  (-0.6215453E-01)
 number of electron      28.0000000 magnetization      10.0000000
 augmentation part       28.0000000 magnetization      10.0000000

 Free energy of the ion-electron system (eV)
  ---------------------------------------------------
  alpha Z        PSCENC =       218.87048721
  Ewald energy   TEWEN  =     -3616.56080017
  -Hartree energ DENC   =     -1162.86386254
  -exchange      EXHF   =         0.00000000
  -V(xc)+E(xc)   XCENC  =       147.54621443
  PAW double counting   =      3997.93860218    -4177.34792201
  entropy T*S    EENTRO =         0.00000000
  eigenvalues    EBANDS =      -338.70167454
  atomic energy  EATOM  =      4914.84507650
  Solvation  Ediel_sol  =         0.00000000
  ---------------------------------------------------
  free energy    TOTEN  =       -16.27387894 eV

  energy without entropy =      -16.27387894  energy(sigma->0) =      -16.27387894


--------------------------------------------------------------------------------------------------------




--------------------------------------- Iteration      1(   5)  ---------------------------------------


     EDDAV:  cpu time    0.5459: real time    0.5474
 BZINTS: Fermi energy: 12.036511; 28.000000 electrons
         Band energy:-338.702823;  BLOECHL correction: -0.071274
       DOS:  cpu time    0.0334: real time    0.0335
    CHARGE:  cpu time    0.0221: real time    0.0222
    MIXING:  cpu time    0.0007: real time    0.0007
    --------------------------------------------
      LOOP:  cpu time    0.6020: real time    0.6037

 eigenvalue-minimisations  :  3744
 total energy-change (2. order) :-0.1148038E-02  (-0.1148070E-02)
 number of electron      27.9999985 magnetization       4.3573891
 augmentation part       15.9044518 magnetization       2.8335915

 Broyden mixing:
  rms(total) = 0.24992E+01    rms(broyden)= 0.24992E+01
  rms(prec ) = 0.39514E+01
  weight for this iteration     100.00

 Free energy of the ion-electron system (eV)
  ---------------------------------------------------
  alpha Z        PSCENC =       218.87048721
  Ewald energy   TEWEN  =     -3616.56080017
  -Hartree energ DENC   =     -1162.86386254
  -exchange      EXHF   =         0.00000000
  -V(xc)+E(xc)   XCENC  =       147.54621443
  PAW double counting   =      3997.93860218    -4177.34792201
  entropy T*S    EENTRO =         0.00000000
  eigenvalues    EBANDS =      -338.70282258
  atomic energy  EATOM  =      4914.84507650
  Solvation  Ediel_sol  =         0.00000000
  ---------------------------------------------------
  free energy    TOTEN  =       -16.27502698 eV

  energy without entropy =      -16.27502698  energy(sigma->0) =      -16.27502698


--------------------------------------------------------------------------------------------------------




--------------------------------------- Iteration      1(   6)  ---------------------------------------


    POTLOK:  cpu time    0.0105: real time    0.0106
    SETDIJ:  cpu time    0.0053: real time    0.0053
     EDDAV:  cpu time    0.5066: real time    0.5081
 BZINTS: Fermi energy:  9.265651; 28.000000 electrons
         Band energy:-409.593117;  BLOECHL correction: -0.036201
       DOS:  cpu time    0.0313: real time    0.0314
    CHARGE:  cpu time    0.0219: real time    0.0219
    MIXING:  cpu time    0.0006: real time    0.0006
    --------------------------------------------
      LOOP:  cpu time    0.5761: real time    0.5778

 eigenvalue-minimisations  :  3444
 total energy-change (2. order) :-0.1841021E+00  (-0.7492792E+00)
 number of electron      27.9999984 magnetization       4.5319526
 augmentation part       17.0678881 magnetization       3.5496962

 Broyden mixing:
  rms(total) = 0.69118E+00    rms(broyden)= 0.69118E+00
  rms(prec ) = 0.86637E+00
  weight for this iteration     100.00

 eigenvalues of (default mixing * dielectric matrix)
  average eigenvalue GAMMA=   0.8370
  0.8370

 Free energy of the ion-electron system (eV)
  ---------------------------------------------------
  alpha Z        PSCENC =       218.87048721
  Ewald energy   TEWEN  =     -3616.56080017
  -Hartree energ DENC   =     -1089.08677592
  -exchange      EXHF   =         0.00000000
  -V(xc)+E(xc)   XCENC  =       140.63831593
  PAW double counting   =      4113.88614891    -4289.45846413
  entropy T*S    EENTRO =         0.00000000
  eigenvalues    EBANDS =      -409.59311739
  atomic energy  EATOM  =      4914.84507650
  Solvation  Ediel_sol  =         0.00000000
  ---------------------------------------------------
  free energy    TOTEN  =       -16.45912906 eV

  energy without entropy =      -16.45912906  energy(sigma->0) =      -16.45912906


--------------------------------------------------------------------------------------------------------




--------------------------------------- Iteration      1(   7)  ---------------------------------------


    POTLOK:  cpu time    0.0109: real time    0.0112
    SETDIJ:  cpu time    0.0053: real time    0.0053
     EDDAV:  cpu time    0.4983: real time    0.4995
 BZINTS: Fermi energy:  9.762108; 28.000000 electrons
         Band energy:-395.209386;  BLOECHL correction: -0.033726
       DOS:  cpu time    0.0340: real time    0.0340
    CHARGE:  cpu time    0.0217: real time    0.0217
    MIXING:  cpu time    0.0004: real time    0.0004
    --------------------------------------------
      LOOP:  cpu time    0.5705: real time    0.5722

 eigenvalue-minimisations  :  3408
 total energy-change (2. order) :-0.5454289E-01  (-0.6146893E-01)
 number of electron      27.9999985 magnetization       4.4437245
 augmentation part       16.7743573 magnetization       3.5266859

 Broyden mixing:
  rms(total) = 0.43075E+00    rms(broyden)= 0.43075E+00
  rms(prec ) = 0.52582E+00
  weight for this iteration     100.00

 eigenvalues of (default mixing * dielectric matrix)
  average eigenvalue GAMMA=   0.7673
  0.9881  0.5466

 Free energy of the ion-electron system (eV)
  ---------------------------------------------------
  alpha Z        PSCENC =       218.87048721
  Ewald energy   TEWEN  =     -3616.56080017
  -Hartree energ DENC   =     -1099.07794565
  -exchange      EXHF   =         0.00000000
  -V(xc)+E(xc)   XCENC  =       141.33081500
  PAW double counting   =      4219.83989754    -4400.55181651
  entropy T*S    EENTRO =         0.00000000
  eigenvalues    EBANDS =      -395.20938588
  atomic energy  EATOM  =      4914.84507650
  Solvation  Ediel_sol  =         0.00000000
  ---------------------------------------------------
  free energy    TOTEN  =       -16.51367195 eV

  energy without entropy =      -16.51367195  energy(sigma->0) =      -16.51367195


--------------------------------------------------------------------------------------------------------




--------------------------------------- Iteration      1(   8)  ---------------------------------------


    POTLOK:  cpu time    0.0103: real time    0.0104
    SETDIJ:  cpu time    0.0052: real time    0.0052
     EDDAV:  cpu time    0.5384: real time    0.5401
 BZINTS: Fermi energy:  9.688571; 28.000000 electrons
         Band energy:-397.473452;  BLOECHL correction: -0.033981
       DOS:  cpu time    0.0348: real time    0.0349
    CHARGE:  cpu time    0.0216: real time    0.0217
    MIXING:  cpu time    0.0004: real time    0.0004
    --------------------------------------------
      LOOP:  cpu time    0.6106: real time    0.6126

 eigenvalue-minimisations  :  3708
 total energy-change (2. order) :-0.9711629E-02  (-0.1513872E-02)
 number of electron      27.9999985 magnetization       4.3699073
 augmentation part       16.8104571 magnetization       3.4531049

 Broyden mixing:
  rms(total) = 0.13690E+00    rms(broyden)= 0.13690E+00
  rms(prec ) = 0.21417E+00
  weight for this iteration     100.00

 eigenvalues of (default mixing * dielectric matrix)
  average eigenvalue GAMMA=   1.0474
  1.6985  0.8570  0.5868

 Free energy of the ion-electron system (eV)
  ---------------------------------------------------
  alpha Z        PSCENC =       218.87048721
  Ewald energy   TEWEN  =     -3616.56080017
  -Hartree energ DENC   =     -1095.16351261
  -exchange      EXHF   =         0.00000000
  -V(xc)+E(xc)   XCENC  =       141.10684476
  PAW double counting   =      4267.86492114    -4450.01294870
  entropy T*S    EENTRO =         0.00000000
  eigenvalues    EBANDS =      -397.47345172
  atomic energy  EATOM  =      4914.84507650
  Solvation  Ediel_sol  =         0.00000000
  ---------------------------------------------------
  free energy    TOTEN  =       -16.52338358 eV

  energy without entropy =      -16.52338358  energy(sigma->0) =      -16.52338358


--------------------------------------------------------------------------------------------------------




--------------------------------------- Iteration      1(   9)  ---------------------------------------


    POTLOK:  cpu time    0.0103: real time    0.0104
    SETDIJ:  cpu time    0.0052: real time    0.0052
     EDDAV:  cpu time    0.5296: real time    0.5309
 BZINTS: Fermi energy:  9.610450; 28.000000 electrons
         Band energy:-399.763370;  BLOECHL correction: -0.034534
       DOS:  cpu time    0.0322: real time    0.0322
    CHARGE:  cpu time    0.0215: real time    0.0216
    MIXING:  cpu time    0.0004: real time    0.0004
    --------------------------------------------
      LOOP:  cpu time    0.5992: real time    0.6008

 eigenvalue-minimisations  :  3648
 total energy-change (2. order) : 0.8283075E-02  (-0.5245919E-03)
 number of electron      27.9999985 magnetization       4.4017426
 augmentation part       16.8466340 magnetization       3.4830299

 Broyden mixing:
  rms(total) = 0.33702E-01    rms(broyden)= 0.33702E-01
  rms(prec ) = 0.45953E-01
  weight for this iteration     100.00

 eigenvalues of (default mixing * dielectric matrix)
  average eigenvalue GAMMA=   1.1854
  2.3391  1.0620  0.6993  0.6413

 Free energy of the ion-electron system (eV)
  ---------------------------------------------------
  alpha Z        PSCENC =       218.87048721
  Ewald energy   TEWEN  =     -3616.56080017
  -Hartree energ DENC   =     -1090.25569209
  -exchange      EXHF   =         0.00000000
  -V(xc)+E(xc)   XCENC  =       140.86353889
  PAW double counting   =      4344.36920247    -4528.88354366
  entropy T*S    EENTRO =         0.00000000
  eigenvalues    EBANDS =      -399.76336966
  atomic energy  EATOM  =      4914.84507650
  Solvation  Ediel_sol  =         0.00000000
  ---------------------------------------------------
  free energy    TOTEN  =       -16.51510051 eV

  energy without entropy =      -16.51510051  energy(sigma->0) =      -16.51510051


--------------------------------------------------------------------------------------------------------




--------------------------------------- Iteration      1(  10)  ---------------------------------------


    POTLOK:  cpu time    0.0103: real time    0.0104
    SETDIJ:  cpu time    0.0052: real time    0.0052
     EDDAV:  cpu time    0.5007: real time    0.5021
 BZINTS: Fermi energy:  9.624880; 28.000000 electrons
         Band energy:-399.222131;  BLOECHL correction: -0.034692
       DOS:  cpu time    0.0312: real time    0.0313
    CHARGE:  cpu time    0.0214: real time    0.0215
    MIXING:  cpu time    0.0005: real time    0.0005
    --------------------------------------------
      LOOP:  cpu time    0.5693: real time    0.5709

 eigenvalue-minimisations  :  3432
 total energy-change (2. order) : 0.1983143E-03  (-0.2240602E-03)
 number of electron      27.9999985 magnetization       4.4065167
 augmentation part       16.8346415 magnetization       3.4850454

 Broyden mixing:
  rms(total) = 0.44162E-02    rms(broyden)= 0.44162E-02
  rms(prec ) = 0.54474E-02
  weight for this iteration     100.00

 eigenvalues of (default mixing * dielectric matrix)
  average eigenvalue GAMMA=   1.1291
  2.4318  1.0999  0.7830  0.6971  0.6338

 Free energy of the ion-electron system (eV)
  ---------------------------------------------------
  alpha Z        PSCENC =       218.87048721
  Ewald energy   TEWEN  =     -3616.56080017
  -Hartree energ DENC   =     -1089.87152470
  -exchange      EXHF   =         0.00000000
  -V(xc)+E(xc)   XCENC  =       140.87092763
  PAW double counting   =      4373.17030268    -4558.61723990
  entropy T*S    EENTRO =         0.00000000
  eigenvalues    EBANDS =      -399.22213144
  atomic energy  EATOM  =      4914.84507650
  Solvation  Ediel_sol  =         0.00000000
  ---------------------------------------------------
  free energy    TOTEN  =       -16.51490219 eV

  energy without entropy =      -16.51490219  energy(sigma->0) =      -16.51490219


--------------------------------------------------------------------------------------------------------




--------------------------------------- Iteration      1(  11)  ---------------------------------------


    POTLOK:  cpu time    0.0103: real time    0.0105
    SETDIJ:  cpu time    0.0052: real time    0.0052
     EDDAV:  cpu time    0.5277: real time    0.5291
 BZINTS: Fermi energy:  9.623322; 28.000000 electrons
         Band energy:-399.254287;  BLOECHL correction: -0.034709
       DOS:  cpu time    0.0339: real time    0.0340
    CHARGE:  cpu time    0.0214: real time    0.0215
    MIXING:  cpu time    0.0005: real time    0.0005
    --------------------------------------------
      LOOP:  cpu time    0.5990: real time    0.6007

 eigenvalue-minimisations  :  3612
 total energy-change (2. order) :-0.5995007E-04  (-0.4981863E-05)
 number of electron      27.9999985 magnetization       4.4059205
 augmentation part       16.8351941 magnetization       3.4847071

 Broyden mixing:
  rms(total) = 0.24191E-02    rms(broyden)= 0.24191E-02
  rms(prec ) = 0.32653E-02
  weight for this iteration     100.00

 eigenvalues of (default mixing * dielectric matrix)
  average eigenvalue GAMMA=   1.2960
  2.3071  2.3071  1.0750  0.6331  0.7556  0.6977

 Free energy of the ion-electron system (eV)
  ---------------------------------------------------
  alpha Z        PSCENC =       218.87048721
  Ewald energy   TEWEN  =     -3616.56080017
  -Hartree energ DENC   =     -1089.86429008
  -exchange      EXHF   =         0.00000000
  -V(xc)+E(xc)   XCENC  =       140.87325453
  PAW double counting   =      4374.37939392    -4559.80379708
  entropy T*S    EENTRO =         0.00000000
  eigenvalues    EBANDS =      -399.25428697
  atomic energy  EATOM  =      4914.84507650
  Solvation  Ediel_sol  =         0.00000000
  ---------------------------------------------------
  free energy    TOTEN  =       -16.51496214 eV

  energy without entropy =      -16.51496214  energy(sigma->0) =      -16.51496214


--------------------------------------------------------------------------------------------------------




--------------------------------------- Iteration      1(  12)  ---------------------------------------


    POTLOK:  cpu time    0.0103: real time    0.0104
    SETDIJ:  cpu time    0.0051: real time    0.0052
     EDDAV:  cpu time    0.5616: real time    0.5632
 BZINTS: Fermi energy:  9.621799; 28.000000 electrons
         Band energy:-399.288500;  BLOECHL correction: -0.034722
       DOS:  cpu time    0.0322: real time    0.0322
    CHARGE:  cpu time    0.0216: real time    0.0217
    MIXING:  cpu time    0.0006: real time    0.0006
    --------------------------------------------
      LOOP:  cpu time    0.6314: real time    0.6332

 eigenvalue-minimisations  :  3840
 total energy-change (2. order) :-0.8130902E-05  (-0.5027408E-06)
 number of electron      27.9999985 magnetization       4.4056486
 augmentation part       16.8359037 magnetization       3.4847028

 Broyden mixing:
  rms(total) = 0.95723E-03    rms(broyden)= 0.95723E-03
  rms(prec ) = 0.13527E-02
  weight for this iteration     100.00

 eigenvalues of (default mixing * dielectric matrix)
  average eigenvalue GAMMA=   1.2323
  2.3903  2.3903  1.0837  0.7906  0.7165  0.6272  0.6272

 Free energy of the ion-electron system (eV)
  ---------------------------------------------------
  alpha Z        PSCENC =       218.87048721
  Ewald energy   TEWEN  =     -3616.56080017
  -Hartree energ DENC   =     -1089.91644181
  -exchange      EXHF   =         0.00000000
  -V(xc)+E(xc)   XCENC  =       140.87595873
  PAW double counting   =      4375.44470629    -4560.78545697
  entropy T*S    EENTRO =         0.00000000
  eigenvalues    EBANDS =      -399.28850005
  atomic energy  EATOM  =      4914.84507650
  Solvation  Ediel_sol  =         0.00000000
  ---------------------------------------------------
  free energy    TOTEN  =       -16.51497027 eV

  energy without entropy =      -16.51497027  energy(sigma->0) =      -16.51497027


--------------------------------------------------------------------------------------------------------




--------------------------------------- Iteration      1(  13)  ---------------------------------------


    POTLOK:  cpu time    0.0107: real time    0.0110
    SETDIJ:  cpu time    0.0052: real time    0.0052
     EDDAV:  cpu time    0.5137: real time    0.5154
 BZINTS: Fermi energy:  9.622403; 28.000000 electrons
         Band energy:-399.276042;  BLOECHL correction: -0.034714
       DOS:  cpu time    0.0313: real time    0.0313
    CHARGE:  cpu time    0.0213: real time    0.0214
    MIXING:  cpu time    0.0005: real time    0.0005
    --------------------------------------------
      LOOP:  cpu time    0.5827: real time    0.5849

 eigenvalue-minimisations  :  3516
 total energy-change (2. order) : 0.6739732E-05  (-0.1300444E-06)
 number of electron      27.9999985 magnetization       4.4054499
 augmentation part       16.8356005 magnetization       3.4843937

 Broyden mixing:
  rms(total) = 0.24915E-03    rms(broyden)= 0.24915E-03
  rms(prec ) = 0.33846E-03
  weight for this iteration     100.00

 eigenvalues of (default mixing * dielectric matrix)
  average eigenvalue GAMMA=   1.2899
  2.5193  2.4429  1.4836  1.0645  0.8085  0.6259  0.6874  0.6874

 Free energy of the ion-electron system (eV)
  ---------------------------------------------------
  alpha Z        PSCENC =       218.87048721
  Ewald energy   TEWEN  =     -3616.56080017
  -Hartree energ DENC   =     -1089.92325797
  -exchange      EXHF   =         0.00000000
  -V(xc)+E(xc)   XCENC  =       140.87584662
  PAW double counting   =      4375.57134464    -4560.91761827
  entropy T*S    EENTRO =         0.00000000
  eigenvalues    EBANDS =      -399.27604210
  atomic energy  EATOM  =      4914.84507650
  Solvation  Ediel_sol  =         0.00000000
  ---------------------------------------------------
  free energy    TOTEN  =       -16.51496353 eV

  energy without entropy =      -16.51496353  energy(sigma->0) =      -16.51496353


--------------------------------------------------------------------------------------------------------




--------------------------------------- Iteration      1(  14)  ---------------------------------------


    POTLOK:  cpu time    0.0104: real time    0.0106
    SETDIJ:  cpu time    0.0052: real time    0.0052
     EDDAV:  cpu time    0.4354: real time    0.4364
 BZINTS: Fermi energy:  9.622643; 28.000000 electrons
         Band energy:-399.271186;  BLOECHL correction: -0.034712
       DOS:  cpu time    0.0331: real time    0.0331
    CHARGE:  cpu time    0.0213: real time    0.0214
    MIXING:  cpu time    0.0006: real time    0.0006
    --------------------------------------------
      LOOP:  cpu time    0.5059: real time    0.5073

 eigenvalue-minimisations  :  2724
 total energy-change (2. order) : 0.1539765E-05  (-0.1540424E-07)
 number of electron      27.9999985 magnetization       4.4054673
 augmentation part       16.8354861 magnetization       3.4843774

 Broyden mixing:
  rms(total) = 0.65616E-04    rms(broyden)= 0.65613E-04
  rms(prec ) = 0.85598E-04
  weight for this iteration     100.00

 eigenvalues of (default mixing * dielectric matrix)
  average eigenvalue GAMMA=   1.2119
  2.6078  2.4649  1.2904  1.0506  0.8268  0.6325  0.6632  0.6854  0.6854

 Free energy of the ion-electron system (eV)
  ---------------------------------------------------
  alpha Z        PSCENC =       218.87048721
  Ewald energy   TEWEN  =     -3616.56080017
  -Hartree energ DENC   =     -1089.92560338
  -exchange      EXHF   =         0.00000000
  -V(xc)+E(xc)   XCENC  =       140.87567694
  PAW double counting   =      4375.57232551    -4560.92093906
  entropy T*S    EENTRO =         0.00000000
  eigenvalues    EBANDS =      -399.27118553
  atomic energy  EATOM  =      4914.84507650
  Solvation  Ediel_sol  =         0.00000000
  ---------------------------------------------------
  free energy    TOTEN  =       -16.51496199 eV

  energy without entropy =      -16.51496199  energy(sigma->0) =      -16.51496199


--------------------------------------------------------------------------------------------------------




--------------------------------------- Iteration      1(  15)  ---------------------------------------


    POTLOK:  cpu time    0.0104: real time    0.0105
    SETDIJ:  cpu time    0.0051: real time    0.0051
     EDDAV:  cpu time    0.3320: real time    0.3343
 BZINTS: Fermi energy:  9.622610; 28.000000 electrons
         Band energy:-399.272089;  BLOECHL correction: -0.034712
       DOS:  cpu time    0.0340: real time    0.0341
    --------------------------------------------
      LOOP:  cpu time    0.3814: real time    0.3840

 eigenvalue-minimisations  :  1728
 total energy-change (2. order) :-0.1057469E-07  (-0.1108602E-08)
 number of electron      27.9999985 magnetization       4.4054673
 augmentation part       16.8354861 magnetization       3.4843774

 Free energy of the ion-electron system (eV)
  ---------------------------------------------------
  alpha Z        PSCENC =       218.87048721
  Ewald energy   TEWEN  =     -3616.56080017
  -Hartree energ DENC   =     -1089.92523235
  -exchange      EXHF   =         0.00000000
  -V(xc)+E(xc)   XCENC  =       140.87570946
  PAW double counting   =      4375.56757759    -4560.91569119
  entropy T*S    EENTRO =         0.00000000
  eigenvalues    EBANDS =      -399.27208906
  atomic energy  EATOM  =      4914.84507650
  Solvation  Ediel_sol  =         0.00000000
  ---------------------------------------------------
  free energy    TOTEN  =       -16.51496200 eV

  energy without entropy =      -16.51496200  energy(sigma->0) =      -16.51496200


--------------------------------------------------------------------------------------------------------




 average (electrostatic) potential at core
  the test charge radii are     0.9500
  (the norm of the test charge is              1.0000)
       1 -73.6649       2 -73.6649
 
 
 
 E-fermi :   9.6226     XC(G=0): -13.6241     alpha+bet :-17.4163


 spin component 1

 k-point     1 :       0.0500    0.0500    0.0500
  band No.  band energies     occupation 
      1     -44.5604      1.00000
      2     -44.5604      1.00000
      3     -44.5462      1.00000
      4     -44.2894      1.00000
      5     -44.2747      1.00000
      6     -44.2747      1.00000
      7       1.3982      1.00000
      8       4.9382      1.00000
      9       4.9382      1.00000
     10       7.3047      1.00000
     11       7.3047      1.00000
     12       7.4308      1.00000
     13       8.5803      1.00000
     14       8.5803      1.00000
     15       9.4947      1.00000
     16       9.6871      0.60078
     17       9.6871      0.00979
     18      19.1996      0.00000
     19      19.1996      0.00000
     20      19.4416      0.00000
     21      25.8102      0.00000
     22      25.8102      0.00000
     23      30.6973      0.00000
     24      33.3488      0.00000

 k-point     2 :       0.1500    0.0500    0.0500
  band No.  band energies     occupation 
      1     -44.5664      1.00000
      2     -44.5457      1.00000
      3     -44.5241      1.00000
      4     -44.3212      1.00000
      5     -44.2879      1.00000
      6     -44.2802      1.00000
      7       1.8018      1.00000
      8       5.1061      1.00000
      9       5.1083      1.00000
     10       7.2462      1.00000
     11       7.2945      1.00000
     12       7.5990      1.00000
     13       8.4141      1.00000
     14       8.6552      1.00000
     15       9.1040      1.00000
     16       9.3724      1.02104
     17       9.6656      0.13610
     18      17.0988      0.00000
     19      19.9186      0.00000
     20      20.0957      0.00000
     21      25.9618      0.00000
     22      27.1439      0.00000
     23      31.5526      0.00000
     24      32.1499      0.00000

 k-point     3 :       0.2500    0.0500    0.0500
  band No.  band energies     occupation 
      1     -44.5637      1.00000
      2     -44.5178      1.00000
      3     -44.4933      1.00000
      4     -44.3689      1.00000
      5     -44.3133      1.00000
      6     -44.3003      1.00000
      7       2.5673      1.00000
      8       5.3675      1.00000
      9       5.4274      1.00000
     10       7.2423      1.00000
     11       7.2873      1.00000
     12       7.8415      1.00000
     13       8.1077      1.00000
     14       8.6066      1.00000
     15       8.7946      1.00000
     16       8.8889      1.00000
     17       9.4858      1.03919
     18      14.5756      0.00000
     19      21.1878      0.00000
     20      21.3585      0.00000
     21      26.2944      0.00000
     22      27.9718      0.00000
     23      29.6288      0.00000
     24      31.2960      0.00000

 k-point     4 :       0.3500    0.0500    0.0500
  band No.  band energies     occupation 
      1     -44.5492      1.00000
      2     -44.4800      1.00000
      3     -44.4554      1.00000
      4     -44.4242      1.00000
      5     -44.3486      1.00000
      6     -44.3316      1.00000
      7       3.5893      1.00000
      8       5.5401      1.00000
      9       5.8724      1.00000
     10       7.2457      1.00000
     11       7.3212      1.00000
     12       7.7678      1.00000
     13       8.1303      1.00000
     14       8.1502      1.00000
     15       8.3928      1.00000
     16       9.0191      1.00000
     17       9.2003      1.03866
     18      12.2832      0.00000
     19      22.7945      0.00000
     20      23.0073      0.00000
     21      26.8754      0.00000
     22      27.8748      0.00000
     23      28.6105      0.00000
     24      29.1475      0.00000

 k-point     5 :       0.4500    0.0500    0.0500
  band No.  band energies     occupation 
      1     -44.5204      1.00000
      2     -44.4774      1.00000
      3     -44.4362      1.00000
      4     -44.4132      1.00000
      5     -44.3909      1.00000
      6     -44.3705      1.00000
      7       4.6411      1.00000
      8       5.3581      1.00000
      9       6.3946      1.00000
     10       6.9173      1.00000
     11       7.4990      1.00000
     12       7.7310      1.00000
     13       7.7624      1.00000
     14       7.9854      1.00000
     15       8.4990      1.00000
     16       8.8573      1.00000
     17       9.4832      0.98552
     18      10.5196      0.00000
     19      24.5324      0.00000
     20      24.9046      0.00000
     21      26.2267      0.00000
     22      26.9672      0.00000
     23      27.8212      0.00000
     24      29.2508      0.00000

 k-point     6 :       0.1500    0.1500    0.0500
  band No.  band energies     occupation 
      1     -44.5805      1.00000
      2     -44.5369      1.00000
      3     -44.4918      1.00000
      4     -44.3627      1.00000
      5     -44.2981      1.00000
      6     -44.2747      1.00000
      7       2.1896      1.00000
      8       5.2390      1.00000
      9       5.2978      1.00000
     10       7.0936      1.00000
     11       7.2373      1.00000
     12       7.8699      1.00000
     13       8.4385      1.00000
     14       8.6105      1.00000
     15       8.6246      1.00000
     16       9.1495      1.00691
     17       9.7347      0.03139
     18      17.1959      0.00000
     19      18.2810      0.00000
     20      20.6509      0.00000
     21      26.6283      0.00000
     22      28.5393      0.00000
     23      29.9220      0.00000
     24      31.9695      0.00000

 k-point     7 :       0.2500    0.1500    0.0500
  band No.  band energies     occupation 
      1     -44.5898      1.00000
      2     -44.5113      1.00000
      3     -44.4539      1.00000
      4     -44.4174      1.00000
      5     -44.3211      1.00000
      6     -44.2822      1.00000
      7       2.9160      1.00000
      8       5.4554      1.00000
      9       5.6206      1.00000
     10       6.9880      1.00000
     11       7.1823      1.00000
     12       8.1057      1.00000
     13       8.2001      1.00000
     14       8.2824      1.00000
     15       8.7216      1.00000
     16       8.7243      1.00000
     17       9.6885      0.28921
     18      14.9838      0.00000
     19      19.0120      0.00000
     20      21.7957      0.00000
     21      27.0199      0.00000
     22      27.7478      0.00000
     23      29.9239      0.00000
     24      30.6413      0.00000

 k-point     8 :       0.3500    0.1500    0.0500
  band No.  band energies     occupation 
      1     -44.5857      1.00000
      2     -44.4759      1.00000
      3     -44.4751      1.00000
      4     -44.4132      1.00000
      5     -44.3536      1.00000
      6     -44.3031      1.00000
      7       3.8581      1.00000
      8       5.5954      1.00000
      9       6.0116      1.00000
     10       6.9644      1.00000
     11       7.1188      1.00000
     12       7.6669      1.00000
     13       8.0930      1.00000
     14       8.3376      1.00000
     15       8.5642      1.00000
     16       8.9632      1.00000
     17       9.4967      0.92395
     18      12.6532      0.00000
     19      20.3761      0.00000
     20      23.3121      0.00000
     21      25.6604      0.00000
     22      27.5890      0.00000
     23      28.7791      0.00000
     24      30.9264      0.00000

 k-point     9 :       0.4500    0.1500    0.0500
  band No.  band energies     occupation 
      1     -44.5647      1.00000
      2     -44.5267      1.00000
      3     -44.4349      1.00000
      4     -44.3927      1.00000
      5     -44.3723      1.00000
      6     -44.3344      1.00000
      7       4.7817      1.00000
      8       5.4045      1.00000
      9       6.4366      1.00000
     10       6.8149      1.00000
     11       7.1496      1.00000
     12       7.3555      1.00000
     13       8.0549      1.00000
     14       8.1284      1.00000
     15       8.8892      1.00000
     16       9.2081      1.00000
     17       9.5412      0.77850
     18      10.7643      0.00000
     19      21.9649      0.00000
     20      23.7293      0.00000
     21      25.0473      0.00000
     22      26.8831      0.00000
     23      28.4946      0.00000
     24      29.8474      0.00000

 k-point    10 :       0.2500    0.2500    0.0500
  band No.  band energies     occupation 
      1     -44.6129      1.00000
      2     -44.4907      1.00000
      3     -44.4770      1.00000
      4     -44.4110      1.00000
      5     -44.3389      1.00000
      6     -44.2748      1.00000
      7       3.5389      1.00000
      8       5.5104      1.00000
      9       6.0140      1.00000
     10       6.7713      1.00000
     11       7.1536      1.00000
     12       7.5986      1.00000
     13       8.4262      1.00000
     14       8.4287      1.00000
     15       8.6229      1.00000
     16       8.6648      1.00000
     17       9.8079     -0.03393
     18      14.8630      0.00000
     19      17.4658      0.00000
     20      22.7548      0.00000
     21      25.3834      0.00000
     22      27.3662      0.00000
     23      30.0596      0.00000
     24      32.3851      0.00000

 k-point    11 :       0.3500    0.2500    0.0500
  band No.  band energies     occupation 
      1     -44.6221      1.00000
      2     -44.5352      1.00000
      3     -44.4619      1.00000
      4     -44.3695      1.00000
      5     -44.3642      1.00000
      6     -44.2821      1.00000
      7       4.2636      1.00000
      8       5.4677      1.00000
      9       6.4672      1.00000
     10       6.6638      1.00000
     11       7.1892      1.00000
     12       7.2435      1.00000
     13       8.2727      1.00000
     14       8.4045      1.00000
     15       8.8096      1.00000
     16       9.0698      1.02187
     17       9.7579      0.00398
     18      13.0482      0.00000
     19      18.1035      0.00000
     20      23.1679      0.00000
     21      24.0662      0.00000
     22      27.8480      0.00000
     23      28.7851      0.00000
     24      31.4420      0.00000

 k-point    12 :       0.4500    0.2500    0.0500
  band No.  band energies     occupation 
      1     -44.6125      1.00000
      2     -44.5826      1.00000
      3     -44.4288      1.00000
      4     -44.3951      1.00000
      5     -44.3323      1.00000
      6     -44.3021      1.00000
      7       4.8666      1.00000
      8       5.2596      1.00000
      9       6.6821      1.00000
     10       6.7708      1.00000
     11       7.0120      1.00000
     12       7.2241      1.00000
     13       8.3123      1.00000
     14       8.3953      1.00000
     15       9.1810      1.00000
     16       9.5468      0.95175
     17       9.7287      0.02978
     18      11.1093      0.00000
     19      19.4888      0.00000
     20      21.1931      0.00000
     21      25.5958      0.00000
     22      27.2068      0.00000
     23      28.6470      0.00000
     24      29.8692      0.00000

 k-point    13 :       0.3500    0.3500    0.0500
  band No.  band energies     occupation 
      1     -44.6453      1.00000
      2     -44.5897      1.00000
      3     -44.4426      1.00000
      4     -44.3797      1.00000
      5     -44.3312      1.00000
      6     -44.2749      1.00000
      7       4.6032      1.00000
      8       5.2500      1.00000
      9       6.4671      1.00000
     10       6.7899      1.00000
     11       7.0688      1.00000
     12       7.8004      1.00000
     13       8.3288      1.00000
     14       8.5818      1.00000
     15       8.7312      1.00000
     16       9.5045      0.96286
     17       9.8584     -0.00497
     18      12.6725      0.00000
     19      17.0753      0.00000
     20      20.9326      0.00000
     21      25.1102      0.00000
     22      28.2079      0.00000
     23      28.4080      0.00000
     24      30.7491      0.00000

 k-point    14 :       0.4500    0.3500    0.0500
  band No.  band energies     occupation 
      1     -44.6485      1.00000
      2     -44.6295      1.00000
      3     -44.4208      1.00000
      4     -44.3991      1.00000
      5     -44.3012      1.00000
      6     -44.2818      1.00000
      7       4.8276      1.00000
      8       5.0273      1.00000
      9       6.4158      1.00000
     10       6.5252      1.00000
     11       7.6335      1.00000
     12       8.0156      1.00000
     13       8.4770      1.00000
     14       8.6082      1.00000
     15       9.2344      1.00000
     16       9.7475      0.31701
     17      10.0490      0.00000
     18      11.2874      0.00000
     19      17.6522      0.00000
     20      19.0564      0.00000
     21      26.3162      0.00000
     22      27.4991      0.00000
     23      28.8185      0.00000
     24      29.7273      0.00000

 k-point    15 :       0.4500    0.4500    0.0500
  band No.  band energies     occupation 
      1     -44.6652      1.00000
      2     -44.6586      1.00000
      3     -44.4124      1.00000
      4     -44.4049      1.00000
      5     -44.2817      1.00000
      6     -44.2750      1.00000
      7       4.7954      1.00000
      8       4.8569      1.00000
      9       6.2865      1.00000
     10       6.3240      1.00000
     11       8.3604      1.00000
     12       8.5982      1.00000
     13       8.6193      1.00000
     14       8.7801      1.00000
     15       9.2763      1.00000
     16       9.7024      0.28329
     17      10.4351      0.00000
     18      10.9857      0.00000
     19      16.9429      0.00000
     20      17.5290      0.00000
     21      27.0345      0.00000
     22      27.4880      0.00000
     23      29.0850      0.00000
     24      29.4301      0.00000

 k-point    16 :       0.1500    0.1500    0.1500
  band No.  band energies     occupation 
      1     -44.5648      1.00000
      2     -44.5648      1.00000
      3     -44.4560      1.00000
      4     -44.4002      1.00000
      5     -44.2889      1.00000
      6     -44.2889      1.00000
      7       2.5669      1.00000
      8       5.4263      1.00000
      9       5.4263      1.00000
     10       7.0361      1.00000
     11       7.0361      1.00000
     12       8.0860      1.00000
     13       8.1860      1.00000
     14       8.5280      1.00000
     15       8.5280      1.00000
     16       9.4248      0.99979
     17       9.4248      1.11232
     18      17.8412      0.00000
     19      17.8412      0.00000
     20      19.2370      0.00000
     21      28.7874      0.00000
     22      28.7874      0.00000
     23      29.7386      0.00000
     24      29.7386      0.00000

 k-point    17 :       0.2500    0.1500    0.1500
  band No.  band energies     occupation 
      1     -44.5850      1.00000
      2     -44.5351      1.00000
      3     -44.4515      1.00000
      4     -44.4179      1.00000
      5     -44.3161      1.00000
      6     -44.2884      1.00000
      7       3.2656      1.00000
      8       5.6655      1.00000
      9       5.6997      1.00000
     10       6.9035      1.00000
     11       6.9348      1.00000
     12       7.5732      1.00000
     13       8.3823      1.00000
     14       8.5849      1.00000
     15       8.6826      1.00000
     16       8.9719      1.00000
     17       9.5063      0.95267
     18      15.4701      0.00000
     19      18.9551      0.00000
     20      19.8768      0.00000
     21      27.5256      0.00000
     22      28.5416      0.00000
     23      29.3030      0.00000
     24      30.5092      0.00000

 k-point    18 :       0.3500    0.1500    0.1500
  band No.  band energies     occupation 
      1     -44.5912      1.00000
      2     -44.5045      1.00000
      3     -44.4946      1.00000
      4     -44.3810      1.00000
      5     -44.3541      1.00000
      6     -44.2990      1.00000
      7       4.1487      1.00000
      8       5.8192      1.00000
      9       5.9787      1.00000
     10       6.7952      1.00000
     11       6.9293      1.00000
     12       7.2679      1.00000
     13       8.2260      1.00000
     14       8.5458      1.00000
     15       8.8082      1.00000
     16       9.1279      1.00000
     17       9.4067      0.92705
     18      13.1244      0.00000
     19      20.3548      0.00000
     20      21.0651      0.00000
     21      25.4924      0.00000
     22      26.4577      0.00000
     23      30.1153      0.00000
     24      31.4557      0.00000

 k-point    19 :       0.4500    0.1500    0.1500
  band No.  band energies     occupation 
      1     -44.5795      1.00000
      2     -44.5495      1.00000
      3     -44.4478      1.00000
      4     -44.3994      1.00000
      5     -44.3475      1.00000
      6     -44.3194      1.00000
      7       4.9803      1.00000
      8       5.5622      1.00000
[...]
     19      18.3222      0.00000
     20      20.7971      0.00000
     21      22.3836      0.00000
     22      24.8362      0.00000
     23      26.2509      0.00000
     24      30.1362      0.00000

 k-point    30 :       0.4500    0.3500    0.2500
  band No.  band energies     occupation 
      1     -42.0278      1.00000
      2     -42.0275      1.00000
      3     -41.8763      1.00000
      4     -41.8250      1.00000
      5     -41.7188      1.00000
      6     -41.7145      1.00000
      7       6.7329      1.00000
      8       7.0450      1.00000
      9       7.9674      1.00000
     10       7.9783      1.00000
     11       8.3645      1.00000
     12       8.4913      1.00000
     13      11.1841      0.00000
     14      11.2347      0.00000
     15      11.5150      0.00000
     16      11.5333      0.00000
     17      13.8173      0.00000
     18      14.8897      0.00000
     19      19.1261      0.00000
     20      20.5768      0.00000
     21      21.9129      0.00000
     22      23.4382      0.00000
     23      26.7662      0.00000
     24      28.2366      0.00000

 k-point    31 :       0.4500    0.4500    0.2500
  band No.  band energies     occupation 
      1     -42.0356      1.00000
      2     -42.0350      1.00000
      3     -41.8569      1.00000
      4     -41.8361      1.00000
      5     -41.7252      1.00000
      6     -41.7214      1.00000
      7       6.8530      1.00000
      8       6.9335      1.00000
      9       7.8846      1.00000
     10       7.8996      1.00000
     11       8.6613      1.00000
     12       8.7305      1.00000
     13      11.3009      0.00000
     14      11.3256      0.00000
     15      11.5265      0.00000
     16      11.5391      0.00000
     17      14.4940      0.00000
     18      15.0169      0.00000
     19      18.3897      0.00000
     20      19.0493      0.00000
     21      23.0062      0.00000
     22      24.1213      0.00000
     23      25.2333      0.00000
     24      26.3294      0.00000

 k-point    32 :       0.3500    0.3500    0.3500
  band No.  band energies     occupation 
      1     -42.0118      1.00000
      2     -41.9615      1.00000
      3     -41.9615      1.00000
      4     -41.7729      1.00000
      5     -41.7729      1.00000
      6     -41.7227      1.00000
      7       6.9265      1.00000
      8       7.5003      1.00000
      9       7.9276      1.00000
     10       7.9276      1.00000
     11       8.0742      1.00000
     12       8.0742      1.00000
     13      11.3764      0.00000
     14      11.3764      0.00000
     15      11.4152      0.00000
     16      11.4152      0.00000
     17      13.8656      0.00000
     18      17.4974      0.00000
     19      17.4974      0.00000
     20      19.8865      0.00000
     21      22.8236      0.00000
     22      22.8236      0.00000
     23      24.1463      0.00000
     24      28.0399      0.00000

 k-point    33 :       0.4500    0.3500    0.3500
  band No.  band energies     occupation 
      1     -42.0064      1.00000
      2     -41.9906      1.00000
      3     -41.8987      1.00000
      4     -41.8338      1.00000
      5     -41.7566      1.00000
      6     -41.7378      1.00000
      7       7.2799      1.00000
      8       7.3821      1.00000
      9       7.8722      1.00000
     10       7.9206      1.00000
     11       8.0467      1.00000
     12       8.2171      1.00000
     13      11.3597      0.00000
     14      11.3850      0.00000
     15      11.5028      0.00000
     16      11.5140      0.00000
     17      14.8064      0.00000
     18      16.0278      0.00000
     19      19.1308      0.00000
     20      20.4299      0.00000
     21      20.9115      0.00000
     22      21.6695      0.00000
     23      24.5510      0.00000
     24      26.0869      0.00000

 k-point    34 :       0.4500    0.4500    0.3500
  band No.  band energies     occupation 
      1     -41.9892      1.00000
      2     -41.9781      1.00000
      3     -41.8850      1.00000
      4     -41.8488      1.00000
      5     -41.7791      1.00000
      6     -41.7645      1.00000
      7       7.4284      1.00000
      8       7.4421      1.00000
      9       7.8024      1.00000
     10       7.8454      1.00000
     11       8.1730      1.00000
     12       8.2613      1.00000
     13      11.4437      0.00000
     14      11.4544      0.00000
     15      11.5333      0.00000
     16      11.5376      0.00000
     17      15.8061      0.00000
     18      16.5886      0.00000
     19      18.5409      0.00000
     20      19.5007      0.00000
     21      21.0126      0.00000
     22      22.1184      0.00000
     23      22.9696      0.00000
     24      24.1595      0.00000

 k-point    35 :       0.4500    0.4500    0.4500
  band No.  band energies     occupation 
      1     -41.9444      1.00000
      2     -41.9120      1.00000
      3     -41.9120      1.00000
      4     -41.8434      1.00000
      5     -41.8434      1.00000
      6     -41.8109      1.00000
      7       7.6625      1.00000
      8       7.8092      1.00000
      9       7.8092      1.00000
     10       7.9081      1.00000
     11       7.9533      1.00000
     12       7.9533      1.00000
     13      11.5393      0.00000
     14      11.5393      0.00000
     15      11.5423      0.00000
     16      11.5423      0.00000
     17      17.1205      0.00000
     18      18.3147      0.00000
     19      18.3147      0.00000
     20      20.0019      0.00000
     21      20.1675      0.00000
     22      20.1675      0.00000
     23      21.5183      0.00000
     24      22.3099      0.00000


--------------------------------------------------------------------------------------------------------


 soft charge-density along one line, spin component           1
         0         1         2         3         4         5         6         7         8         9
 total charge-density along one line
 
 soft charge-density along one line, spin component           2
         0         1         2         3         4         5         6         7         8         9
 total charge-density along one line
 
 pseudopotential strength for first ion, spin component:           1
-44.857   0.000   0.000   7.570  -0.000  -0.000  -0.000  -0.000
  0.000 -44.857   0.000  -0.000   7.570  -0.000   0.000  -0.000
  0.000   0.000 -44.857  -0.000  -0.000   7.570  -0.000   0.000
  7.570  -0.000  -0.000   5.638  -0.000   0.000   0.000   0.000
 -0.000   7.570  -0.000  -0.000   5.638  -0.000  -0.000   0.000
 -0.000  -0.000   7.570   0.000  -0.000   5.638   0.000  -0.000
 -0.000   0.000  -0.000   0.000  -0.000   0.000  -1.981   0.000
 -0.000  -0.000   0.000   0.000   0.000  -0.000   0.000  -1.981
  0.000  -0.000   0.000  -0.000   0.000  -0.000  -0.000   0.000
  0.000  -0.000  -0.000  -0.000   0.000   0.000   0.000   0.000
  0.000  -0.000   0.000  -0.000   0.000   0.000   0.000   0.000
 -0.000   0.000  -0.000   0.000  -0.000   0.000  -2.495   0.000
 -0.000  -0.000   0.000   0.000   0.000  -0.000   0.000  -2.495
  0.000  -0.000   0.000  -0.000   0.000  -0.000  -0.000   0.000
  0.000  -0.000  -0.000  -0.000   0.000   0.000   0.000   0.000
  0.000  -0.000   0.000  -0.000   0.000   0.000   0.000   0.000
  0.000   0.000   0.000   0.000   0.000   0.000  -0.000  -0.000
  0.000   0.000  -0.000   0.000   0.000   0.000  -0.000  -0.000
 pseudopotential strength for first ion, spin component:           2
-42.886  -0.000   0.000   6.737   0.000  -0.000  -0.000  -0.000
 -0.000 -42.886  -0.000   0.000   6.737   0.000  -0.000  -0.000
  0.000  -0.000 -42.886  -0.000   0.000   6.737  -0.000  -0.000
  6.737   0.000  -0.000   5.866   0.000  -0.000  -0.000   0.000
  0.000   6.737   0.000   0.000   5.866   0.000   0.000   0.000
 -0.000   0.000   6.737  -0.000   0.000   5.866   0.000   0.000
 -0.000  -0.000  -0.000  -0.000   0.000   0.000  -0.455  -0.000
 -0.000  -0.000  -0.000   0.000   0.000   0.000  -0.000  -0.455
  0.000  -0.000  -0.000  -0.000   0.000  -0.000  -0.000  -0.000
 -0.000   0.000  -0.000   0.000   0.000   0.000   0.000   0.000
  0.000  -0.000   0.000  -0.000   0.000   0.000  -0.000   0.000
 -0.000  -0.000  -0.000   0.000   0.000   0.000  -0.995  -0.000
 -0.000  -0.000  -0.000   0.000   0.000   0.000  -0.000  -0.995
  0.000  -0.000   0.000  -0.000   0.000  -0.000  -0.000  -0.000
 -0.000  -0.000  -0.000   0.000   0.000   0.000   0.000   0.000
  0.000  -0.000   0.000  -0.000   0.000   0.000  -0.000   0.000
  0.000   0.000  -0.000   0.000   0.000   0.000  -0.000   0.000
  0.000   0.000  -0.000   0.000   0.000   0.000  -0.000   0.000
 total augmentation occupancy for first ion, spin component:           1
  1.992   0.000   0.000  -0.026  -0.000  -0.000   0.000   0.000  -0.000  -0.000   0.000   0.000   0.000  -0.000   0.000   0.000
  0.000   1.992   0.000  -0.000  -0.026  -0.000   0.000   0.000   0.000   0.000   0.000   0.000   0.000   0.000   0.000  -0.000
  0.000   0.000   1.992  -0.000   0.000  -0.026   0.000  -0.000   0.000   0.000   0.000   0.000  -0.000  -0.000   0.000   0.000
 -0.026   0.000   0.000   0.201  -0.000  -0.000   0.000  -0.000   0.000   0.000   0.000  -0.000  -0.000   0.000   0.000   0.000
 -0.000  -0.026  -0.000  -0.000   0.201   0.000   0.000   0.000   0.000  -0.000   0.000   0.000  -0.000   0.000  -0.000  -0.000
  0.000   0.000  -0.026  -0.000   0.000   0.201  -0.000   0.000   0.000  -0.000   0.000   0.000   0.000   0.000  -0.000   0.000
  0.000  -0.000   0.000  -0.000   0.000  -0.000   2.169  -0.000  -0.000   0.000  -0.000  -1.222  -0.000  -0.000  -0.000  -0.000
  0.000   0.000  -0.000  -0.000  -0.000   0.000   0.000   2.169  -0.000   0.000  -0.000   0.000  -1.222   0.000   0.000   0.000
  0.000   0.000   0.000   0.000   0.000   0.000  -0.000  -0.000   3.408   0.000  -0.000  -0.000  -0.000  -2.184  -0.000   0.000
  0.000   0.000   0.000   0.000   0.000  -0.000   0.000   0.000  -0.000   2.169   0.000   0.000   0.000   0.000  -1.222   0.000
  0.000   0.000  -0.000   0.000   0.000   0.000   0.000  -0.000  -0.000   0.000   3.408  -0.000  -0.000   0.000   0.000  -2.184
  0.000   0.000   0.000   0.000   0.000  -0.000  -1.222  -0.000  -0.000   0.000  -0.000   1.650   0.000   0.000   0.000  -0.000
  0.000   0.000   0.000   0.000   0.000   0.000   0.000  -1.222  -0.000   0.000  -0.000   0.000   1.650  -0.000  -0.000   0.000
  0.000   0.000  -0.000   0.000   0.000   0.000  -0.000   0.000  -2.184   0.000  -0.000  -0.000  -0.000   2.224  -0.000  -0.000
  0.000   0.000   0.000   0.000   0.000   0.000   0.000   0.000  -0.000  -1.222  -0.000   0.000   0.000  -0.000   1.650   0.000
  0.000  -0.000  -0.000   0.000   0.000   0.000   0.000  -0.000  -0.000   0.000  -2.184  -0.000  -0.000   0.000  -0.000   2.224
  0.000   0.000   0.000   0.000   0.000   0.000  -0.000   0.000  -0.000  -0.000   0.000   0.000   0.000   0.000   0.000   0.000
  0.000  -0.000  -0.000  -0.000  -0.000  -0.000  -0.000   0.000   0.000   0.000  -0.000   0.000   0.000   0.000   0.000  -0.000
 total augmentation occupancy for first ion, spin component:           2
 -0.002   0.000   0.000  -0.009   0.000   0.000   0.000   0.000   0.000   0.000   0.000   0.000   0.000   0.000   0.000   0.000
  0.000  -0.002   0.000   0.000  -0.009   0.000  -0.000   0.000   0.000   0.000  -0.000   0.000   0.000   0.000   0.000   0.000
  0.000   0.000  -0.002   0.000  -0.000  -0.009   0.000  -0.000   0.000   0.000   0.000   0.000  -0.000   0.000   0.000  -0.000
 -0.009  -0.000  -0.000  -0.020   0.000   0.000   0.000   0.000   0.000   0.000   0.000   0.000   0.000   0.000   0.000   0.000
  0.000  -0.009   0.000   0.000  -0.020  -0.000   0.000  -0.000   0.000   0.000   0.000   0.000   0.000   0.000   0.000   0.000
 -0.000   0.000  -0.009   0.000  -0.000  -0.020   0.000   0.000   0.000   0.000   0.000   0.000   0.000   0.000   0.000  -0.000
  0.000   0.000   0.000   0.000   0.000   0.000   1.759   0.000   0.000   0.000  -0.000  -0.661   0.000   0.000  -0.000  -0.000
  0.000   0.000   0.000   0.000   0.000   0.000   0.000   1.759  -0.000   0.000  -0.000  -0.000  -0.661  -0.000  -0.000  -0.000
  0.000   0.000   0.000  -0.000   0.000  -0.000  -0.000   0.000   2.822   0.000  -0.000   0.000  -0.000  -1.163   0.000  -0.000
 -0.000   0.000   0.000   0.000   0.000   0.000  -0.000   0.000   0.000   1.759   0.000   0.000  -0.000  -0.000  -0.661   0.000
  0.000  -0.000   0.000   0.000   0.000   0.000  -0.000  -0.000   0.000   0.000   2.822   0.000   0.000  -0.000  -0.000  -1.163
  0.000  -0.000   0.000  -0.000   0.000   0.000  -0.661  -0.000   0.000   0.000  -0.000  -0.006   0.000   0.000   0.000  -0.000
  0.000   0.000   0.000  -0.000  -0.000   0.000  -0.000  -0.661  -0.000   0.000   0.000  -0.000  -0.006   0.000  -0.000  -0.000
  0.000   0.000  -0.000   0.000   0.000   0.000  -0.000  -0.000  -1.163  -0.000  -0.000  -0.000  -0.000   0.239   0.000  -0.000
 -0.000   0.000   0.000   0.000   0.000   0.000   0.000  -0.000  -0.000  -0.661  -0.000  -0.000  -0.000   0.000  -0.006   0.000
  0.000  -0.000  -0.000   0.000  -0.000   0.000   0.000  -0.000  -0.000   0.000  -1.163  -0.000  -0.000   0.000  -0.000   0.239
  0.000   0.000   0.000   0.000  -0.000  -0.000   0.000   0.000  -0.000  -0.000   0.000  -0.000   0.000   0.000   0.000  -0.000
  0.000   0.000   0.000   0.000   0.000   0.000   0.000  -0.000  -0.000   0.000  -0.000  -0.000  -0.000   0.000   0.000   0.000


------------------------ aborting loop because EDIFF is reached ----------------------------------------


 


 total charge     
 
# of ion       s       p       d       tot
------------------------------------------
    1        0.385   6.378   6.075  12.838
    2        0.385   6.378   6.075  12.838
--------------------------------------------------
tot          0.770  12.756  12.150  25.675
 


 magnetization (x)
 
# of ion       s       p       d       tot
------------------------------------------
    1       -0.008  -0.042   2.292   2.243
    2       -0.008  -0.042   2.292   2.243
--------------------------------------------------
tot         -0.015  -0.083   4.584   4.485
 
    CHARGE:  cpu time    0.0204: real time    0.0204
    FORLOC:  cpu time    0.0002: real time    0.0002
    FORNL :  cpu time    0.1094: real time    0.1099
    STRESS:  cpu time    0.3271: real time    0.3282
    FORCOR:  cpu time    0.0099: real time    0.0099
    FORHAR:  cpu time    0.0012: real time    0.0012
    MIXING:  cpu time    0.0005: real time    0.0005
    OFIELD:  cpu time    0.0000: real time    0.0000

  FORCE on cell =-STRESS in cart. coord.  units (eV):
  Direction    XX          YY          ZZ          XY          YZ          ZX
  --------------------------------------------------------------------------------------
  Alpha Z   218.87049   218.87049   218.87049
  Ewald   -1205.52018 -1205.52018 -1205.52018    -0.00000    -0.00000    -0.00000
  Hartree   363.30844   363.30844   363.30844    -0.00000    -0.00000    -0.00000
  E(xc)    -179.77985  -179.77985  -179.77985     0.00000    -0.00000    -0.00000
  Local     289.65246   289.65246   289.65246    -0.00000     0.00000    -0.00000
  n-local   -60.13819   -54.13556   -50.51918     2.76441    -1.55633     0.58779
  augment   285.39651   285.39651   285.39651     0.00000     0.00000    -0.00000
  Kinetic   283.96466   282.54833   281.79987     2.94427    -0.71940    -0.10118
  Fock        0.00000     0.00000     0.00000     0.00000     0.00000     0.00000
  -------------------------------------------------------------------------------------
  Total      -0.23214    -0.23214    -0.23214     0.00000     0.00000     0.00000
  in kB     -16.23617   -16.23617   -16.23617     0.00000     0.00000     0.00000
  external pressure =      -16.24 kB  Pullay stress =        0.00 kB


 VOLUME and BASIS-vectors are now :
 -----------------------------------------------------------------------------
  energy-cutoff  :      760.00
  volume of cell :       22.91
      direct lattice vectors                 reciprocal lattice vectors
     2.840052000  0.000000000  0.000000000     0.352106229  0.000000000  0.000000000
     0.000000000  2.840052000  0.000000000     0.000000000  0.352106229  0.000000000
     0.000000000  0.000000000  2.840052000     0.000000000  0.000000000  0.352106229

  length of vectors
     2.840052000  2.840052000  2.840052000     0.352106229  0.352106229  0.352106229


 FORCES acting on ions
    electron-ion (+dipol)            ewald-force                    non-local-force                 convergence-correction
 -----------------------------------------------------------------------------------------------
   -.337E-13 -.338E-13 -.480E-13   -.529E-15 -.103E-14 -.897E-14   0.000E+00 0.000E+00 0.000E+00   0.359E-13 0.796E-15 -.363E-13
   0.821E-12 0.747E-11 0.865E-11   0.472E-14 0.447E-14 0.926E-14   0.000E+00 0.000E+00 0.000E+00   0.690E-13 0.330E-14 -.891E-13
 -----------------------------------------------------------------------------------------------
   0.787E-12 0.744E-11 0.860E-11   0.419E-14 0.343E-14 0.284E-15   0.000E+00 0.000E+00 0.000E+00   0.105E-12 0.409E-14 -.125E-12
 
 
 POSITION                                       TOTAL-FORCE (eV/Angst)
 -----------------------------------------------------------------------------------
      0.00000      0.00000      0.00000         0.000000      0.000000      0.000000
      1.42003      1.42003      1.42003        -0.000000     -0.000000     -0.000000
 -----------------------------------------------------------------------------------
    total drift:                                0.000000      0.000000      0.000000


--------------------------------------------------------------------------------------------------------



  FREE ENERGIE OF THE ION-ELECTRON SYSTEM (eV)
  ---------------------------------------------------
  free  energy   TOTEN  =       -16.51496200 eV

  energy  without entropy=      -16.51496200  energy(sigma->0) =      -16.51496200
 


--------------------------------------------------------------------------------------------------------


    POTLOK:  cpu time    0.0154: real time    0.0154


--------------------------------------------------------------------------------------------------------


     LOOP+:  cpu time    9.0195: real time    9.0589
    4ORBIT:  cpu time    0.0000: real time    0.0000
 


 total charge     
 
# of ion       s       p       d       tot
------------------------------------------
    1        0.385   6.378   6.075  12.838
    2        0.385   6.378   6.075  12.838
--------------------------------------------------
tot          0.770  12.756  12.150  25.675
 


 magnetization (x)
 
# of ion       s       p       d       tot
------------------------------------------
    1       -0.008  -0.042   2.292   2.243
    2       -0.008  -0.042   2.292   2.243
--------------------------------------------------
tot         -0.015  -0.083   4.584   4.485
 
 BZINTS: Fermi energy:  9.622610; 28.000000 electrons
         Band energy:-399.272089;  BLOECHL correction: -0.034712

 total amount of memory used by VASP MPI-rank0    33974. kBytes
=======================================================================

   base      :      30000. kBytes
   nonlr-proj:        982. kBytes
   fftplans  :        476. kBytes
   grid      :       1141. kBytes
   one-center:         31. kBytes
   wavefun   :       1344. kBytes
 
  
  
 General timing and accounting informations for this job:
 ========================================================
  
                  Total CPU time used (sec):        9.801
                            User time (sec):        9.650
                          System time (sec):        0.151
                         Elapsed time (sec):        9.846
  
                   Maximum memory used (kb):       59944.
                   Average memory used (kb):           0.
  
                          Minor page faults:        13444
                          Major page faults:            0
                 Voluntary context switches:          163
