       N       E                     dE             d eps       ncg     rms          rms(c)
DAV:   1     0.116682930377E+04    0.11668E+04   -0.31495E+04 37872   0.314E+03
DAV:   2     0.304332520715E+03   -0.86250E+03   -0.78640E+03 45584   0.631E+02
DAV:   3    -0.126600307121E+02   -0.31699E+03   -0.31019E+03 50768   0.333E+02
DAV:   4    -0.596951708045E+02   -0.47035E+02   -0.46154E+02 60784   0.125E+02
DAV:   5    -0.639228141735E+02   -0.42276E+01   -0.40811E+01 66376   0.395E+01    0.273E+01
DAV:   6    -0.646779477724E+02   -0.75513E+00   -0.10437E+02 49280   0.106E+02    0.324E+01
DAV:   7    -0.722892878395E+02   -0.76113E+01   -0.34692E+01 47992   0.594E+01    0.159E+01
DAV:   8    -0.727240859311E+02   -0.43480E+00   -0.11254E+01 47576   0.570E+01    0.731E+00
DAV:   9    -0.746860627346E+02   -0.19620E+01   -0.10706E+01 60336   0.211E+01    0.745E+00
DAV:  10    -0.748882673903E+02   -0.20220E+00   -0.27609E+00 55240   0.151E+01    0.679E+00
DAV:  11    -0.748595395788E+02    0.28728E-01   -0.90964E-01 59480   0.838E+00    0.435E+00
DAV:  12    -0.748988914786E+02   -0.39352E-01   -0.32826E-01 55280   0.495E+00    0.210E+00
DAV:  13    -0.749374453767E+02   -0.38554E-01   -0.29084E-01 60504   0.385E+00    0.969E-01
DAV:  14    -0.749688230077E+02   -0.31378E-01   -0.52740E-02 60792   0.150E+00    0.558E-01
DAV:  15    -0.749853045882E+02   -0.16482E-01   -0.32326E-02 58216   0.112E+00    0.690E-01
DAV:  16    -0.749832779550E+02    0.20266E-02   -0.80687E-03 63872   0.783E-01    0.341E-01
DAV:  17    -0.749828137212E+02    0.46423E-03   -0.21548E-03 59200   0.435E-01    0.195E-01
DAV:  18    -0.749825111387E+02    0.30258E-03   -0.99239E-04 60664   0.278E-01    0.736E-02
DAV:  19    -0.749824737923E+02    0.37346E-04   -0.24550E-04 66728   0.128E-01    0.292E-02
DAV:  20    -0.749824767539E+02   -0.29616E-05   -0.47167E-05 65448   0.686E-02    0.216E-02
DAV:  21    -0.749824655898E+02    0.11164E-04   -0.70915E-06 40280   0.393E-02    0.110E-02
DAV:  22    -0.749824686471E+02   -0.30573E-05   -0.86223E-06 46560   0.365E-02    0.805E-03
DAV:  23    -0.749824673238E+02    0.13233E-05   -0.13538E-05 29136   0.162E-02    0.235E-02
DAV:  24    -0.749824759443E+02   -0.86204E-05   -0.54251E-06 27008   0.338E-02    0.263E-02
DAV:  25    -0.749824774124E+02   -0.14681E-05   -0.66610E-07 24576   0.121E-02    0.271E-02
DAV:  26    -0.749824764978E+02    0.91460E-06   -0.44366E-07 24472   0.919E-03
   1 F= -.74982476E+02 E0= -.74982476E+02  d E =0.000000E+00  mag=    -0.0000
