       N       E                     dE             d eps       ncg     rms          rms(c)
DAV:   1     0.534923843683E+02    0.53492E+02   -0.58232E+03  5874   0.844E+02
DAV:   2    -0.119010979674E+02   -0.65393E+02   -0.60540E+02  5532   0.172E+02
DAV:   3    -0.135488706994E+02   -0.16478E+01   -0.16238E+01  6186   0.333E+01
DAV:   4    -0.135699988529E+02   -0.21128E-01   -0.21123E-01  6548   0.327E+00
DAV:   5    -0.135705583901E+02   -0.55954E-03   -0.55952E-03  6254   0.500E-01    0.239E+01
DAV:   6    -0.150494179604E+02   -0.14789E+01   -0.77915E+00  5858   0.512E+01    0.526E+00
DAV:   7    -0.148444948032E+02    0.20492E+00   -0.11110E+00  6038   0.183E+01    0.304E+00
DAV:   8    -0.148181414077E+02    0.26353E-01   -0.27405E-02  7380   0.229E+00    0.141E+00
DAV:   9    -0.148103444888E+02    0.77969E-02   -0.22445E-03  8160   0.597E-01    0.707E-01
DAV:  10    -0.148069723817E+02    0.33721E-02   -0.45193E-04  6724   0.209E-01    0.800E-02
DAV:  11    -0.148070075382E+02   -0.35157E-04   -0.81947E-05  7340   0.128E-01    0.337E-02
DAV:  12    -0.148070018116E+02    0.57266E-05   -0.64763E-06  6340   0.271E-02    0.158E-02
DAV:  13    -0.148069991805E+02    0.26311E-05   -0.67769E-07  3638   0.101E-02    0.506E-03
DAV:  14    -0.148069994930E+02   -0.31259E-06   -0.34801E-07  2980   0.545E-03
   1 F= -.14806999E+02 E0= -.14788085E+02  d E =-.378283E-01  mag=     3.2049
