=========================================
SLURM_JOB_ID = 63599673
SLURM_JOB_NODELIST = lnode47
SLURM_GPUS = 
SLURM_CPUS_ON_NODE = 8
SLURM_JOB_PARTITION = lenovo
SLURM_TASK_PID = 3324556
CUDA_VISIBLE_DEVICES = 
==========================================
 running on    8 total cores
 distrk:  each k-point on    8 cores,    1 groups
 distr:  one band on    4 cores,    2 groups
 using from now: INCAR     
 vasp.5.4.4.18Apr17-6-g9f103f2a35 (build Apr 28 2018 00:24:27) complex          
  
 POSCAR found type information on POSCAR  Co
 POSCAR found :  1 types and       2 ions
 scaLAPACK will be used
 LDA part: xc-table for Pade appr. of Perdew
 WARNING: stress and forces are not correct
 POSCAR, INCAR and KPOINTS ok, starting setup
 FFT: planning ...
 WAVECAR not read
 charge-density read from file: unknown                                 
 magnetization density read from file 1
 entering main loop
       N       E                     dE             d eps       ncg     rms          rms(c)
DAV:   1     0.522613524442E+02    0.52261E+02   -0.54349E+03  5826   0.797E+02
DAV:   2    -0.108604399024E+02   -0.63122E+02   -0.57155E+02  5544   0.169E+02
DAV:   3    -0.125959246416E+02   -0.17355E+01   -0.17097E+01  6236   0.340E+01
DAV:   4    -0.126193215763E+02   -0.23397E-01   -0.23390E-01  6814   0.343E+00
DAV:   5    -0.126198670747E+02   -0.54550E-03   -0.54549E-03  6390   0.471E-01
DAV:   6    -0.126198973651E+02   -0.30290E-04   -0.30289E-04  7074   0.856E-02
DAV:   7    -0.126198976242E+02   -0.25912E-06   -0.26049E-06  5028   0.648E-03
   1 F= -.12619898E+02 E0= -.12601105E+02  d E =-.375844E-01  mag=     3.2116
 writing wavefunctions
