       N       E                     dE             d eps       ncg     rms          rms(c)
DAV:   1     0.857645186580E+02    0.85765E+02   -0.84675E+03  4296   0.174E+03
DAV:   2    -0.138364188746E+02   -0.99601E+02   -0.92860E+02  4262   0.280E+02
DAV:   3    -0.161931886719E+02   -0.23568E+01   -0.22772E+01  4784   0.617E+01
DAV:   4    -0.162258497721E+02   -0.32661E-01   -0.32649E-01  6070   0.574E+00
DAV:   5    -0.162262258397E+02   -0.37607E-03   -0.37654E-03  5032   0.552E-01    0.144E+01
DAV:   6    -0.142629906008E+02    0.19632E+01   -0.16515E+01  4460   0.837E+01    0.796E+00
DAV:   7    -0.139288382664E+02    0.33415E+00   -0.22981E+00  4658   0.299E+01    0.482E+00
DAV:   8    -0.140784232705E+02   -0.14959E+00   -0.15127E-01  5762   0.636E+00    0.217E+00
DAV:   9    -0.140355166248E+02    0.42907E-01   -0.34496E-02  6188   0.279E+00    0.237E+00
DAV:  10    -0.140253508302E+02    0.10166E-01   -0.95491E-04  6084   0.447E-01    0.266E+00
DAV:  11    -0.140700104726E+02   -0.44660E-01   -0.32442E-02  5248   0.302E+00    0.423E-01
DAV:  12    -0.140704593356E+02   -0.44886E-03   -0.10033E-03  6080   0.387E-01    0.153E-01
DAV:  13    -0.140702554760E+02    0.20386E-03   -0.16303E-04  5646   0.208E-01    0.876E-03
DAV:  14    -0.140702438886E+02    0.11587E-04   -0.63095E-06  4750   0.282E-02    0.869E-03
DAV:  15    -0.140702508046E+02   -0.69160E-05   -0.31254E-07  4824   0.713E-03    0.481E-03
DAV:  16    -0.140702599293E+02   -0.91247E-05   -0.20395E-07  3090   0.679E-03    0.503E-04
DAV:  17    -0.140702592260E+02    0.70327E-06   -0.12465E-08  2296   0.151E-03    0.358E-04
DAV:  18    -0.140702600987E+02   -0.87268E-06   -0.30567E-09  2254   0.797E-04    0.687E-05
DAV:  19    -0.140702600687E+02    0.29975E-07   -0.92161E-10  2206   0.307E-04
   1 F= -.14070260E+02 E0= -.14070260E+02  d E =0.000000E+00  mag=     3.1560
