=========================================
SLURM_JOB_ID = 63455429
SLURM_JOB_NODELIST = lnode51
SLURM_GPUS = 
SLURM_CPUS_ON_NODE = 8
SLURM_JOB_PARTITION = lenovo
SLURM_TASK_PID = 947781
CUDA_VISIBLE_DEVICES = 
==========================================
 running on    8 total cores
 distrk:  each k-point on    8 cores,    1 groups
 distr:  one band on    4 cores,    2 groups
 using from now: INCAR     
 vasp.5.4.4.18Apr17-6-g9f103f2a35 (build Apr 28 2018 00:24:27) complex          
  
 POSCAR found type information on POSCAR  Co
 POSCAR found :  1 types and       2 ions
 scaLAPACK will be used

 ----------------------------------------------------------------------------- 
|                                                                             |
|  ADVICE TO THIS USER RUNNING 'VASP/VAMP'   (HEAR YOUR MASTER'S VOICE ...):  |
|                                                                             |
|      You have a (more or less) 'small supercell' and for smaller cells      |
|      it is recommended  to use the reciprocal-space projection scheme!      |
|      The real space optimization is not  efficient for small cells and it   |
|      is also less accurate ...                                              |
|      Therefore set LREAL=.FALSE. in the  INCAR file                         |
|                                                                             |
 ----------------------------------------------------------------------------- 

 LDA part: xc-table for Pade appr. of Perdew
 POSCAR, INCAR and KPOINTS ok, starting setup
 FFT: planning ...
 WAVECAR not read
 entering main loop
       N       E                     dE             d eps       ncg     rms          rms(c)
DAV:   1     0.991774117096E+02    0.99177E+02   -0.10358E+04  4272   0.219E+03
DAV:   2    -0.134312803738E+02   -0.11261E+03   -0.10535E+03  4256   0.303E+02
DAV:   3    -0.161924215061E+02   -0.27611E+01   -0.26537E+01  4772   0.696E+01
DAV:   4    -0.162274657504E+02   -0.35044E-01   -0.35036E-01  5970   0.620E+00
DAV:   5    -0.162279011403E+02   -0.43539E-03   -0.43601E-03  5056   0.632E-01    0.145E+01
DAV:   6    -0.142635131010E+02    0.19644E+01   -0.16535E+01  4496   0.845E+01    0.796E+00
DAV:   7    -0.139288776252E+02    0.33464E+00   -0.22969E+00  4658   0.301E+01    0.482E+00
DAV:   8    -0.140784496953E+02   -0.14957E+00   -0.15146E-01  5760   0.642E+00    0.217E+00
DAV:   9    -0.140355393452E+02    0.42910E-01   -0.34348E-02  6216   0.282E+00    0.237E+00
DAV:  10    -0.140252981423E+02    0.10241E-01   -0.95643E-04  6064   0.454E-01    0.266E+00
DAV:  11    -0.140700165710E+02   -0.44718E-01   -0.32529E-02  5278   0.305E+00    0.424E-01
DAV:  12    -0.140704593137E+02   -0.44274E-03   -0.98550E-04  6128   0.389E-01    0.151E-01
DAV:  13    -0.140702585651E+02    0.20075E-03   -0.15892E-04  5698   0.207E-01    0.862E-03
DAV:  14    -0.140702455339E+02    0.13031E-04   -0.61803E-06  4854   0.284E-02    0.803E-03
DAV:  15    -0.140702510447E+02   -0.55108E-05   -0.31181E-07  4714   0.725E-03    0.440E-03
DAV:  16    -0.140702591480E+02   -0.81032E-05   -0.18640E-07  3058   0.656E-03    0.499E-04
DAV:  17    -0.140702583731E+02    0.77484E-06   -0.10843E-08  2350   0.142E-03    0.330E-04
DAV:  18    -0.140702591735E+02   -0.80036E-06   -0.27255E-09  2254   0.779E-04    0.645E-05
DAV:  19    -0.140702591685E+02    0.49322E-08   -0.79239E-10  2188   0.290E-04
   1 F= -.14070259E+02 E0= -.14070259E+02  d E =0.000000E+00  mag=     3.1560
