=========================================
SLURM_JOB_ID = 63444608
SLURM_JOB_NODELIST = lnode53
SLURM_GPUS = 
SLURM_CPUS_ON_NODE = 16
SLURM_JOB_PARTITION = lenovo
SLURM_TASK_PID = 860611
CUDA_VISIBLE_DEVICES = 
==========================================
 running on   16 total cores
 distrk:  each k-point on   16 cores,    1 groups
 distr:  one band on    4 cores,    4 groups
 using from now: INCAR     
 vasp.5.4.4.18Apr17-6-g9f103f2a35 (build Apr 28 2018 00:24:27) complex          
  
 POSCAR found type information on POSCAR  Fe
 POSCAR found :  1 types and       2 ions
 scaLAPACK will be used

 ----------------------------------------------------------------------------- 
|                                                                             |
|  ADVICE TO THIS USER RUNNING 'VASP/VAMP'   (HEAR YOUR MASTER'S VOICE ...):  |
|                                                                             |
|      You have a (more or less) 'small supercell' and for smaller cells      |
|      it is recommended  to use the reciprocal-space projection scheme!      |
|      The real space optimization is not  efficient for small cells and it   |
|      is also less accurate ...                                              |
|      Therefore set LREAL=.FALSE. in the  INCAR file                         |
|                                                                             |
 ----------------------------------------------------------------------------- 

 LDA part: xc-table for Pade appr. of Perdew
 POSCAR, INCAR and KPOINTS ok, starting setup
 FFT: planning ...
 WAVECAR not read
 entering main loop
       N       E                     dE             d eps       ncg     rms          rms(c)
DAV:   1     0.293487056425E+03    0.29349E+03   -0.17690E+04 10040   0.228E+03
DAV:   2     0.626768396223E+01   -0.28722E+03   -0.27896E+03  9652   0.536E+02
DAV:   3    -0.758614778319E+01   -0.13854E+02   -0.13748E+02 10248   0.133E+02
DAV:   4    -0.777001496160E+01   -0.18387E+00   -0.18385E+00 10092   0.151E+01
DAV:   5    -0.777467740552E+01   -0.46624E-02   -0.46624E-02 10160   0.224E+00    0.228E+01
DAV:   6    -0.652631647131E+01    0.12484E+01   -0.10830E+01  9728   0.477E+01    0.112E+01
DAV:   7    -0.706487553663E+01   -0.53856E+00   -0.15358E+00  9896   0.113E+01    0.625E+00
DAV:   8    -0.726220933805E+01   -0.19733E+00   -0.51665E-01 10920   0.453E+00    0.278E+00
DAV:   9    -0.748751662941E+01   -0.22531E+00   -0.14618E+00 11472   0.478E+00    0.172E+00
DAV:  10    -0.761899809416E+01   -0.13148E+00   -0.52119E-01 10372   0.497E+00    0.119E+00
DAV:  11    -0.769909788070E+01   -0.80100E-01   -0.46925E-01 10732   0.416E+00    0.400E-01
DAV:  12    -0.770807480284E+01   -0.89769E-02   -0.40646E-02 10136   0.118E+00    0.278E-01
DAV:  13    -0.770923284634E+01   -0.11580E-02   -0.15209E-02 10428   0.792E-01    0.194E-01
DAV:  14    -0.770909602584E+01    0.13682E-03   -0.12934E-02 10656   0.767E-01    0.104E-01
DAV:  15    -0.770956741522E+01   -0.47139E-03   -0.13920E-03 10676   0.211E-01    0.600E-02
DAV:  16    -0.770940183808E+01    0.16558E-03   -0.57116E-03 10760   0.535E-01    0.424E-02
DAV:  17    -0.770963290024E+01   -0.23106E-03   -0.11592E-03 10496   0.254E-01    0.125E-02
DAV:  18    -0.770964154509E+01   -0.86448E-05   -0.30851E-05 10424   0.440E-02    0.118E-02
DAV:  19    -0.770963248356E+01    0.90615E-05   -0.28439E-05 10572   0.414E-02    0.461E-03
DAV:  20    -0.770962852067E+01    0.39629E-05   -0.31860E-06 10424   0.936E-03    0.240E-03
DAV:  21    -0.770962923117E+01   -0.71051E-06   -0.18148E-07  7120   0.544E-03    0.105E-03
DAV:  22    -0.770962622904E+01    0.30021E-05   -0.11887E-06  6468   0.611E-03    0.303E-04
DAV:  23    -0.770962689259E+01   -0.66355E-06   -0.74772E-08  4840   0.276E-03    0.294E-04
DAV:  24    -0.770962699519E+01   -0.10260E-06   -0.34200E-09  4808   0.577E-04    0.637E-05
DAV:  25    -0.770962696126E+01    0.33927E-07   -0.34686E-10  4824   0.239E-04
   1 F= -.77096270E+01 E0= -.77096270E+01  d E =0.000000E+00  mag=    -0.0000
