=========================================
SLURM_JOB_ID = 63457026
SLURM_JOB_NODELIST = lnode43
SLURM_GPUS = 
SLURM_CPUS_ON_NODE = 8
SLURM_JOB_PARTITION = lenovo
SLURM_TASK_PID = 4141273
CUDA_VISIBLE_DEVICES = 
==========================================
 running on    8 total cores
 distrk:  each k-point on    8 cores,    1 groups
 distr:  one band on    4 cores,    2 groups
 using from now: INCAR     
 vasp.5.4.4.18Apr17-6-g9f103f2a35 (build Apr 28 2018 00:24:27) complex          
  
 POSCAR found type information on POSCAR  Eu S 
 POSCAR found :  2 types and       2 ions
 scaLAPACK will be used

 ----------------------------------------------------------------------------- 
|                                                                             |
|  ADVICE TO THIS USER RUNNING 'VASP/VAMP'   (HEAR YOUR MASTER'S VOICE ...):  |
|                                                                             |
|      You have a (more or less) 'small supercell' and for smaller cells      |
|      it is recommended  to use the reciprocal-space projection scheme!      |
|      The real space optimization is not  efficient for small cells and it   |
|      is also less accurate ...                                              |
|      Therefore set LREAL=.FALSE. in the  INCAR file                         |
|                                                                             |
 ----------------------------------------------------------------------------- 

 LDA part: xc-table for Pade appr. of Perdew
 POSCAR, INCAR and KPOINTS ok, starting setup
 FFT: planning ...
 WAVECAR not read
 entering main loop
       N       E                     dE             d eps       ncg     rms          rms(c)
DAV:   1     0.161575493079E+03    0.16158E+03   -0.11100E+04  1840   0.268E+03
DAV:   2     0.342168164306E+01   -0.15815E+03   -0.13989E+03  1824   0.287E+02
DAV:   3    -0.149797364847E+02   -0.18401E+02   -0.17685E+02  1856   0.105E+02
DAV:   4    -0.159780990991E+02   -0.99836E+00   -0.97652E+00  2568   0.214E+01
DAV:   5    -0.160318739054E+02   -0.53775E-01   -0.53595E-01  2332   0.424E+00    0.132E+01
DAV:   6    -0.202076602220E+02   -0.41758E+01   -0.46547E+01  2336   0.681E+01    0.177E+01
DAV:   7    -0.190869816848E+02    0.11207E+01   -0.28907E+00  1956   0.389E+01    0.656E+00
DAV:   8    -0.187622434450E+02    0.32474E+00   -0.14263E+00  2724   0.142E+01    0.253E+00
DAV:   9    -0.188331652221E+02   -0.70922E-01   -0.13609E+00  2184   0.985E+00    0.331E+00
DAV:  10    -0.187499627818E+02    0.83202E-01   -0.80469E-01  2072   0.739E+00    0.105E+00
DAV:  11    -0.187621054214E+02   -0.12143E-01   -0.18786E-02  2512   0.967E-01    0.540E-01
DAV:  12    -0.187606541600E+02    0.14513E-02   -0.51795E-03  2536   0.684E-01    0.511E-01
DAV:  13    -0.187589412703E+02    0.17129E-02   -0.45884E-03  2396   0.569E-01    0.267E-01
DAV:  14    -0.187586867752E+02    0.25450E-03   -0.13720E-03  2664   0.303E-01    0.156E-01
DAV:  15    -0.187587612193E+02   -0.74444E-04   -0.20626E-03  2080   0.381E-01    0.117E-02
DAV:  16    -0.187587589342E+02    0.22851E-05   -0.91835E-05  2516   0.505E-02    0.100E-02
DAV:  17    -0.187587587386E+02    0.19551E-06   -0.37902E-06  2468   0.798E-03    0.919E-03
DAV:  18    -0.187587634260E+02   -0.46874E-05   -0.74561E-07  2336   0.641E-03    0.932E-03
DAV:  19    -0.187587509545E+02    0.12472E-04   -0.19332E-06  2060   0.119E-02    0.377E-03
DAV:  20    -0.187587460527E+02    0.49018E-05   -0.45412E-07  1748   0.549E-03    0.188E-03
DAV:  21    -0.187587455078E+02    0.54487E-06   -0.41578E-08  1008   0.184E-03    0.148E-03
DAV:  22    -0.187587471581E+02   -0.16502E-05   -0.55081E-08   984   0.242E-03    0.733E-04
DAV:  23    -0.187587478470E+02   -0.68896E-06   -0.16688E-08   936   0.118E-03    0.282E-04
DAV:  24    -0.187587481012E+02   -0.25422E-06   -0.52763E-09   920   0.683E-04    0.133E-04
DAV:  25    -0.187587482745E+02   -0.17328E-06   -0.25540E-09   912   0.523E-04    0.550E-05
DAV:  26    -0.187587483867E+02   -0.11216E-06   -0.14806E-09   904   0.349E-04    0.775E-05
DAV:  27    -0.187587482954E+02    0.91268E-07   -0.91728E-10   896   0.323E-04
   1 F= -.18758748E+02 E0= -.18758748E+02  d E =0.000000E+00  mag=     6.9956
