unknown system                          
   1.00000000000000     
     1.420026    1.420026    1.420026
     0.000000    2.840052   -2.840052
    -4.260078    1.420026    1.420026
   Fe
     4
Direct
  0.500000  0.000000  0.500000
  0.250000  0.500000  0.750000
  0.000000  0.000000  0.000000
  0.750000  0.500000  0.250000
 
   36   60   72
 0.22622713700E+04 0.34197015840E+04 0.53791253732E+03 0.72894063792E+03 0.93891069033E+03
 0.79776961484E+03 0.55943628785E+03 0.35982784562E+03 0.22404965349E+03 0.13942839796E+03
 0.88648766891E+02 0.58575214848E+02 0.40755418055E+02 0.30107407209E+02 0.23321198946E+02
 0.19733743102E+02 0.17448467889E+02 0.16208870243E+02 0.15824426215E+02 0.16226416010E+02
 0.17484108443E+02 0.19787998145E+02 0.23393628337E+02 0.30203537239E+02 0.40870154548E+02
 0.58701660829E+02 0.88771898982E+02 0.13951987373E+03 0.22406038613E+03 0.35968025203E+03
 0.55902621835E+03 0.79700903569E+03 0.93787487411E+03 0.72814114847E+03 0.53824876311E+03
 0.34206388055E+04 0.35049846957E+04 0.16274939361E+04 0.43049616139E+03 0.76574251038E+03
 0.92345332104E+03 0.76984922823E+03 0.53828877092E+03 0.34698123561E+03 0.21686318510E+03
 0.13551812283E+03 0.86522781758E+02 0.57402436003E+02 0.40091154372E+02 0.29717607826E+02
 0.23103550316E+02 0.19579790519E+02 0.17336916846E+02 0.16120943679E+02 0.15744034427E+02
 0.16138550816E+02 0.17372690314E+02 0.19634270459E+02 0.23176323920E+02 0.29814071681E+02
 0.40206336374E+02 0.57529433541E+02 0.86646367957E+02 0.13560909464E+03 0.21686974282E+03
 0.34681817551E+03 0.53783202334E+03 0.76896293274E+03 0.92211819723E+03 0.76439220999E+03
 0.43057638823E+03 0.16310537311E+04 0.51268731509E+03 0.39703725538E+03 0.56047435096E+03
 0.84776719811E+03 0.86862890632E+03 0.69176263484E+03 0.48058506422E+03 0.31186502534E+03
 0.19706395881E+03 0.12465002086E+03 0.80567114237E+02 0.54092990599E+02 0.38204346845E+02
 0.28602553440E+02 0.22473770285E+02 0.19134343183E+02 0.17013831145E+02 0.15865921767E+02
 0.15510705083E+02 0.15883708289E+02 0.17049995009E+02 0.19189489370E+02 0.22547576354E+02
 0.28700040084E+02 0.38320927268E+02 0.54221854817E+02 0.80692777496E+02 0.12474176559E+03
 0.19706490121E+03 0.31167570698E+03 0.48004512041E+03 0.69065195104E+03 0.86675963660E+03
 0.84532388723E+03 0.55863621455E+03 0.39727933511E+03 0.64595489584E+03 0.70073325651E+03
 0.82140654979E+03 0.86489673934E+03 0.76134485882E+03 0.57897028096E+03 0.40050770958E+03
 0.26296372156E+03 0.16909626963E+03 0.10904784071E+03 0.71881599813E+02 0.49197271557E+02
 0.35379112495E+02 0.26913180663E+02 0.21497198621E+02 0.18443569000E+02 0.16511729491E+02
 0.15468432667E+02 0.15146508491E+02 0.15486499264E+02 0.16548508372E+02 0.18499781618E+02
 0.21572695561E+02 0.27012396267E+02 0.35498144382E+02 0.49329728170E+02 0.72012404570E+02
 0.10914623942E+03 0.16910385215E+03 0.26277581239E+03 0.39995084516E+03 0.57779560726E+03
 0.75930219952E+03 0.86200982533E+03 0.81841582551E+03 0.69892615696E+03 0.88984102164E+03
 0.88444989093E+03 0.84936111035E+03 0.75661315143E+03 0.61174452016E+03 0.45281944679E+03
 0.31430618995E+03 0.20998184300E+03 0.13820664647E+03 0.91433284817E+02 0.61865241013E+02
 0.43439825455E+02 0.31995084871E+02 0.24857242322E+02 0.20269909234E+02 0.17575026177E+02
 0.15878144865E+02 0.14964513967E+02 0.14683763630E+02 0.14982924362E+02 0.15915688288E+02
 0.17632594907E+02 0.20347626340E+02 0.24958808763E+02 0.32117567578E+02 0.43577699371E+02
 0.62004969040E+02 0.91546838708E+02 0.13824076944E+03 0.20984235608E+03 0.31384158116E+03
 0.45182293942E+03 0.61002386990E+03 0.75419510044E+03 0.84677862035E+03 0.88272673831E+03
 0.78354793570E+03 0.75881077652E+03 0.68658362059E+03 0.57810581768E+03 0.45325001132E+03
 0.33392769736E+03 0.23484716629E+03 0.16058559504E+03 0.10873847239E+03 0.74188529531E+02
 0.51806317186E+02 0.37517426439E+02 0.28435552482E+02 0.22650315567E+02 0.18902774406E+02
 0.16606180007E+02 0.15167552083E+02 0.14395580838E+02 0.14159674299E+02 0.14414336902E+02
 0.15205878312E+02 0.16665183507E+02 0.18982947804E+02 0.22754581418E+02 0.28562114093E+02
 0.37662004206E+02 0.51957895488E+02 0.74324150062E+02 0.10881522613E+03 0.16053031898E+03
 0.23454896769E+03 0.33324874601E+03 0.45208409746E+03 0.57650848901E+03 0.68491829688E+03
 0.75771153015E+03 0.56104289263E+03 0.54035777544E+03 0.48303391675E+03 0.40276128285E+03
 0.31578916114E+03 0.23544303939E+03 0.16923583967E+03 0.11908308009E+03 0.83331450812E+02
 0.58891311664E+02 0.42629571392E+02 0.31966750260E+02 0.25014025700E+02 0.20293122728E+02
 0.17504733268E+02 0.15612626465E+02 0.14433209493E+02 0.13802382686E+02 0.13610973460E+02
 0.13821401476E+02 0.14472152375E+02 0.15672832187E+02 0.17587129141E+02 0.20397220583E+02
 0.25144582933E+02 0.32118163945E+02 0.42793751577E+02 0.59051250289E+02 0.83456048692E+02
 0.11912169002E+03 0.16911684334E+03 0.23508643036E+03 0.31514671841E+03 0.40188650138E+03
 0.48214087265E+03 0.53977892773E+03 0.36516169231E+03 0.35207441473E+03 0.31604996391E+03
 0.26588739788E+03 0.21166652247E+03 0.16132840320E+03 0.11928221373E+03 0.86763670066E+02
 0.62986175578E+02 0.46273290794E+02 0.34830608821E+02 0.27112423362E+02 0.21938490105E+02
 0.18410576408E+02 0.16168804101E+02 0.14658589009E+02 0.13720716674E+02 0.13220290388E+02
 0.13069767652E+02 0.13239392112E+02 0.13759897171E+02 0.14719395636E+02 0.16252604410E+02
 0.18517615634E+02 0.22072027055E+02 0.27269347728E+02 0.35005551971E+02 0.46454641487E+02
 0.63153067665E+02 0.86883520009E+02 0.11931173027E+03 0.16122335020E+03 0.21140501854E+03
 0.26550291017E+03 0.31565108918E+03 0.35181615728E+03 0.22847769110E+03 0.22099813439E+03
 0.20035209075E+03 0.17130271850E+03 0.13942204361E+03 0.10924477734E+03 0.83447972404E+02
 0.62967964156E+02 0.47564139980E+02 0.36415366646E+02 0.28550490805E+02 0.23084875903E+02
 0.19165422350E+02 0.16711148123E+02 0.14963270655E+02 0.13791283796E+02 0.13064330087E+02
 0.12676652291E+02 0.12561223189E+02 0.12695565391E+02 0.13103167715E+02 0.13851737525E+02
 0.15047081881E+02 0.16819269907E+02 0.19297155744E+02 0.23244601834E+02 0.28732164464E+02
 0.36611484031E+02 0.47761208457E+02 0.63145445494E+02 0.83579597089E+02 0.10930460429E+03
 0.13939649779E+03 0.17120504772E+03 0.20022841802E+03 0.22091256815E+03 0.14198458971E+03
 0.13786968378E+03 0.12646652269E+03 0.11019359413E+03 0.91975124003E+02 0.74313928369E+02
 0.58809817803E+02 0.46147266233E+02 0.36336924921E+02 0.29016686062E+02 0.23690854440E+02
 0.19644477437E+02 0.17129736512E+02 0.15255716719E+02 0.13928847665E+02 0.13039480208E+02
 0.12486148934E+02 0.12190244556E+02 0.12103095144E+02 0.12208628279E+02 0.12523914223E+02
 0.13098369062E+02 0.14010847165E+02 0.15362355565E+02 0.17261287795E+02 0.19799263984E+02
 0.23873876547E+02 0.29219146000E+02 0.36549966715E+02 0.46357423108E+02 0.58999875451E+02
 0.74466217656E+02 0.92077395339E+02 0.11024536904E+03 0.12648133717E+03 0.13786895809E+03
 0.89623744300E+02 0.87379187133E+02 0.81143503105E+02 0.72122584346E+02 0.61818320785E+02
 0.51583183261E+02 0.42352543241E+02 0.34591489288E+02 0.28395010504E+02 0.23624498780E+02
 0.19773663185E+02 0.17344092748E+02 0.15461646551E+02 0.14068053453E+02 0.13081056294E+02
 0.12415482950E+02 0.11997532101E+02 0.11772290008E+02 0.11706612431E+02 0.11789769009E+02
 0.12033426779E+02 0.12471484248E+02 0.13159237025E+02 0.14170310354E+02 0.15589007935E+02
 0.17496017364E+02 0.19947516531E+02 0.23824698011E+02 0.28610706282E+02 0.34813035803E+02
 0.42567250635E+02 0.51777014826E+02 0.61978793088E+02 0.72241909963E+02 0.81220060922E+02
 0.87415852282E+02 0.58494102330E+02 0.57260341905E+02 0.53835210333E+02 0.48819920164E+02
 0.42982437826E+02 0.37048704379E+02 0.31553125784E+02 0.26797324029E+02 0.22883470375E+02
 0.19529645955E+02 0.17311273982E+02 0.15530154357E+02 0.14158695363E+02 0.13142150929E+02
 0.12415995080E+02 0.11919147421E+02 0.11601740776E+02 0.11428276550E+02 0.11378026680E+02
 0.11444478995E+02 0.11634984695E+02 0.11970986834E+02 0.12488434889E+02 0.13237225066E+02
 0.14277896503E+02 0.15673782026E+02 0.17477832135E+02 0.19715449503E+02 0.23090776151E+02
 0.27014115050E+02 0.31769065049E+02 0.37251632627E+02 0.43159980663E+02 0.48961383673E+02
 0.53932972070E+02 0.57310092181E+02 0.40047449182E+02 0.39357352140E+02 0.37452346494E+02
 0.34630779888E+02 0.31292044915E+02 0.27822640402E+02 0.24526025680E+02 0.21591728473E+02
 0.18932764428E+02 0.17025127650E+02 0.15437291427E+02 0.14167712530E+02 0.13187140140E+02
 0.12452252338E+02 0.11917394527E+02 0.11542483402E+02 0.11296831574E+02 0.11159864245E+02
 0.11120198159E+02 0.11174455688E+02 0.11326737166E+02 0.11589066488E+02 0.11982476472E+02
 0.12537802336E+02 0.13294823372E+02 0.14298322819E+02 0.15590151243E+02 0.17197584399E+02
 0.19119919527E+02 0.21792471728E+02 0.24728119389E+02 0.28015330179E+02 0.31463744682E+02
 0.34770451667E+02 0.37550814265E+02 0.39408210328E+02 0.29045507031E+02 0.28650437638E+02
 0.27569872064E+02 0.25958206016E+02 0.24018651291E+02 0.21961819746E+02 0.19727207847E+02
 0.18043236692E+02 0.16511915600E+02 0.15184780458E+02 0.14080561536E+02 0.13192138538E+02
 0.12496200254E+02 0.11962862740E+02 0.11563201083E+02 0.11273754676E+02 0.11078115542E+02
 0.10966415010E+02 0.10933822456E+02 0.10979123928E+02 0.11104139606E+02 0.11314249606E+02
 0.11619742155E+02 0.12037215186E+02 0.12589968191E+02 0.13306296163E+02 0.14214914147E+02
 0.15337450448E+02 0.16678978839E+02 0.18218629574E+02 0.19902978946E+02 0.22133468190E+02
 0.24172472529E+02 0.26084123905E+02 0.27659175501E+02 0.28696760538E+02 0.22388480003E+02
 0.22157338883E+02 0.21533509038E+02 0.20331266817E+02 0.19293375382E+02 0.18139210307E+02
 0.16958137956E+02 0.15825629902E+02 0.14795823969E+02 0.13899249186E+02 0.13145216304E+02
 0.12527375168E+02 0.12030516817E+02 0.11636860921E+02 0.11330638285E+02 0.11100492830E+02
 0.10939865804E+02 0.10845968506E+02 0.10818167789E+02 0.10856603344E+02 0.10961638781E+02
 0.11134364913E+02 0.11377925578E+02 0.11699056121E+02 0.12109016125E+02 0.12623106383E+02
 0.13258193484E+02 0.14028118751E+02 0.14937502730E+02 0.15975149013E+02 0.17108783225E+02
 0.18282986951E+02 0.19421742293E+02 0.20436014325E+02 0.21609315581E+02 0.22196699941E+02
 0.18219133662E+02 0.18087448162E+02 0.17737147365E+02 0.17203712644E+02 0.16538233331E+02
 0.15798557554E+02 0.15040239542E+02 0.14309278221E+02 0.13637927697E+02 0.13043902235E+02
 0.12532429436E+02 0.12100060346E+02 0.11738997946E+02 0.11440888330E+02 0.11199393423E+02
 0.11011293825E+02 0.10876259262E+02 0.10795715712E+02 0.10771397427E+02 0.10804175275E+02
 0.10893598091E+02 0.11038306757E+02 0.11237157122E+02 0.11490611355E+02 0.11801805149E+02
 0.12176708293E+02 0.12622965948E+02 0.13147310336E+02 0.13751824902E+02 0.14429761632E+02
 0.15161959164E+02 0.15915057107E+02 0.16642529998E+02 0.17289021364E+02 0.17797620610E+02
 0.18118810929E+02 0.15698020947E+02 0.15616960442E+02 0.15405637373E+02 0.15084735141E+02
 0.14683721528E+02 0.14235599877E+02 0.13771688033E+02 0.13317615705E+02 0.12891230814E+02
 0.12502496179E+02 0.12154954136E+02 0.11848062205E+02 0.11579668731E+02 0.11348037833E+02
 0.11153061871E+02 0.10996550309E+02 0.10881713977E+02 0.10812140626E+02 0.10790651340E+02
 0.10818418969E+02 0.10894624198E+02 0.11016750760E+02 0.11181421817E+02 0.11385502901E+02
 0.11627088502E+02 0.11905981712E+02 0.12223375790E+02 0.12580632864E+02 0.12977292286E+02
 0.13408689046E+02 0.13863774772E+02 0.14323847829E+02 0.14762842325E+02 0.15149546834E+02
 0.15451638177E+02 0.15640837385E+02 0.14042740743E+02 0.13996873340E+02 0.13880108089E+02
 0.13702934241E+02 0.13480070530E+02 0.13227756802E+02 0.12961163788E+02 0.12692548437E+02
 0.12430474321E+02 0.12180066360E+02 0.11944000851E+02 0.11723808763E+02 0.11521087761E+02
 0.11338329387E+02 0.11179216876E+02 0.11048395823E+02 0.10950840303E+02 0.10891015103E+02
 0.10872060521E+02 0.10895200261E+02 0.10959508880E+02 0.11062090466E+02 0.11198627611E+02
 0.11364169646E+02 0.11553957638E+02 0.11764053052E+02 0.11991564165E+02 0.12234350012E+02
 0.12490211298E+02 0.12755728351E+02 0.13025048354E+02 0.13289018031E+02 0.13535057067E+02
 0.13748035680E+02 0.13912158286E+02 0.14013523326E+02 0.12977191297E+02 0.12955121815E+02
 0.12900731700E+02 0.12818037555E+02 0.12712431878E+02 0.12589561217E+02 0.12454365377E+02
 0.12310562242E+02 0.12160681581E+02 0.12006556607E+02 0.11850045964E+02 0.11693717665E+02
 0.11541276360E+02 0.11397621762E+02 0.11268544275E+02 0.11160155772E+02 0.11078198813E+02
 0.11027375204E+02 0.11010799717E+02 0.11029640681E+02 0.11082976510E+02 0.11167881729E+02
 0.11279745837E+02 0.11412805060E+02 0.11560822917E+02 0.11717802205E+02 0.11878573738E+02
 0.12039110950E+02 0.12196475897E+02 0.12348403642E+02 0.12492651416E+02 0.12626336444E+02
 0.12745521293E+02 0.12845252365E+02 0.12920118522E+02 0.12965210175E+02 0.12287248618E+02
 0.12281343446E+02 0.12268203336E+02 0.12247996595E+02 0.12220561227E+02 0.12185161186E+02
 0.12140434267E+02 0.12084637290E+02 0.12016179201E+02 0.11934313354E+02 0.11839784542E+02
 0.11735224418E+02 0.11625161355E+02 0.11515629416E+02 0.11413479273E+02 0.11325566256E+02
 0.11257992603E+02 0.11215520995E+02 0.11201191667E+02 0.11216111227E+02 0.11259367104E+02
 0.11328054409E+02 0.11417450525E+02 0.11521395503E+02 0.11632906802E+02 0.11744979804E+02
 0.11851435961E+02 0.11947626043E+02 0.12030811093E+02 0.12100130113E+02 0.12156189422E+02
 0.12200423885E+02 0.12234440193E+02 0.12259535474E+02 0.12276499204E+02 0.12285686980E+02
 0.11825874417E+02 0.11831358619E+02 0.11846585927E+02 0.11869572882E+02 0.11897018260E+02
 0.11924463428E+02 0.11946672348E+02 0.11958268167E+02 0.11954572759E+02 0.11932497230E+02
 0.11891268421E+02 0.11832783665E+02 0.11761472214E+02 0.11683681222E+02 0.11606743463E+02
 0.11537963976E+02 0.11483748797E+02 0.11449002460E+02 0.11436795677E+02 0.11448217294E+02
 0.11482315891E+02 0.11536100245E+02 0.11604656169E+02 0.11681488362E+02 0.11759168317E+02
 0.11830265697E+02 0.11888409171E+02 0.11929232279E+02 0.11950961553E+02 0.11954502149E+02
 0.11943027685E+02 0.11921220883E+02 0.11894386452E+02 0.11867647611E+02 0.11845359799E+02
 0.11830771153E+02 0.11501376186E+02 0.11515375615E+02 0.11551480836E+02 0.11606588646E+02
 0.11675716384E+02 0.11752269887E+02 0.11828559041E+02 0.11896599108E+02 0.11949143995E+02
 0.11980786249E+02 0.11988876356E+02 0.11974008880E+02 0.11939915593E+02 0.11892772705E+02
 0.11840105940E+02 0.11789585357E+02 0.11747991059E+02 0.11720511247E+02 0.11710373517E+02
 0.11718696280E+02 0.11744435036E+02 0.11784380990E+02 0.11833285123E+02 0.11884248444E+02
 0.11929484543E+02 0.11961427708E+02 0.11973992398E+02 0.11963677650E+02 0.11930217511E+02
 0.11876607858E+02 0.11808531677E+02 0.11733374232E+02 0.11659101268E+02 0.11593249316E+02
 0.11542176685E+02 0.11510602977E+02 0.11260960906E+02 0.11281726584E+02 0.11334354340E+02
 0.11415220189E+02 0.11518501619E+02 0.11636379520E+02 0.11759516681E+02 0.11877893931E+02
 0.11981975954E+02 0.12064033512E+02 0.12119327288E+02 0.12146827504E+02 0.12149239363E+02
 0.12132305788E+02 0.12103585947E+02 0.12071057397E+02 0.12041891158E+02 0.12021610039E+02
 0.12013644395E+02 0.12019155965E+02 0.12036980380E+02 0.12063635810E+02 0.12093483275E+02
 0.12119204068E+02 0.12132714581E+02 0.12126474667E+02 0.12094942442E+02 0.12035798456E+02
 0.11950584297E+02 0.11844573488E+02 0.11725936225E+02 0.11604464132E+02 0.11490206067E+02
 0.11392314918E+02 0.11318263731E+02 0.11273432684E+02 0.11075810808E+02 0.11102180044E+02
 0.11168556001E+02 0.11271128878E+02 0.11403709119E+02 0.11557771891E+02 0.11722808346E+02
 0.11887129323E+02 0.12039132046E+02 0.12168849182E+02 0.12269427818E+02 0.12338122627E+02
 0.12376487716E+02 0.12389695181E+02 0.12385195180E+02 0.12371128898E+02 0.12354919373E+02
 0.12342302480E+02 0.12336823368E+02 0.12339647503E+02 0.12349507393E+02 0.12362719268E+02
 0.12373368256E+02 0.12373856272E+02 0.12355952880E+02 0.12312291956E+02 0.12238013232E+02
 0.12132095195E+02 0.11997961870E+02 0.11843167257E+02 0.11678265280E+02 0.11515219596E+02
 0.11365796472E+02 0.11240300419E+02 0.11146820198E+02 0.11090949386E+02 0.10930148327E+02
 0.10961219778E+02 0.11039219364E+02 0.11160333828E+02 0.11318272064E+02 0.11504114780E+02
 0.11706501299E+02 0.11912371686E+02 0.12108316414E+02 0.12282343258E+02 0.12425645136E+02
 0.12533856983E+02 0.12607398733E+02 0.12650794043E+02 0.12671206499E+02 0.12676678575E+02
 0.12674578039E+02 0.12670560165E+02 0.12668067871E+02 0.12668179736E+02 0.12669582612E+02
 0.12668583062E+02 0.12659272704E+02 0.12634083578E+02 0.12584911889E+02 0.12504756159E+02
 0.12389523539E+02 0.12239472648E+02 0.12059803703E+02 0.11860175139E+02 0.11653294437E+02
 0.11453025342E+02 0.11272550843E+02 0.11123016239E+02 0.11012831775E+02 0.10947560248E+02
 0.10814674502E+02 0.10849644892E+02 0.10937332338E+02 0.11074016050E+02 0.11253455122E+02
 0.11466540726E+02 0.11701314185E+02 0.11943640047E+02 0.12178625120E+02 0.12392580072E+02
 0.12575041504E+02 0.12720248665E+02 0.12827592531E+02 0.12900901537E+02 0.12946846637E+02
 0.12973034097E+02 0.12986369813E+02 0.12992037747E+02 0.12993091010E+02 0.12990403552E+02
 0.12982696551E+02 0.12966525708E+02 0.12936365936E+02 0.12885087851E+02 0.12805065350E+02
 0.12689885618E+02 0.12536284575E+02 0.12345701291E+02 0.12124882990E+02 0.11885281557E+02
 0.11641414739E+02 0.11408711594E+02 0.11201473056E+02 0.11031437179E+02 0.10907144111E+02
 0.10833991889E+02 0.10723526129E+02 0.10761628847E+02 0.10857099888E+02 0.11006355094E+02
 0.11203287610E+02 0.11438741708E+02 0.11700377687E+02 0.11973280080E+02 0.12241432544E+02
 0.12489840163E+02 0.12706754063E+02 0.12885307711E+02 0.13024017420E+02 0.13126001595E+02
 0.13197254120E+02 0.13244627317E+02 0.13274181514E+02 0.13290263631E+02 0.13295270638E+02
 0.13289764798E+02 0.13272577997E+02 0.13240757483E+02 0.13189514852E+02 0.13112543632E+02
 0.13003024278E+02 0.12855333060E+02 0.12667063460E+02 0.12440687078E+02 0.12184204805E+02
 0.11910479624E+02 0.11635433256E+02 0.11375687170E+02 0.11146358999E+02 0.10959565186E+02
 0.10823843334E+02 0.10744358416E+02 0.10653284710E+02 0.10693778224E+02 0.10795157981E+02
 0.10953984994E+02 0.11164320485E+02 0.11417053373E+02 0.11699639074E+02 0.11996653117E+02
 0.12291307643E+02 0.12567694954E+02 0.12813157708E+02 0.13020024708E+02 0.13186116316E+02
 0.13313877126E+02 0.13408528751E+02 0.13475980605E+02 0.13521217963E+02 0.13547536555E+02
 0.13556525735E+02 0.13548378604E+02 0.13522085743E+02 0.13475329813E+02 0.13404269093E+02
 0.13303649677E+02 0.13167651366E+02 0.12991539847E+02 0.12773732950E+02 0.12517553947E+02
 0.12231947726E+02 0.11930797752E+02 0.11631021564E+02 0.11350068392E+02 0.11103594342E+02
 0.10903918649E+02 0.10759493439E+02 0.10675232248E+02 0.10602619601E+02 0.10644790498E+02
 0.10750277691E+02 0.10915768153E+02 0.11135482024E+02 0.11400392801E+02 0.11697873334E+02
 0.12012208438E+02 0.12326139036E+02 0.12623187568E+02 0.12890121143E+02 0.13118739111E+02
 0.13306356738E+02 0.13454852555E+02 0.13568724179E+02 0.13652958752E+02 0.13711484349E+02
 0.13746570079E+02 0.13759024370E+02 0.13748689734E+02 0.13714719463E+02 0.13655423050E+02
 0.13567891425E+02 0.13447907264E+02 0.13290622938E+02 0.13092132707E+02 0.12851553852E+02
 0.12572850498E+02 0.12265615255E+02 0.11944398666E+02 0.11626753009E+02 0.11330640967E+02
 0.11072030867E+02 0.10863322349E+02 0.10712851268E+02 0.10625307353E+02 0.10571705780E+02
 0.10614868987E+02 0.10722762754E+02 0.10892159170E+02 0.11117391132E+02 0.11389507468E+02
 0.11695862438E+02 0.12020602916E+02 0.12346227819E+02 0.12655959699E+02 0.12936257683E+02
 0.13178626398E+02 0.13380074450E+02 0.13542099722E+02 0.13668682452E+02 0.13764137376E+02
 0.13831620544E+02 0.13872654380E+02 0.13887482295E+02 0.13875695359E+02 0.13836567620E+02
 0.13768866087E+02 0.13670362384E+02 0.13537596196E+02 0.13366426917E+02 0.13153538890E+02
 0.12898522764E+02 0.12605743089E+02 0.12285167811E+02 0.11951716508E+02 0.11623283383E+02
 0.11318099668E+02 0.11052284755E+02 0.10838255087E+02 0.10684250675E+02 0.10594806658E+02
 0.10561277118E+02 0.10604768532E+02 0.10713453403E+02 0.10884133859E+02 0.11111183511E+02
 0.11385680812E+02 0.11694979618E+02 0.12023187753E+02 0.12352731249E+02 0.12666740723E+02
 0.12951579736E+02 0.13198658995E+02 0.13404884205E+02 0.13571618703E+02 0.13702654855E+02
 0.13802061248E+02 0.13872711209E+02 0.13915854226E+02 0.13931527662E+02 0.13919231231E+02
 0.13878283449E+02 0.13807618738E+02 0.13705257831E+02 0.13568017591E+02 0.13392015875E+02
 0.13174150972E+02 0.12914181357E+02 0.12616608086E+02 0.12291521760E+02 0.11953959084E+02
 0.11621920843E+02 0.11313720254E+02 0.11045520182E+02 0.10829736769E+02 0.10674573253E+02
 0.10584509542E+02 0.10571705780E+02 0.10614868987E+02 0.10722762754E+02 0.10892159170E+02
 0.11117391132E+02 0.11389507468E+02 0.11695862438E+02 0.12020602916E+02 0.12346227819E+02
 0.12655959699E+02 0.12936257683E+02 0.13178626398E+02 0.13380074450E+02 0.13542099722E+02
 0.13668682452E+02 0.13764137376E+02 0.13831620544E+02 0.13872654380E+02 0.13887482295E+02
 0.13875695359E+02 0.13836567620E+02 0.13768866087E+02 0.13670362384E+02 0.13537596196E+02
 0.13366426917E+02 0.13153538890E+02 0.12898522764E+02 0.12605743089E+02 0.12285167811E+02
 0.11951716508E+02 0.11623283383E+02 0.11318099668E+02 0.11052284755E+02 0.10838255087E+02
 0.10684250675E+02 0.10594806658E+02 0.10602619601E+02 0.10644790498E+02 0.10750277691E+02
 0.10915768153E+02 0.11135482024E+02 0.11400392801E+02 0.11697873334E+02 0.12012208438E+02
 0.12326139036E+02 0.12623187568E+02 0.12890121143E+02 0.13118739111E+02 0.13306356738E+02
 0.13454852555E+02 0.13568724179E+02 0.13652958752E+02 0.13711484349E+02 0.13746570079E+02
 0.13759024370E+02 0.13748689734E+02 0.13714719463E+02 0.13655423050E+02 0.13567891425E+02
 0.13447907264E+02 0.13290622938E+02 0.13092132707E+02 0.12851553852E+02 0.12572850498E+02
 0.12265615255E+02 0.11944398666E+02 0.11626753009E+02 0.11330640967E+02 0.11072030867E+02
 0.10863322349E+02 0.10712851268E+02 0.10625307353E+02 0.10653284710E+02 0.10693778224E+02
 0.10795157981E+02 0.10953984994E+02 0.11164320485E+02 0.11417053373E+02 0.11699639074E+02
 0.11996653117E+02 0.12291307643E+02 0.12567694954E+02 0.12813157708E+02 0.13020024708E+02
 0.13186116316E+02 0.13313877126E+02 0.13408528751E+02 0.13475980605E+02 0.13521217963E+02
 0.13547536555E+02 0.13556525735E+02 0.13548378604E+02 0.13522085743E+02 0.13475329813E+02
 0.13404269093E+02 0.13303649677E+02 0.13167651366E+02 0.12991539847E+02 0.12773732950E+02
 0.12517553947E+02 0.12231947726E+02 0.11930797752E+02 0.11631021564E+02 0.11350068392E+02
 0.11103594342E+02 0.10903918649E+02 0.10759493439E+02 0.10675232248E+02 0.10723526129E+02
 0.10761628847E+02 0.10857099888E+02 0.11006355094E+02 0.11203287610E+02 0.11438741708E+02
 0.11700377687E+02 0.11973280080E+02 0.12241432544E+02 0.12489840163E+02 0.12706754063E+02
 0.12885307711E+02 0.13024017420E+02 0.13126001595E+02 0.13197254120E+02 0.13244627317E+02
 0.13274181514E+02 0.13290263631E+02 0.13295270638E+02 0.13289764798E+02 0.13272577997E+02
 0.13240757483E+02 0.13189514852E+02 0.13112543632E+02 0.13003024278E+02 0.12855333060E+02
 0.12667063460E+02 0.12440687078E+02 0.12184204805E+02 0.11910479624E+02 0.11635433256E+02
 0.11375687170E+02 0.11146358999E+02 0.10959565186E+02 0.10823843334E+02 0.10744358416E+02
 0.10814674502E+02 0.10849644892E+02 0.10937332338E+02 0.11074016050E+02 0.11253455122E+02
 0.11466540726E+02 0.11701314185E+02 0.11943640047E+02 0.12178625120E+02 0.12392580072E+02
 0.12575041504E+02 0.12720248665E+02 0.12827592531E+02 0.12900901537E+02 0.12946846637E+02
 0.12973034097E+02 0.12986369813E+02 0.12992037747E+02 0.12993091010E+02 0.12990403552E+02
 0.12982696551E+02 0.12966525708E+02 0.12936365936E+02 0.12885087851E+02 0.12805065350E+02
 0.12689885618E+02 0.12536284575E+02 0.12345701291E+02 0.12124882990E+02 0.11885281557E+02
 0.11641414739E+02 0.11408711594E+02 0.11201473056E+02 0.11031437179E+02 0.10907144111E+02
 0.10833991889E+02 0.10930148327E+02 0.10961219778E+02 0.11039219364E+02 0.11160333828E+02
 0.11318272064E+02 0.11504114780E+02 0.11706501299E+02 0.11912371686E+02 0.12108316414E+02
 0.12282343258E+02 0.12425645136E+02 0.12533856983E+02 0.12607398733E+02 0.12650794043E+02
 0.12671206499E+02 0.12676678575E+02 0.12674578039E+02 0.12670560165E+02 0.12668067871E+02
 0.12668179736E+02 0.12669582612E+02 0.12668583062E+02 0.12659272704E+02 0.12634083578E+02
 0.12584911889E+02 0.12504756159E+02 0.12389523539E+02 0.12239472648E+02 0.12059803703E+02
 0.11860175139E+02 0.11653294437E+02 0.11453025342E+02 0.11272550843E+02 0.11123016239E+02
 0.11012831775E+02 0.10947560248E+02 0.11075810808E+02 0.11102180044E+02 0.11168556001E+02
 0.11271128878E+02 0.11403709119E+02 0.11557771891E+02 0.11722808346E+02 0.11887129323E+02
 0.12039132046E+02 0.12168849182E+02 0.12269427818E+02 0.12338122627E+02 0.12376487716E+02
 0.12389695181E+02 0.12385195180E+02 0.12371128898E+02 0.12354919373E+02 0.12342302480E+02
 0.12336823368E+02 0.12339647503E+02 0.12349507393E+02 0.12362719268E+02 0.12373368256E+02
 0.12373856272E+02 0.12355952880E+02 0.12312291956E+02 0.12238013232E+02 0.12132095195E+02
 0.11997961870E+02 0.11843167257E+02 0.11678265280E+02 0.11515219596E+02 0.11365796472E+02
 0.11240300419E+02 0.11146820198E+02 0.11090949386E+02 0.11260960906E+02 0.11281726584E+02
 0.11334354340E+02 0.11415220189E+02 0.11518501619E+02 0.11636379520E+02 0.11759516681E+02
 0.11877893931E+02 0.11981975954E+02 0.12064033512E+02 0.12119327288E+02 0.12146827504E+02
 0.12149239363E+02 0.12132305788E+02 0.12103585947E+02 0.12071057397E+02 0.12041891158E+02
 0.12021610039E+02 0.12013644395E+02 0.12019155965E+02 0.12036980380E+02 0.12063635810E+02
 0.12093483275E+02 0.12119204068E+02 0.12132714581E+02 0.12126474667E+02 0.12094942442E+02
 0.12035798456E+02 0.11950584297E+02 0.11844573488E+02 0.11725936225E+02 0.11604464132E+02
 0.11490206067E+02 0.11392314918E+02 0.11318263731E+02 0.11273432684E+02 0.11501376186E+02
 0.11515375615E+02 0.11551480836E+02 0.11606588646E+02 0.11675716384E+02 0.11752269887E+02
 0.11828559041E+02 0.11896599108E+02 0.11949143995E+02 0.11980786249E+02 0.11988876356E+02
 0.11974008880E+02 0.11939915593E+02 0.11892772705E+02 0.11840105940E+02 0.11789585357E+02
 0.11747991059E+02 0.11720511247E+02 0.11710373517E+02 0.11718696280E+02 0.11744435036E+02
 0.11784380990E+02 0.11833285123E+02 0.11884248444E+02 0.11929484543E+02 0.11961427708E+02
 0.11973992398E+02 0.11963677650E+02 0.11930217511E+02 0.11876607858E+02 0.11808531677E+02
 0.11733374232E+02 0.11659101268E+02 0.11593249316E+02 0.11542176685E+02 0.11510602977E+02
 0.11825874417E+02 0.11831358619E+02 0.11846585927E+02 0.11869572882E+02 0.11897018260E+02
 0.11924463428E+02 0.11946672348E+02 0.11958268167E+02 0.11954572759E+02 0.11932497230E+02
 0.11891268421E+02 0.11832783665E+02 0.11761472214E+02 0.11683681222E+02 0.11606743463E+02
 0.11537963976E+02 0.11483748797E+02 0.11449002460E+02 0.11436795677E+02 0.11448217294E+02
 0.11482315891E+02 0.11536100245E+02 0.11604656169E+02 0.11681488362E+02 0.11759168317E+02
 0.11830265697E+02 0.11888409171E+02 0.11929232279E+02 0.11950961553E+02 0.11954502149E+02
 0.11943027685E+02 0.11921220883E+02 0.11894386452E+02 0.11867647611E+02 0.11845359799E+02
 0.11830771153E+02 0.12287248618E+02 0.12281343446E+02 0.12268203336E+02 0.12247996595E+02
 0.12220561227E+02 0.12185161186E+02 0.12140434267E+02 0.12084637290E+02 0.12016179201E+02
 0.11934313354E+02 0.11839784542E+02 0.11735224418E+02 0.11625161355E+02 0.11515629416E+02
 0.11413479273E+02 0.11325566256E+02 0.11257992603E+02 0.11215520995E+02 0.11201191667E+02
 0.11216111227E+02 0.11259367104E+02 0.11328054409E+02 0.11417450525E+02 0.11521395503E+02
 0.11632906802E+02 0.11744979804E+02 0.11851435961E+02 0.11947626043E+02 0.12030811093E+02
 0.12100130113E+02 0.12156189422E+02 0.12200423885E+02 0.12234440193E+02 0.12259535474E+02
 0.12276499204E+02 0.12285686980E+02 0.12977191297E+02 0.12955121815E+02 0.12900731700E+02
 0.12818037555E+02 0.12712431878E+02 0.12589561217E+02 0.12454365377E+02 0.12310562242E+02
 0.12160681581E+02 0.12006556607E+02 0.11850045964E+02 0.11693717665E+02 0.11541276360E+02
 0.11397621762E+02 0.11268544275E+02 0.11160155772E+02 0.11078198813E+02 0.11027375204E+02
 0.11010799717E+02 0.11029640681E+02 0.11082976510E+02 0.11167881729E+02 0.11279745837E+02
 0.11412805060E+02 0.11560822917E+02 0.11717802205E+02 0.11878573738E+02 0.12039110950E+02
 0.12196475897E+02 0.12348403642E+02 0.12492651416E+02 0.12626336444E+02 0.12745521293E+02
 0.12845252365E+02 0.12920118522E+02 0.12965210175E+02 0.14042740743E+02 0.13996873340E+02
 0.13880108089E+02 0.13702934241E+02 0.13480070530E+02 0.13227756802E+02 0.12961163788E+02
 0.12692548437E+02 0.12430474321E+02 0.12180066360E+02 0.11944000851E+02 0.11723808763E+02
 0.11521087761E+02 0.11338329387E+02 0.11179216876E+02 0.11048395823E+02 0.10950840303E+02
 0.10891015103E+02 0.10872060521E+02 0.10895200261E+02 0.10959508880E+02 0.11062090466E+02
 0.11198627611E+02 0.11364169646E+02 0.11553957638E+02 0.11764053052E+02 0.11991564165E+02
 0.12234350012E+02 0.12490211298E+02 0.12755728351E+02 0.13025048354E+02 0.13289018031E+02
 0.13535057067E+02 0.13748035680E+02 0.13912158286E+02 0.14013523326E+02 0.15698020947E+02
 0.15616960442E+02 0.15405637373E+02 0.15084735141E+02 0.14683721528E+02 0.14235599877E+02
 0.13771688033E+02 0.13317615705E+02 0.12891230814E+02 0.12502496179E+02 0.12154954136E+02
 0.11848062205E+02 0.11579668731E+02 0.11348037833E+02 0.11153061871E+02 0.10996550309E+02
 0.10881713977E+02 0.10812140626E+02 0.10790651340E+02 0.10818418969E+02 0.10894624198E+02
 0.11016750760E+02 0.11181421817E+02 0.11385502901E+02 0.11627088502E+02 0.11905981712E+02
 0.12223375790E+02 0.12580632864E+02 0.12977292286E+02 0.13408689046E+02 0.13863774772E+02
 0.14323847829E+02 0.14762842325E+02 0.15149546834E+02 0.15451638177E+02 0.15640837385E+02
 0.18219133662E+02 0.18087448162E+02 0.17737147365E+02 0.17203712644E+02 0.16538233331E+02