       N       E                     dE             d eps       ncg     rms          rms(c)
DAV:   1     0.195105606759E+03    0.19511E+03   -0.16715E+04  3564   0.176E+03
DAV:   2    -0.108453621350E+02   -0.20595E+03   -0.19767E+03  3408   0.370E+02
DAV:   3    -0.162293520144E+02   -0.53840E+01   -0.53757E+01  3732   0.685E+01
DAV:   4    -0.162712313361E+02   -0.41879E-01   -0.41882E-01  3876   0.564E+00
DAV:   5    -0.162720001865E+02   -0.76885E-03   -0.76886E-03  3744   0.713E-01    0.250E+01
DAV:   6    -0.164355023261E+02   -0.16350E+00   -0.74968E+00  3444   0.394E+01    0.692E+00
DAV:   7    -0.165065826835E+02   -0.71080E-01   -0.61414E-01  3396   0.945E+00    0.431E+00
DAV:   8    -0.165184664821E+02   -0.11884E-01   -0.14643E-02  3732   0.142E+00    0.137E+00
DAV:   9    -0.165110565324E+02    0.74099E-02   -0.52622E-03  3552   0.870E-01    0.335E-01
DAV:  10    -0.165110049253E+02    0.51607E-04   -0.21656E-03  3456   0.594E-01    0.437E-02
DAV:  11    -0.165110733182E+02   -0.68393E-04   -0.57727E-05  3624   0.667E-02    0.247E-02
DAV:  12    -0.165110805731E+02   -0.72550E-05   -0.46724E-06  3756   0.215E-02    0.953E-03
DAV:  13    -0.165110727399E+02    0.78333E-05   -0.16397E-06  3528   0.122E-02    0.153E-03
DAV:  14    -0.165110723175E+02    0.42240E-06   -0.94837E-08  2736   0.240E-03    0.693E-04
DAV:  15    -0.165110724628E+02   -0.14536E-06   -0.88629E-09  1704   0.100E-03    0.266E-04
DAV:  16    -0.165110722330E+02    0.22986E-06   -0.87818E-10  1680   0.283E-04    0.118E-04
DAV:  17    -0.165110723540E+02   -0.12099E-06   -0.19510E-10  1680   0.142E-04    0.307E-05
DAV:  18    -0.165110723509E+02    0.30459E-08   -0.23945E-11  1680   0.487E-05
   1 F= -.16511072E+02 E0= -.16511072E+02  d E =0.000000E+00  mag=     4.4058
