       N       E                     dE             d eps       ncg     rms          rms(c)
DAV:   1     0.748158009204E+03    0.74816E+03   -0.26304E+04 42928   0.411E+03
DAV:   2     0.183887477902E+03   -0.56427E+03   -0.51357E+03 54344   0.542E+02
DAV:   3    -0.208493027831E+02   -0.20474E+03   -0.20216E+03 45880   0.332E+02
DAV:   4    -0.423400437823E+02   -0.21491E+02   -0.20825E+02 55544   0.892E+01
DAV:   5    -0.460215156825E+02   -0.36815E+01   -0.35818E+01 71064   0.266E+01    0.188E+01
DAV:   6    -0.674111876237E+02   -0.21390E+02   -0.43040E+02 61296   0.106E+02    0.456E+01
DAV:   7    -0.504757770337E+02    0.16935E+02   -0.18569E+02 61976   0.133E+02    0.207E+01
DAV:   8    -0.555838464690E+02   -0.51081E+01   -0.44434E+01 62208   0.436E+01    0.172E+01
DAV:   9    -0.561596999004E+02   -0.57585E+00   -0.38528E+00 60708   0.129E+01    0.147E+01
DAV:  10    -0.563324234784E+02   -0.17272E+00   -0.24528E+00 55648   0.164E+01    0.907E+00
DAV:  11    -0.563492445764E+02   -0.16821E-01   -0.28266E+00 59984   0.122E+01    0.733E+00
DAV:  12    -0.564193941811E+02   -0.70150E-01   -0.66323E-01 63452   0.699E+00    0.484E+00
DAV:  13    -0.564198160843E+02   -0.42190E-03   -0.87514E-02 69560   0.183E+00    0.327E+00
DAV:  14    -0.564014532851E+02    0.18363E-01   -0.21399E-02 62196   0.830E-01    0.166E+00
DAV:  15    -0.563644291854E+02    0.37024E-01   -0.52148E-02 60672   0.175E+00    0.914E-01
DAV:  16    -0.563570135588E+02    0.74156E-02   -0.16565E-02 65444   0.888E-01    0.738E-01
DAV:  17    -0.563564587238E+02    0.55483E-03   -0.19213E-03 69728   0.245E-01    0.711E-01
DAV:  18    -0.563546750591E+02    0.17837E-02   -0.79920E-04 62832   0.216E-01    0.672E-01
DAV:  19    -0.563547374132E+02   -0.62354E-04   -0.11937E-04 71208   0.684E-02    0.674E-01
DAV:  20    -0.563518171439E+02    0.29203E-02   -0.79158E-03 57136   0.577E-01    0.555E-01
DAV:  21    -0.563525615035E+02   -0.74436E-03   -0.40196E-03 65856   0.292E-01    0.471E-01
DAV:  22    -0.563522208189E+02    0.34068E-03   -0.30190E-03 61828   0.261E-01    0.337E-01
DAV:  23    -0.563524566071E+02   -0.23579E-03   -0.89987E-04 71904   0.152E-01    0.264E-01
DAV:  24    -0.563521399367E+02    0.31667E-03   -0.13698E-03 56072   0.205E-01    0.182E-01
DAV:  25    -0.563522781372E+02   -0.13820E-03   -0.44789E-04 73628   0.943E-02    0.117E-01
DAV:  26    -0.563522448914E+02    0.33246E-04   -0.69857E-04 56792   0.135E-01    0.789E-02
DAV:  27    -0.563522844199E+02   -0.39528E-04   -0.78887E-05 69256   0.604E-02    0.686E-02
DAV:  28    -0.563523177465E+02   -0.33327E-04   -0.80624E-05 70960   0.325E-02    0.405E-02
DAV:  29    -0.563523254971E+02   -0.77506E-05   -0.11952E-04 58880   0.541E-02    0.177E-02
DAV:  30    -0.563523312281E+02   -0.57309E-05   -0.12928E-05 70720   0.190E-02    0.126E-02
DAV:  31    -0.563523326190E+02   -0.13909E-05   -0.34580E-06 58920   0.983E-03    0.110E-02
DAV:  32    -0.563523372662E+02   -0.46472E-05   -0.40374E-06 53680   0.849E-03    0.340E-03
DAV:  33    -0.563523387251E+02   -0.14589E-05   -0.19104E-06 49528   0.756E-03    0.125E-03
DAV:  34    -0.563523388141E+02   -0.88980E-07   -0.21709E-07 35840   0.465E-03
   1 F= -.56352339E+02 E0= -.56352339E+02  d E =0.000000E+00  mag=     0.0000
