       N       E                     dE             d eps       ncg     rms          rms(c)
DAV:   1     0.476001655114E+04    0.47600E+04   -0.16611E+05 11508   0.230E+03
DAV:   2     0.565699624240E+03   -0.41943E+04   -0.38343E+04 11424   0.633E+02
DAV:   3    -0.235774004920E+03   -0.80147E+03   -0.69908E+03 11844   0.262E+02
DAV:   4    -0.293813570815E+03   -0.58040E+02   -0.57333E+02 12948   0.689E+01
DAV:   5    -0.294485474852E+03   -0.67190E+00   -0.66992E+00 12744   0.835E+00    0.809E+01
DAV:   6    -0.235312826406E+03    0.59173E+02   -0.25315E+02 14820   0.810E+01    0.913E+01
DAV:   7    -0.212105997188E+03    0.23207E+02   -0.11405E+02 12192   0.635E+01    0.437E+01
DAV:   8    -0.218329633242E+03   -0.62236E+01   -0.21377E+01 12132   0.172E+01    0.265E+01
DAV:   9    -0.222485677125E+03   -0.41560E+01   -0.81540E+00 12636   0.169E+01    0.270E+01
DAV:  10    -0.222158394236E+03    0.32728E+00   -0.24465E+00 12564   0.686E+00    0.186E+01
DAV:  11    -0.221596993404E+03    0.56140E+00   -0.22528E-01 14232   0.281E+00    0.122E+01
DAV:  12    -0.221393790188E+03    0.20320E+00   -0.19622E-01 15204   0.241E+00    0.841E+00
DAV:  13    -0.221393090764E+03    0.69942E-03   -0.11410E-01 13944   0.226E+00    0.463E+00
DAV:  14    -0.221438090796E+03   -0.45000E-01   -0.15256E-01 14928   0.197E+00    0.180E+00
DAV:  15    -0.221455995624E+03   -0.17905E-01   -0.60952E-02 12744   0.664E-01    0.142E+00
DAV:  16    -0.221450836857E+03    0.51588E-02   -0.90758E-03 14436   0.708E-01    0.359E-01
DAV:  17    -0.221451451642E+03   -0.61479E-03   -0.47216E-03 12324   0.175E-01    0.196E-01
DAV:  18    -0.221451671915E+03   -0.22027E-03   -0.22548E-04 14412   0.843E-02    0.854E-02
DAV:  19    -0.221451734131E+03   -0.62216E-04   -0.10658E-04 13884   0.416E-02    0.197E-02
DAV:  20    -0.221451744787E+03   -0.10656E-04   -0.18980E-05 12732   0.158E-02    0.773E-03
DAV:  21    -0.221451745242E+03   -0.45524E-06   -0.26895E-06 12204   0.646E-03    0.104E-02
DAV:  22    -0.221451746670E+03   -0.14279E-05   -0.11521E-06 10884   0.541E-03    0.516E-03
DAV:  23    -0.221451745636E+03    0.10339E-05   -0.21387E-07  8844   0.233E-03    0.142E-03
DAV:  24    -0.221451744526E+03    0.11105E-05   -0.72385E-08  6444   0.794E-04    0.547E-04
DAV:  25    -0.221451744571E+03   -0.45620E-07   -0.11179E-08  6216   0.416E-04
   1 F= -.22145174E+03 E0= -.22145174E+03  d E =0.000000E+00  mag=    42.3284
