 vasp.5.4.4.18Apr17-6-g9f103f2a35 (build Apr 28 2018 00:24:27) complex          
  
 executed on             LinuxIFC date 2021.09.06  03:36:23
 running on   24 total cores
 distrk:  each k-point on   24 cores,    1 groups
 distr:  one band on NCORES_PER_BAND=   4 cores,    6 groups


--------------------------------------------------------------------------------------------------------


 INCAR:
 POTCAR:    PAW_PBE Fe_pv 02Aug2007               
 POTCAR:    PAW_PBE O 08Apr2002                   
 POTCAR:    PAW_PBE Fe_pv 02Aug2007               
   VRHFIN =Fe:  3pd7s1                                                          
   LEXCH  = PE                                                                  
   EATOM  =  2457.4239 eV,  180.6156 Ry                                         
                                                                                
   TITEL  = PAW_PBE Fe_pv 02Aug2007                                             
   LULTRA =        F    use ultrasoft PP ?                                      
   IUNSCR =        1    unscreen: 0-lin 1-nonlin 2-no                           
   RPACOR =    1.750    partial core radius                                     
   POMASS =   55.847; ZVAL   =   14.000    mass and valenz                      
   RCORE  =    2.200    outmost cutoff radius                                   
   RWIGS  =    2.200; RWIGS  =    1.164    wigner-seitz radius (au A)           
   ENMAX  =  293.238; ENMIN  =  219.928 eV                                      
   ICORE  =        3    local potential                                         
   LCOR   =        T    correct aug charges                                     
   LPAW   =        T    paw PP                                                  
   EAUG   =  578.342                                                            
   DEXC   =    0.000                                                            
   RMAX   =    2.249    core radius for proj-oper                               
   RAUG   =    1.300    factor for augmentation sphere                          
   RDEP   =    2.296    radius for radial grids                                 
   RDEPT  =    1.766    core radius for aug-charge                              
                                                                                
   Atomic configuration                                                         
    8 entries                                                                   
     n  l   j            E        occ.                                          
     1  0  0.50     -6993.8440   2.0000                                         
     2  0  0.50      -814.6047   2.0000                                         
     2  1  1.50      -693.3689   6.0000                                         
     3  0  0.50       -89.4732   2.0000                                         
     3  1  1.50       -55.6373   6.0000                                         
     3  2  2.50        -3.8151   7.0000                                         
     4  0  0.50        -4.2551   1.0000                                         
     4  3  2.50        -1.3606   0.0000                                         
   Description                                                                  
     l       E           TYP  RCUT    TYP  RCUT                                 
     1    -55.6372668     23  2.000                                             
     1     -5.4423304     23  2.000                                             
     2     -3.8151096     23  2.200                                             
     2     -5.1756922     23  2.200                                             
     0     -4.2550951     23  2.200                                             
     0     27.2116520     23  2.200                                             
     3     -1.3605826     23  2.200                                             
  local pseudopotential read in
  partial core-charges read in
  partial kinetic energy density read in
  atomic valenz-charges read in
  non local Contribution for L=           1  read in
    real space projection operators read in
  non local Contribution for L=           1  read in
    real space projection operators read in
  non local Contribution for L=           2  read in
    real space projection operators read in
  non local Contribution for L=           2  read in
    real space projection operators read in
  non local Contribution for L=           0  read in
    real space projection operators read in
  non local Contribution for L=           0  read in
    real space projection operators read in
    PAW grid and wavefunctions read in
 
   number of l-projection  operators is LMAX  =           6
   number of lm-projection operators is LMMAX =          18
 
 POTCAR:    PAW_PBE O 08Apr2002                   
   VRHFIN =O: s2p4                                                              
   LEXCH  = PE                                                                  
   EATOM  =   432.3788 eV,   31.7789 Ry                                         
                                                                                
   TITEL  = PAW_PBE O 08Apr2002                                                 
   LULTRA =        F    use ultrasoft PP ?                                      
   IUNSCR =        1    unscreen: 0-lin 1-nonlin 2-no                           
   RPACOR =    1.200    partial core radius                                     
   POMASS =   16.000; ZVAL   =    6.000    mass and valenz                      
   RCORE  =    1.520    outmost cutoff radius                                   
   RWIGS  =    1.550; RWIGS  =    0.820    wigner-seitz radius (au A)           
   ENMAX  =  400.000; ENMIN  =  300.000 eV                                      
   ICORE  =        2    local potential                                         
   LCOR   =        T    correct aug charges                                     
   LPAW   =        T    paw PP                                                  
   EAUG   =  605.392                                                            
   DEXC   =    0.000                                                            
   RMAX   =    1.553    core radius for proj-oper                               
   RAUG   =    1.300    factor for augmentation sphere                          
   RDEP   =    1.550    radius for radial grids                                 
   RDEPT  =    1.329    core radius for aug-charge                              
                                                                                
   Atomic configuration                                                         
    4 entries                                                                   
     n  l   j            E        occ.                                          
     1  0  0.50      -514.6923   2.0000                                         
     2  0  0.50       -23.9615   2.0000                                         
     2  1  0.50        -9.0305   4.0000                                         
     3  2  1.50        -9.5241   0.0000                                         
   Description                                                                  
     l       E           TYP  RCUT    TYP  RCUT                                 
     0    -23.9615318     23  1.200                                             
     0     -9.5240782     23  1.200                                             
     1     -9.0304911     23  1.520                                             
     1      8.1634956     23  1.520                                             
     2     -9.5240782      7  1.500                                             
  local pseudopotential read in
  partial core-charges read in
  partial kinetic energy density read in
  kinetic energy density of atom read in
  atomic valenz-charges read in
  non local Contribution for L=           0  read in
    real space projection operators read in
  non local Contribution for L=           0  read in
    real space projection operators read in
  non local Contribution for L=           1  read in
    real space projection operators read in
  non local Contribution for L=           1  read in
    real space projection operators read in
    PAW grid and wavefunctions read in
 
   number of l-projection  operators is LMAX  =           4
   number of lm-projection operators is LMMAX =           8
 
 Optimization of the real space projectors (new method)

 maximal supplied QI-value         = 17.01
 optimisation between [QCUT,QGAM] = [ 13.61, 27.38] = [ 51.84,209.96] Ry 
 Optimized for a Real-space Cutoff    1.27 Angstroem

   l    n(q)    QCUT    max X(q) W(low)/X(q) W(high)/X(q)  e(spline) 
   1     10    13.606     4.267    0.13E-03    0.32E-03    0.19E-06
   1     10    13.606     5.750    0.20E-03    0.47E-03    0.28E-06
   2      9    13.606    53.656    0.20E-03    0.15E-03    0.21E-06
   2      9    13.606    49.521    0.21E-03    0.15E-03    0.22E-06
   0     10    13.606    31.246    0.74E-04    0.56E-04    0.14E-06
   0     10    13.606    12.201    0.61E-04    0.47E-04    0.12E-06
 Optimization of the real space projectors (new method)

 maximal supplied QI-value         = 24.76
 optimisation between [QCUT,QGAM] = [ 13.62, 27.48] = [ 51.91,211.44] Ry 
 Optimized for a Real-space Cutoff    1.06 Angstroem

   l    n(q)    QCUT    max X(q) W(low)/X(q) W(high)/X(q)  e(spline) 
   0      9    13.615    20.381    0.19E-03    0.16E-03    0.12E-06
   0      9    13.615    15.268    0.20E-03    0.17E-03    0.13E-06
   1      8    13.615     5.964    0.18E-03    0.33E-03    0.14E-06
   1      8    13.615     5.382    0.15E-03    0.28E-03    0.12E-06
  PAW_PBE Fe_pv 02Aug2007               :
 energy of atom  1       EATOM=-2457.4239
 kinetic energy error for atom=    0.0020 (will be added to EATOM!!)
  PAW_PBE O 08Apr2002                   :
 energy of atom  2       EATOM= -432.3788
 kinetic energy error for atom=    0.0077 (will be added to EATOM!!)
 
 
 POSCAR: Fe12 O18                                
  positions in direct lattice
  No initial velocities read in
 exchange correlation table for  LEXCH =        8
   RHO(1)=    0.500       N(1)  =     2000
   RHO(2)=  100.500       N(2)  =     4000
 


--------------------------------------------------------------------------------------------------------


 ion  position               nearest neighbor table
   1  0.000  0.000  0.355-  17 1.94  23 1.94  28 1.94  25 2.12  19 2.12  13 2.12
   2  0.000  0.000  0.645-  16 1.94  22 1.94  29 1.94  26 2.12  20 2.12  14 2.12
   3  0.333  0.667  0.022-  30 1.94  24 1.94  18 1.94  27 2.12  21 2.12  15 2.12
   4  0.667  0.333  0.689-  14 1.94  20 1.94  26 1.94  22 2.12  29 2.12  16 2.12
   5  0.333  0.667  0.311-  13 1.94  19 1.94  25 1.94  23 2.12  28 2.12  17 2.12
   6  0.667  0.333  0.978-  27 1.94  21 1.94  15 1.94  30 2.12  24 2.12  18 2.12
   7  0.000  0.000  0.145-  24 1.94  18 1.94  30 1.94  25 2.12  19 2.12  13 2.12
   8  0.000  0.000  0.855-  21 1.94  15 1.94  27 1.94  26 2.12  20 2.12  14 2.12
   9  0.333  0.667  0.811-  20 1.94  14 1.94  26 1.94  27 2.12  21 2.12  15 2.12
  10  0.333  0.667  0.522-  29 1.94  16 1.94  22 1.94  23 2.12  28 2.12  17 2.12
  11  0.667  0.333  0.478-  28 1.94  17 1.94  23 1.94  22 2.12  29 2.12  16 2.12
  12  0.667  0.333  0.189-  19 1.94  13 1.94  25 1.94  30 2.12  24 2.12  18 2.12
  13  0.306  0.000  0.250-   5 1.94  12 1.94   7 2.12   1 2.12
  14  0.694  0.000  0.750-   4 1.94   9 1.94   8 2.12   2 2.12
  15  0.640  0.667  0.917-   6 1.94   8 1.94   9 2.12   3 2.12
  16  0.973  0.333  0.583-  10 1.94   2 1.94   4 2.12  11 2.12
  17  0.027  0.667  0.417-  11 1.94   1 1.94   5 2.12  10 2.12
  18  0.360  0.333  0.083-   3 1.94   7 1.94  12 2.12   6 2.12
  19  0.000  0.306  0.250-  12 1.94   5 1.94   7 2.12   1 2.12
  20  0.000  0.694  0.750-   9 1.94   4 1.94   8 2.12   2 2.12
  21  0.333  0.973  0.917-   6 1.94   8 1.94   9 2.12   3 2.12
  22  0.667  0.640  0.583-  10 1.94   2 1.94   4 2.12  11 2.12
  23  0.333  0.360  0.417-  11 1.94   1 1.94   5 2.12  10 2.12
  24  0.667  0.027  0.083-   3 1.94   7 1.94  12 2.12   6 2.12
  25  0.694  0.694  0.250-  12 1.94   5 1.94   7 2.12   1 2.12
  26  0.306  0.306  0.750-   9 1.94   4 1.94   8 2.12   2 2.12
  27  0.027  0.360  0.917-   6 1.94   8 1.94   9 2.12   3 2.12
  28  0.640  0.973  0.417-  11 1.94   1 1.94   5 2.12  10 2.12
  29  0.360  0.027  0.583-  10 1.94   2 1.94   4 2.12  11 2.12
  30  0.973  0.640  0.083-   3 1.94   7 1.94  12 2.12   6 2.12
 
  LATTYP: Found a hexagonal cell.
 ALAT       =     5.0350995578
 C/A-ratio  =     2.7324385232
  
  Lattice vectors:
  
 A1 = (   5.0351000000,   0.0000000000,   0.0000000000)
 A2 = (  -2.5175500000,   4.3605240000,   0.0000000000)
 A3 = (   0.0000000000,   0.0000000000,  13.7581000000)


Analysis of symmetry for initial positions (statically):
=====================================================================
 Subroutine PRICEL returns following result:
 
  LATTYP: Found a trigonal (rhomboedric) cell.
 ALAT       =     5.4297801492
 COS(alpha) =     0.5700456062
  
  Lattice vectors:
  
 A1 = (  -2.5175449649,  -1.4535109070,  -4.5860425054)
 A2 = (  -0.0000025175,   2.9070174535,  -4.5860287473)
 A3 = (   2.5175474825,  -1.4535065465,  -4.5860287473)
 
   3 primitive cells build up your supercell.
 

 Routine SETGRP: Setting up the symmetry group for a 
 hexagonal supercell.


 Subroutine GETGRP returns: Found 12 space group operations
 (whereof  6 operations were pure point group operations)
 out of a pool of 24 trial point group operations.


The static configuration has the point symmetry S_6 .
 The point group associated with its full space group is D_3d.


Analysis of symmetry for dynamics (positions and initial velocities):
=====================================================================
 Subroutine PRICEL returns following result:
 
  LATTYP: Found a trigonal (rhomboedric) cell.
 ALAT       =     5.4297801492
 COS(alpha) =     0.5700456062
  
  Lattice vectors:
  
 A1 = (  -2.5175449649,  -1.4535109070,  -4.5860425054)
 A2 = (  -0.0000025175,   2.9070174535,  -4.5860287473)
 A3 = (   2.5175474825,  -1.4535065465,  -4.5860287473)
 
   3 primitive cells build up your supercell.
 

 Routine SETGRP: Setting up the symmetry group for a 
 hexagonal supercell.


 Subroutine GETGRP returns: Found 12 space group operations
 (whereof  6 operations were pure point group operations)
 out of a pool of 24 trial point group operations.


The dynamic configuration has the point symmetry S_6 .
 The point group associated with its full space group is D_3d.


Analysis of structural, dynamic, and magnetic symmetry:
=====================================================================
 Subroutine PRICEL returns following result:
 
  LATTYP: Found a trigonal (rhomboedric) cell.
 ALAT       =     5.4297801492
 COS(alpha) =     0.5700456062
  
  Lattice vectors:
  
 A1 = (  -2.5175449649,  -1.4535109070,  -4.5860425054)
 A2 = (  -0.0000025175,   2.9070174535,  -4.5860287473)
 A3 = (   2.5175474825,  -1.4535065465,  -4.5860287473)
 
   3 primitive cells build up your supercell.
 

 Routine SETGRP: Setting up the symmetry group for a 
 hexagonal supercell.


 Subroutine GETGRP returns: Found 12 space group operations
 (whereof  6 operations were pure point group operations)
 out of a pool of 24 trial point group operations.


The magnetic configuration has the point symmetry S_6 .
 The point group associated with its full space group is D_3d.


 Subroutine INISYM returns: Found 12 space group operations
 (whereof  6 operations are pure point group operations),
 and found     3 'primitive' translations

 
 
 KPOINTS: pymatgen with grid density = 2464 / numb

Automatic generation of k-mesh.
Space group operators:
 irot       det(A)        alpha          n_x          n_y          n_z        tau_x        tau_y        tau_z
    1     1.000000     0.000000     1.000000     0.000000     0.000000     0.000000     0.000000     0.000000
    2    -1.000000     0.000000     1.000000     0.000000     0.000000     0.000000     0.000000     0.000000
    3     1.000000   120.000000     0.000000     0.000000    -1.000000     0.000000     0.000000     0.000000
    4    -1.000000   120.000000     0.000000     0.000000    -1.000000     0.000000     0.000000     0.000000
    5     1.000000   120.000000     0.000000     0.000000     1.000000     0.000000     0.000000     0.000000
    6    -1.000000   120.000000     0.000000     0.000000     1.000000     0.000000     0.000000     0.000000
    7     1.000000   180.000000     1.000000     0.000000     0.000000     0.000001    -0.000000    -0.500000
    8    -1.000000   180.000000     1.000000     0.000000     0.000000     0.000001    -0.000000    -0.500000
    9     1.000000   180.000000     0.500000    -0.866025     0.000000     0.000000     0.000000    -0.500000
   10    -1.000000   180.000000     0.500000    -0.866025     0.000000     0.000000     0.000000    -0.500000
   11     1.000000   180.000000    -0.500000    -0.866025     0.000000     0.000000     0.000000    -0.500000
   12    -1.000000   180.000000    -0.500000    -0.866025     0.000000     0.000000     0.000000    -0.500000
 
 Subroutine IBZKPT returns following result:
 ===========================================
 
 Found     14 irreducible k-points:
 
 Following reciprocal coordinates:
            Coordinates               Weight
  0.000000  0.000000  0.000000      1.000000
  0.166667  0.000000  0.000000      6.000000
  0.333333  0.000000  0.000000      6.000000
  0.500000  0.000000  0.000000      3.000000
  0.166667  0.166667  0.000000      6.000000
  0.333333  0.166667  0.000000     12.000000
  0.333333  0.333333  0.000000      2.000000
  0.000000  0.000000  0.500000      1.000000
  0.166667  0.000000  0.500000      6.000000
  0.333333  0.000000  0.500000      6.000000
  0.500000  0.000000  0.500000      3.000000
  0.166667  0.166667  0.500000      6.000000
  0.333333  0.166667  0.500000     12.000000
  0.333333  0.333333  0.500000      2.000000
 
 Following cartesian coordinates:
            Coordinates               Weight
  0.000000  0.000000  0.000000      1.000000
  0.033101  0.019111  0.000000      6.000000
  0.066202  0.038222  0.000000      6.000000
  0.099303  0.057333  0.000000      3.000000
  0.033101  0.057333  0.000000      6.000000
  0.066202  0.076443  0.000000     12.000000
  0.066202  0.114665  0.000000      2.000000
  0.000000  0.000000  0.036342      1.000000
  0.033101  0.019111  0.036342      6.000000
  0.066202  0.038222  0.036342      6.000000
  0.099303  0.057333  0.036342      3.000000
  0.033101  0.057333  0.036342      6.000000
  0.066202  0.076443  0.036342     12.000000
  0.066202  0.114665  0.036342      2.000000
 
 TETIRR: Found     71 inequivalent tetrahedra from      432


--------------------------------------------------------------------------------------------------------




 Dimension of arrays:
   k-points           NKPTS =     14   k-points in BZ     NKDIM =     14   number of bands    NBANDS=    204
   number of dos      NEDOS =    301   number of ions     NIONS =     30
   non local maximal  LDIM  =      6   non local SUM 2l+1 LMDIM =     18
   total plane-waves  NPLWV = 276480
   max r-space proj   IRMAX =   7820   max aug-charges    IRDMAX=  27304
   dimension x,y,z NGX =    48 NGY =   48 NGZ =  120
   dimension x,y,z NGXF=    96 NGYF=   96 NGZF=  240
   support grid    NGXF=    96 NGYF=   96 NGZF=  240
   ions per type =              12  18
   NGX,Y,Z   is equivalent  to a cutoff of  15.85, 15.85, 14.50 a.u.
   NGXF,Y,Z  is equivalent  to a cutoff of  31.70, 31.70, 29.00 a.u.

 SYSTEM =  unknown system                          
 POSCAR =  Fe12 O18                                

 Startparameter for this run:
   NWRITE =      2    write-flag & timer
   PREC   = accura    normal or accurate (medium, high low for compatibility)
   ISTART =      0    job   : 0-new  1-cont  2-samecut
   ICHARG =      2    charge: 1-file 2-atom 10-const
   ISPIN  =      2    spin polarized calculation?
   LNONCOLLINEAR =      F non collinear calculations
   LSORBIT =      F    spin-orbit coupling
   INIWAV =      1    electr: 0-lowe 1-rand  2-diag
   LASPH  =      F    aspherical Exc in radial PAW
   METAGGA=      F    non-selfconsistent MetaGGA calc.

 Electronic Relaxation 1
   ENCUT  =  720.0 eV  52.92 Ry    7.27 a.u.  11.02 11.02 30.10*2*pi/ulx,y,z
   ENINI  =  720.0     initial cutoff
   ENAUG  =  605.4 eV  augmentation charge cutoff
   NELM   =    100;   NELMIN=  2; NELMDL= -5     # of ELM steps 
   EDIFF  = 0.1E-06   stopping-criterion for ELM
   LREAL  =      T    real-space projection
   NLSPLINE    = F    spline interpolate recip. space projectors
   LCOMPAT=      F    compatible to vasp.4.4
   GGA_COMPAT  = T    GGA compatible to vasp.4.4-vasp.4.6
   LMAXPAW     = -100 max onsite density
   LMAXMIX     =    2 max onsite mixed and CHGCAR
   VOSKOWN=      0    Vosko Wilk Nusair interpolation
   ROPT   =   -0.00025  -0.00025
 Ionic relaxation
   EDIFFG = 0.1E-05   stopping-criterion for IOM
   NSW    =      0    number of steps for IOM
   NBLOCK =      1;   KBLOCK =      1    inner block; outer block 
   IBRION =     -1    ionic relax: 0-MD 1-quasi-New 2-CG
   NFREE  =      0    steps in history (QN), initial steepest desc. (CG)
   ISIF   =      3    stress and relaxation
   IWAVPR =     10    prediction:  0-non 1-charg 2-wave 3-comb
   ISYM   =      2    0-nonsym 1-usesym 2-fastsym
   LCORR  =      T    Harris-Foulkes like correction to forces

   POTIM  = 0.5000    time-step for ionic-motion
   TEIN   =    0.0    initial temperature
   TEBEG  =    0.0;   TEEND  =   0.0 temperature during run
   SMASS  =  -3.00    Nose mass-parameter (am)
   estimated Nose-frequenzy (Omega)   =  0.10E-29 period in steps =****** mass=  -0.579E-27a.u.
   SCALEE = 1.0000    scale energy and forces
   NPACO  =    256;   APACO  = 16.0  distance and # of slots for P.C.
   PSTRESS=    0.0 pullay stress

  Mass of Ions in am
   POMASS =  55.85 16.00
  Ionic Valenz
   ZVAL   =  14.00  6.00
  Atomic Wigner-Seitz radii
   RWIGS  =  -1.00 -1.00
  virtual crystal weights 
   VCA    =   1.00  1.00
   NELECT =     276.0000    total number of electrons
   NUPDOWN=      -1.0000    fix difference up-down

 DOS related values:
   EMIN   =  10.00;   EMAX   =-10.00  energy-range for DOS
   EFERMI =   0.00
   ISMEAR =    -5;   SIGMA  =   0.05  broadening in eV -4-tet -1-fermi 0-gaus

 Electronic relaxation 2 (details)
   IALGO  =     38    algorithm
   LDIAG  =      T    sub-space diagonalisation (order eigenvalues)
   LSUBROT=      F    optimize rotation matrix (better conditioning)
   TURBO    =      0    0=normal 1=particle mesh
   IRESTART =      0    0=no restart 2=restart with 2 vectors
   NREBOOT  =      0    no. of reboots
   NMIN     =      0    reboot dimension
   EREF     =   0.00    reference energy to select bands
   IMIX   =      4    mixing-type and parameters
     AMIX     =   0.40;   BMIX     =  1.00
     AMIX_MAG =   1.60;   BMIX_MAG =  1.00
     AMIN     =   0.10
     WC   =   100.;   INIMIX=   1;  MIXPRE=   1;  MAXMIX= -45

 Intra band minimization:
   WEIMIN = 0.0000     energy-eigenvalue tresh-hold
   EBREAK =  0.12E-09  absolut break condition
   DEPER  =   0.30     relativ break condition  

   TIME   =   0.40     timestep for ELM

  volume/ion in A,a.u.               =      10.07        67.95
  Fermi-wavevector in a.u.,A,eV,Ry     =   1.588581  3.001983 34.335534  2.523591
  Thomas-Fermi vector in A             =   2.687563
 
 Write flags
   LWAVE        =      F    write WAVECAR
   LDOWNSAMPLE  =      F    k-point downsampling of WAVECAR
   LCHARG       =      F    write CHGCAR
   LVTOT        =      F    write LOCPOT, total local potential
   LVHAR        =      F    write LOCPOT, Hartree potential only
   LELF         =      F    write electronic localiz. function (ELF)
   LORBIT       =     11    0 simple, 1 ext, 2 COOP (PROOUT), +10 PAW based schemes


 Dipole corrections
   LMONO  =      F    monopole corrections only (constant potential shift)
   LDIPOL =      F    correct potential (dipole corrections)
   IDIPOL =      0    1-x, 2-y, 3-z, 4-all directions 
   EPSILON=  1.0000000 bulk dielectric constant

 Exchange correlation treatment:
   GGA     =    --    GGA type
   LEXCH   =     8    internal setting for exchange type
   VOSKOWN=      0    Vosko Wilk Nusair interpolation
   LHFCALC =     F    Hartree Fock is set to
   LHFONE  =     F    Hartree Fock one center treatment
   AEXX    =    0.0000 exact exchange contribution

 Linear response parameters
   LEPSILON=     F    determine dielectric tensor
   LRPA    =     F    only Hartree local field effects (RPA)
   LNABLA  =     F    use nabla operator in PAW spheres
   LVEL    =     F    velocity operator in full k-point grid
   LINTERFAST=   F  fast interpolation
   KINTER  =     0    interpolate to denser k-point grid
   CSHIFT  =0.1000    complex shift for real part using Kramers Kronig
   OMEGAMAX=  -1.0    maximum frequency
   DEG_THRESHOLD= 0.2000000E-02 threshold for treating states as degnerate
   RTIME   =   -0.100 relaxation time in fs
  (WPLASMAI=    0.000 imaginary part of plasma frequency in eV, 0.658/RTIME)
   DFIELD  = 0.0000000 0.0000000 0.0000000 field for delta impulse in time
 
 Orbital magnetization related:
   ORBITALMAG=     F  switch on orbital magnetization
   LCHIMAG   =     F  perturbation theory with respect to B field
   DQ        =  0.001000  dq finite difference perturbation B field
   LLRAUG    =     F  two centre corrections for induced B field



--------------------------------------------------------------------------------------------------------


 Static calculation
 charge density and potential will be updated during run
 spin polarized calculation
 Variant of blocked Davidson
 Davidson routine will perform the subspace rotation
 perform sub-space diagonalisation
    after iterative eigenvector-optimisation
 modified Broyden-mixing scheme, WC =      100.0
 initial mixing is a Kerker type mixing with AMIX =  0.4000 and BMIX =      1.0000
 Hartree-type preconditioning will be used
 using additional bands           66
 real space projection scheme for non local part
 use partial core corrections
 calculate Harris-corrections to forces 
   (improved forces if not selfconsistent)
 use gradient corrections 
 use of overlap-Matrix (Vanderbilt PP)
 Fermi weights with tetrahedron method with Bloechl corrections


--------------------------------------------------------------------------------------------------------


  energy-cutoff  :      720.00
  volume of cell :      302.07
      direct lattice vectors                 reciprocal lattice vectors
     5.035100000  0.000000000  0.000000000     0.198605787  0.114665118  0.000000000
    -2.517550000  4.360524000  0.000000000     0.000000000  0.229330236  0.000000000
     0.000000000  0.000000000 13.758100000     0.000000000  0.000000000  0.072684455

  length of vectors
     5.035100000  5.035099558 13.758100000     0.229330216  0.229330236  0.072684455


 
 k-points in units of 2pi/SCALE and weight: pymatgen with grid density = 2464 / numb
   0.00000000  0.00000000  0.00000000       0.014
   0.03310096  0.01911085  0.00000000       0.083
   0.06620193  0.03822171  0.00000000       0.083
   0.09930289  0.05733256  0.00000000       0.042
   0.03310096  0.05733256  0.00000000       0.083
   0.06620193  0.07644341  0.00000000       0.167
   0.06620193  0.11466512  0.00000000       0.028
   0.00000000  0.00000000  0.03634223       0.014
   0.03310096  0.01911085  0.03634223       0.083
   0.06620193  0.03822171  0.03634223       0.083
   0.09930289  0.05733256  0.03634223       0.042
   0.03310096  0.05733256  0.03634223       0.083
   0.06620193  0.07644341  0.03634223       0.167
   0.06620193  0.11466512  0.03634223       0.028
 
 k-points in reciprocal lattice and weights: pymatgen with grid density = 2464 / numb
   0.00000000  0.00000000  0.00000000       0.014
   0.16666667  0.00000000  0.00000000       0.083
   0.33333333  0.00000000  0.00000000       0.083
   0.50000000  0.00000000  0.00000000       0.042
   0.16666667  0.16666667  0.00000000       0.083
   0.33333333  0.16666667  0.00000000       0.167
   0.33333333  0.33333333  0.00000000       0.028
   0.00000000  0.00000000  0.50000000       0.014
   0.16666667  0.00000000  0.50000000       0.083
   0.33333333  0.00000000  0.50000000       0.083
   0.50000000  0.00000000  0.50000000       0.042
   0.16666667  0.16666667  0.50000000       0.083
   0.33333333  0.16666667  0.50000000       0.167
   0.33333333  0.33333333  0.50000000       0.028
 
 position of ions in fractional coordinates (direct lattice) 
   0.00000000  0.00000000  0.35532000
   0.00000000  0.00000000  0.64468000
   0.33333300  0.66666700  0.02198700
   0.66666700  0.33333300  0.68865300
   0.33333300  0.66666700  0.31134700
   0.66666700  0.33333300  0.97801300
   0.00000000  0.00000000  0.14468000
   0.00000000  0.00000000  0.85532000
   0.33333300  0.66666700  0.81134700
   0.33333300  0.66666700  0.52198700
   0.66666700  0.33333300  0.47801300
   0.66666700  0.33333300  0.18865300
   0.30618000  0.00000000  0.25000000
   0.69382000  0.00000000  0.75000000
   0.63951300  0.66666700  0.91666700
   0.97284700  0.33333300  0.58333300
   0.02715300  0.66666700  0.41666700
   0.36048700  0.33333300  0.08333300
   0.00000000  0.30618000  0.25000000
   0.00000000  0.69382000  0.75000000
   0.33333300  0.97284700  0.91666700
   0.66666700  0.63951300  0.58333300
   0.33333300  0.36048700  0.41666700
   0.66666700  0.02715300  0.08333300
   0.69382000  0.69382000  0.25000000
   0.30618000  0.30618000  0.75000000
   0.02715300  0.36048700  0.91666700
   0.63951300  0.97284700  0.41666700
   0.36048700  0.02715300  0.58333300
   0.97284700  0.63951300  0.08333300
 
 position of ions in cartesian coordinates  (Angst):
   0.00000000  0.00000000  4.88852809
   0.00000000  0.00000000  8.86957191
  -0.00000252  2.90701745  0.30249934
   2.51755252  1.45350655  9.47455684
  -0.00000252  2.90701745  4.28354316
   2.51755252  1.45350655 13.45560066
   0.00000000  0.00000000  1.99052191
   0.00000000  0.00000000 11.76757809
  -0.00000252  2.90701745 11.16259316
  -0.00000252  2.90701745  7.18154934
   2.51755252  1.45350655  6.57655066
   2.51755252  1.45350655  2.59550684
   1.54164692  0.00000000  3.43952500
   3.49345308  0.00000000 10.31857500
   1.54164440  2.90701745 12.61159625
   4.05919944  1.45350655  8.02555375
  -1.54164944  2.90701745  5.73254625
   0.97590560  1.45350655  1.14650375
  -0.77082346  1.33510524  3.43952500
  -1.74672654  3.02541876 10.31857500
  -0.77082598  4.24212269 12.61159625
   1.74672906  2.78861178  8.02555375
   0.77082094  1.57191222  5.73254625
   3.28837598  0.11840131  1.14650375
   1.74672654  3.02541876  3.43952500
   0.77082346  1.33510524 10.31857500
  -0.77082598  1.57191222 12.61159625
   0.77082094  4.24212269  5.73254625
   1.74672906  0.11840131  8.02555375
   3.28837598  2.78861178  1.14650375
 


--------------------------------------------------------------------------------------------------------


 k-point  1 :   0.0000 0.0000 0.0000  plane waves:   13117
 k-point  2 :   0.1667 0.0000 0.0000  plane waves:   13221
 k-point  3 :   0.3333 0.0000 0.0000  plane waves:   13245
 k-point  4 :   0.5000 0.0000 0.0000  plane waves:   13304
 k-point  5 :   0.1667 0.1667 0.0000  plane waves:   13225
 k-point  6 :   0.3333 0.1667 0.0000  plane waves:   13268
 k-point  7 :   0.3333 0.3333 0.0000  plane waves:   13305
 k-point  8 :   0.0000 0.0000 0.5000  plane waves:   13056
 k-point  9 :   0.1667 0.0000 0.5000  plane waves:   13240
 k-point 10 :   0.3333 0.0000 0.5000  plane waves:   13252
 k-point 11 :   0.5000 0.0000 0.5000  plane waves:   13276
 k-point 12 :   0.1667 0.1667 0.5000  plane waves:   13256
 k-point 13 :   0.3333 0.1667 0.5000  plane waves:   13266
 k-point 14 :   0.3333 0.3333 0.5000  plane waves:   13296

 maximum and minimum number of plane-waves per node :      3340     3248

 maximum number of plane-waves:     13305
 maximum index in each direction: 
   IXMAX=   11   IYMAX=   11   IZMAX=   30
   IXMIN=  -11   IYMIN=  -11   IZMIN=  -30


 real space projection operators:
  total allocation   :      17714.25 KBytes
  max/ min on nodes  :       4459.12       4399.12


 parallel 3D FFT for wavefunctions:
    minimum data exchange during FFTs selected (reduces bandwidth)
 parallel 3D FFT for charge:
    minimum data exchange during FFTs selected (reduces bandwidth)


 total amount of memory used by VASP MPI-rank0   110204. kBytes
=======================================================================

   base      :      30000. kBytes
   nonlr-proj:       9460. kBytes
   fftplans  :       5160. kBytes
   grid      :      12969. kBytes
   one-center:        248. kBytes
   wavefun   :      52367. kBytes
 
     INWAV:  cpu time    0.0000: real time    0.0001
 Broyden mixing: mesh for mixing (old mesh)
   NGX = 23   NGY = 23   NGZ = 61
  (NGX  = 96   NGY  = 96   NGZ  =240)
  gives a total of  32269 points

 initial charge density was supplied:
 charge density of overlapping atoms calculated
 number of electron     276.0000000 magnetization      70.8000000
 keeping initial charge density in first step


--------------------------------------------------------------------------------------------------------


 Maximum index for non-local projection operator         1898
 Maximum index for augmentation-charges         1198 (set IRDMAX)


--------------------------------------------------------------------------------------------------------


 First call to EWALD:  gamma=   0.264
 Maximum number of real-space cells 4x 4x 2
 Maximum number of reciprocal cells 2x 2x 5

    FEWALD:  cpu time    0.0017: real time    0.0017


--------------------------------------- Iteration      1(   1)  ---------------------------------------


    POTLOK:  cpu time    0.1178: real time    0.1181
    SETDIJ:  cpu time    0.0143: real time    0.0143
     EDDAV:  cpu time   17.8084: real time   17.8569
 BZINTS: Fermi energy: 31.221350;276.000000 electrons
         Band energy:1743.450830;  BLOECHL correction: -0.063934
       DOS:  cpu time    0.0462: real time    0.0463
    --------------------------------------------
      LOOP:  cpu time   17.9867: real time   18.0357

 eigenvalue-minimisations  : 11508
 total energy-change (2. order) : 0.4760017E+04  (-0.1661081E+05)
 number of electron     276.0000000 magnetization      70.8000000
 augmentation part      276.0000000 magnetization      70.8000000

 Free energy of the ion-electron system (eV)
  ---------------------------------------------------
  alpha Z        PSCENC =      1362.55286497
  Ewald energy   TEWEN  =    -25513.06237826
  -Hartree energ DENC   =    -10371.14386019
  -exchange      EXHF   =         0.00000000
  -V(xc)+E(xc)   XCENC  =      1375.27778611
  PAW double counting   =     30224.59406688   -31333.39571732
  entropy T*S    EENTRO =         0.00000000
  eigenvalues    EBANDS =      1743.45082954
  atomic energy  EATOM  =     37271.74295941
  Solvation  Ediel_sol  =         0.00000000
  ---------------------------------------------------
  free energy    TOTEN  =      4760.01655114 eV

  energy without entropy =     4760.01655114  energy(sigma->0) =     4760.01655114


--------------------------------------------------------------------------------------------------------




--------------------------------------- Iteration      1(   2)  ---------------------------------------


     EDDAV:  cpu time   17.7697: real time   17.8134
 BZINTS: Fermi energy: 11.864481;276.000000 electrons
         Band energy:***********;  BLOECHL correction: -0.036993
       DOS:  cpu time    0.0466: real time    0.0467
    --------------------------------------------
      LOOP:  cpu time   17.8163: real time   17.8601

 eigenvalue-minimisations  : 11424
 total energy-change (2. order) :-0.4194317E+04  (-0.3834313E+04)
 number of electron     276.0000000 magnetization      70.8000000
 augmentation part      276.0000000 magnetization      70.8000000

 Free energy of the ion-electron system (eV)
  ---------------------------------------------------
  alpha Z        PSCENC =      1362.55286497
  Ewald energy   TEWEN  =    -25513.06237826
  -Hartree energ DENC   =    -10371.14386019
  -exchange      EXHF   =         0.00000000
  -V(xc)+E(xc)   XCENC  =      1375.27778611
  PAW double counting   =     30224.59406688   -31333.39571732
  entropy T*S    EENTRO =         0.00000000
  eigenvalues    EBANDS =     -2450.86609736
  atomic energy  EATOM  =     37271.74295941
  Solvation  Ediel_sol  =         0.00000000
  ---------------------------------------------------
  free energy    TOTEN  =       565.69962424 eV

  energy without entropy =      565.69962424  energy(sigma->0) =      565.69962424


--------------------------------------------------------------------------------------------------------




--------------------------------------- Iteration      1(   3)  ---------------------------------------


     EDDAV:  cpu time   18.2580: real time   18.3021
 BZINTS: Fermi energy:  8.576779;276.000000 electrons
         Band energy:***********;  BLOECHL correction:  0.000000
       DOS:  cpu time    0.0060: real time    0.0060
    --------------------------------------------
      LOOP:  cpu time   18.2640: real time   18.3082

 eigenvalue-minimisations  : 11844
 total energy-change (2. order) :-0.8014736E+03  (-0.6990761E+03)
 number of electron     276.0000000 magnetization      70.8000000
 augmentation part      276.0000000 magnetization      70.8000000

 Free energy of the ion-electron system (eV)
  ---------------------------------------------------
  alpha Z        PSCENC =      1362.55286497
  Ewald energy   TEWEN  =    -25513.06237826
  -Hartree energ DENC   =    -10371.14386019
  -exchange      EXHF   =         0.00000000
  -V(xc)+E(xc)   XCENC  =      1375.27778611
  PAW double counting   =     30224.59406688   -31333.39571732
  entropy T*S    EENTRO =         0.00000000
  eigenvalues    EBANDS =     -3252.33972652
  atomic energy  EATOM  =     37271.74295941
  Solvation  Ediel_sol  =         0.00000000
  ---------------------------------------------------
  free energy    TOTEN  =      -235.77400492 eV

  energy without entropy =     -235.77400492  energy(sigma->0) =     -235.77400492


--------------------------------------------------------------------------------------------------------




--------------------------------------- Iteration      1(   4)  ---------------------------------------


     EDDAV:  cpu time   19.5963: real time   19.6437
 BZINTS: Fermi energy:  8.177088;276.000000 electrons
         Band energy:***********;  BLOECHL correction:  0.000000
       DOS:  cpu time    0.0061: real time    0.0061
    --------------------------------------------
      LOOP:  cpu time   19.6024: real time   19.6497

 eigenvalue-minimisations  : 12948
 total energy-change (2. order) :-0.5803957E+02  (-0.5733327E+02)
 number of electron     276.0000000 magnetization      70.8000000
 augmentation part      276.0000000 magnetization      70.8000000

 Free energy of the ion-electron system (eV)
  ---------------------------------------------------
  alpha Z        PSCENC =      1362.55286497
  Ewald energy   TEWEN  =    -25513.06237826
  -Hartree energ DENC   =    -10371.14386019
  -exchange      EXHF   =         0.00000000
  -V(xc)+E(xc)   XCENC  =      1375.27778611
  PAW double counting   =     30224.59406688   -31333.39571732
  entropy T*S    EENTRO =         0.00000000
  eigenvalues    EBANDS =     -3310.37929241
  atomic energy  EATOM  =     37271.74295941
  Solvation  Ediel_sol  =         0.00000000
  ---------------------------------------------------
  free energy    TOTEN  =      -293.81357082 eV

  energy without entropy =     -293.81357082  energy(sigma->0) =     -293.81357082


--------------------------------------------------------------------------------------------------------




--------------------------------------- Iteration      1(   5)  ---------------------------------------


     EDDAV:  cpu time   19.3398: real time   19.3863
 BZINTS: Fermi energy:  8.330615;276.000000 electrons
         Band energy:***********;  BLOECHL correction:  0.000000
       DOS:  cpu time    0.0072: real time    0.0072
    CHARGE:  cpu time    0.7302: real time    0.7320
    MIXING:  cpu time    0.0027: real time    0.0027
    --------------------------------------------
      LOOP:  cpu time   20.0800: real time   20.1283

 eigenvalue-minimisations  : 12744
 total energy-change (2. order) :-0.6719040E+00  (-0.6699199E+00)
 number of electron     275.9999965 magnetization      67.8179403
 augmentation part      108.0150483 magnetization      47.0425355

 Broyden mixing:
  rms(total) = 0.80940E+01    rms(broyden)= 0.80940E+01
  rms(prec ) = 0.88400E+01
  weight for this iteration     100.00

 Free energy of the ion-electron system (eV)
  ---------------------------------------------------
  alpha Z        PSCENC =      1362.55286497
  Ewald energy   TEWEN  =    -25513.06237826
  -Hartree energ DENC   =    -10371.14386019
  -exchange      EXHF   =         0.00000000
  -V(xc)+E(xc)   XCENC  =      1375.27778611
  PAW double counting   =     30224.59406688   -31333.39571732
  entropy T*S    EENTRO =         0.00000000
  eigenvalues    EBANDS =     -3311.05119645
  atomic energy  EATOM  =     37271.74295941
  Solvation  Ediel_sol  =         0.00000000
  ---------------------------------------------------
  free energy    TOTEN  =      -294.48547485 eV

  energy without entropy =     -294.48547485  energy(sigma->0) =     -294.48547485


--------------------------------------------------------------------------------------------------------




--------------------------------------- Iteration      1(   6)  ---------------------------------------


    POTLOK:  cpu time    0.1153: real time    0.1160
    SETDIJ:  cpu time    0.0142: real time    0.0142
     EDDAV:  cpu time   21.7373: real time   21.7884
 BZINTS: Fermi energy:  5.534915;276.000000 electrons
         Band energy:***********;  BLOECHL correction: -0.054497
       DOS:  cpu time    0.0497: real time    0.0498
    CHARGE:  cpu time    0.7494: real time    0.7512
    MIXING:  cpu time    0.0026: real time    0.0027
    --------------------------------------------
      LOOP:  cpu time   22.6686: real time   22.7224

 eigenvalue-minimisations  : 14820
 total energy-change (2. order) : 0.5917265E+02  (-0.2531509E+02)
 number of electron     275.9999970 magnetization      62.9813689
 augmentation part      120.7144415 magnetization      54.4159262

 Broyden mixing:
  rms(total) = 0.91253E+01    rms(broyden)= 0.91253E+01
  rms(prec ) = 0.97748E+01
  weight for this iteration     100.00

 eigenvalues of (default mixing * dielectric matrix)
  average eigenvalue GAMMA=   0.3185
  0.3185

 Free energy of the ion-electron system (eV)
  ---------------------------------------------------
  alpha Z        PSCENC =      1362.55286497
  Ewald energy   TEWEN  =    -25513.06237826
  -Hartree energ DENC   =     -9965.71912825
  -exchange      EXHF   =         0.00000000
  -V(xc)+E(xc)   XCENC  =      1376.63982116
  PAW double counting   =     31438.71880620   -32505.59192751
  entropy T*S    EENTRO =         0.00000000
  eigenvalues    EBANDS =     -3700.59384413
  atomic energy  EATOM  =     37271.74295941
  Solvation  Ediel_sol  =         0.00000000
  ---------------------------------------------------
  free energy    TOTEN  =      -235.31282641 eV

  energy without entropy =     -235.31282641  energy(sigma->0) =     -235.31282641


--------------------------------------------------------------------------------------------------------




--------------------------------------- Iteration      1(   7)  ---------------------------------------


    POTLOK:  cpu time    0.1125: real time    0.1194
    SETDIJ:  cpu time    0.0141: real time    0.0141
     EDDAV:  cpu time   18.6127: real time   18.6566
 BZINTS: Fermi energy:  7.079399;276.000000 electrons
         Band energy:***********;  BLOECHL correction: -0.036526
       DOS:  cpu time    0.0472: real time    0.0473
    CHARGE:  cpu time    0.7417: real time    0.7435
    MIXING:  cpu time    0.0024: real time    0.0024
    --------------------------------------------
      LOOP:  cpu time   19.5306: real time   19.5833

 eigenvalue-minimisations  : 12192
 total energy-change (2. order) : 0.2320683E+02  (-0.1140518E+02)
 number of electron     275.9999968 magnetization      58.7808394
 augmentation part      109.3454545 magnetization      40.3334621

 Broyden mixing:
  rms(total) = 0.43658E+01    rms(broyden)= 0.43658E+01
  rms(prec ) = 0.45256E+01
  weight for this iteration     100.00

 eigenvalues of (default mixing * dielectric matrix)
  average eigenvalue GAMMA=   0.6788
  1.0271  0.3304

 Free energy of the ion-electron system (eV)
  ---------------------------------------------------
  alpha Z        PSCENC =      1362.55286497
  Ewald energy   TEWEN  =    -25513.06237826
  -Hartree energ DENC   =    -10207.64600400
  -exchange      EXHF   =         0.00000000
  -V(xc)+E(xc)   XCENC  =      1372.38701852
  PAW double counting   =     32871.87058270   -34000.29202187
  entropy T*S    EENTRO =         0.00000000
  eigenvalues    EBANDS =     -3369.65901866
  atomic energy  EATOM  =     37271.74295941
  Solvation  Ediel_sol  =         0.00000000
  ---------------------------------------------------
  free energy    TOTEN  =      -212.10599719 eV

  energy without entropy =     -212.10599719  energy(sigma->0) =     -212.10599719


--------------------------------------------------------------------------------------------------------




--------------------------------------- Iteration      1(   8)  ---------------------------------------


    POTLOK:  cpu time    0.1139: real time    0.1143
    SETDIJ:  cpu time    0.0142: real time    0.0142
     EDDAV:  cpu time   18.5843: real time   18.6287
 BZINTS: Fermi energy:  6.445061;276.000000 electrons
         Band energy:***********;  BLOECHL correction: -0.034098
       DOS:  cpu time    0.0470: real time    0.0471
    CHARGE:  cpu time    0.7429: real time    0.7446
    MIXING:  cpu time    0.0029: real time    0.0029
    --------------------------------------------
      LOOP:  cpu time   19.5052: real time   19.5518

 eigenvalue-minimisations  : 12132
 total energy-change (2. order) :-0.6223636E+01  (-0.2137739E+01)
 number of electron     275.9999968 magnetization      51.9444063
 augmentation part      111.2679119 magnetization      35.0298788

 Broyden mixing:
  rms(total) = 0.26528E+01    rms(broyden)= 0.26528E+01
  rms(prec ) = 0.27129E+01
  weight for this iteration     100.00

 eigenvalues of (default mixing * dielectric matrix)
  average eigenvalue GAMMA=   1.0712
  2.2506  0.5795  0.3836

 Free energy of the ion-electron system (eV)
  ---------------------------------------------------
  alpha Z        PSCENC =      1362.55286497
  Ewald energy   TEWEN  =    -25513.06237826
  -Hartree energ DENC   =    -10072.16568028
  -exchange      EXHF   =         0.00000000
  -V(xc)+E(xc)   XCENC  =      1366.35453479
  PAW double counting   =     34230.97401751   -35371.10243298
  entropy T*S    EENTRO =         0.00000000
  eigenvalues    EBANDS =     -3493.62351840
  atomic energy  EATOM  =     37271.74295941
  Solvation  Ediel_sol  =         0.00000000
  ---------------------------------------------------
  free energy    TOTEN  =      -218.32963324 eV

  energy without entropy =     -218.32963324  energy(sigma->0) =     -218.32963324


--------------------------------------------------------------------------------------------------------




--------------------------------------- Iteration      1(   9)  ---------------------------------------


    POTLOK:  cpu time    0.1144: real time    0.1150
    SETDIJ:  cpu time    0.0142: real time    0.0143
     EDDAV:  cpu time   19.1543: real time   19.1996
 BZINTS: Fermi energy:  5.881534;276.000000 electrons
         Band energy:***********;  BLOECHL correction: -0.038315
       DOS:  cpu time    0.0472: real time    0.0473
    CHARGE:  cpu time    0.7398: real time    0.7415
    MIXING:  cpu time    0.0031: real time    0.0031
    --------------------------------------------
      LOOP:  cpu time   20.0731: real time   20.1209

 eigenvalue-minimisations  : 12636
 total energy-change (2. order) :-0.4156044E+01  (-0.8154037E+00)
 number of electron     275.9999968 magnetization      50.9100013
 augmentation part      114.1234061 magnetization      37.7755935

 Broyden mixing:
  rms(total) = 0.27003E+01    rms(broyden)= 0.27003E+01
  rms(prec ) = 0.28292E+01
  weight for this iteration     100.00

 eigenvalues of (default mixing * dielectric matrix)
  average eigenvalue GAMMA=   1.1017
  2.8511  0.8034  0.3763  0.3763

 Free energy of the ion-electron system (eV)
  ---------------------------------------------------
  alpha Z        PSCENC =      1362.55286497
  Ewald energy   TEWEN  =    -25513.06237826
  -Hartree energ DENC   =     -9933.54907377
  -exchange      EXHF   =         0.00000000
  -V(xc)+E(xc)   XCENC  =      1362.34668207
  PAW double counting   =     36515.74379324   -37684.64722830
  entropy T*S    EENTRO =         0.00000000
  eigenvalues    EBANDS =     -3603.61329648
  atomic energy  EATOM  =     37271.74295941
  Solvation  Ediel_sol  =         0.00000000
  ---------------------------------------------------
  free energy    TOTEN  =      -222.48567713 eV

  energy without entropy =     -222.48567713  energy(sigma->0) =     -222.48567713


--------------------------------------------------------------------------------------------------------




--------------------------------------- Iteration      1(  10)  ---------------------------------------


    POTLOK:  cpu time    0.1136: real time    0.1142
    SETDIJ:  cpu time    0.0144: real time    0.0144
     EDDAV:  cpu time   19.1270: real time   19.1720
 BZINTS: Fermi energy:  5.958509;276.000000 electrons
         Band energy:***********;  BLOECHL correction: -0.037136
       DOS:  cpu time    0.0496: real time    0.0498
    CHARGE:  cpu time    0.7404: real time    0.7422
    MIXING:  cpu time    0.0029: real time    0.0029
    --------------------------------------------
      LOOP:  cpu time   20.0479: real time   20.0955

 eigenvalue-minimisations  : 12564
 total energy-change (2. order) : 0.3272829E+00  (-0.2446458E+00)
 number of electron     275.9999968 magnetization      50.6068048
 augmentation part      113.4176267 magnetization      37.2970750

 Broyden mixing:
  rms(total) = 0.18569E+01    rms(broyden)= 0.18569E+01
  rms(prec ) = 0.19672E+01
  weight for this iteration     100.00

 eigenvalues of (default mixing * dielectric matrix)
  average eigenvalue GAMMA=   1.0183
  2.6187  0.3741  0.7702  0.6642  0.6642

 Free energy of the ion-electron system (eV)
  ---------------------------------------------------
  alpha Z        PSCENC =      1362.55286497
  Ewald energy   TEWEN  =    -25513.06237826
  -Hartree energ DENC   =     -9949.01625137
  -exchange      EXHF   =         0.00000000
  -V(xc)+E(xc)   XCENC  =      1360.89972250
  PAW double counting   =     36555.59286792   -37727.89580036
  entropy T*S    EENTRO =         0.00000000
  eigenvalues    EBANDS =     -3582.97237905
  atomic energy  EATOM  =     37271.74295941
  Solvation  Ediel_sol  =         0.00000000
  ---------------------------------------------------
  free energy    TOTEN  =      -222.15839424 eV

  energy without entropy =     -222.15839424  energy(sigma->0) =     -222.15839424


--------------------------------------------------------------------------------------------------------




--------------------------------------- Iteration      1(  11)  ---------------------------------------


    POTLOK:  cpu time    0.1140: real time    0.1150
    SETDIJ:  cpu time    0.0144: real time    0.0144
     EDDAV:  cpu time   21.0652: real time   21.1155
 BZINTS: Fermi energy:  6.019705;276.000000 electrons
         Band energy:***********;  BLOECHL correction: -0.034037
       DOS:  cpu time    0.0495: real time    0.0496
    CHARGE:  cpu time    0.7421: real time    0.7438
    MIXING:  cpu time    0.0032: real time    0.0032
    --------------------------------------------
      LOOP:  cpu time   21.9883: real time   22.0415

 eigenvalue-minimisations  : 14232
 total energy-change (2. order) : 0.5614008E+00  (-0.2252846E-01)
 number of electron     275.9999968 magnetization      49.2910910
 augmentation part      112.9999891 magnetization      35.5984640

 Broyden mixing:
  rms(total) = 0.12180E+01    rms(broyden)= 0.12180E+01
  rms(prec ) = 0.12912E+01
  weight for this iteration     100.00

 eigenvalues of (default mixing * dielectric matrix)
  average eigenvalue GAMMA=   1.0466
  2.5836  0.9741  0.9741  0.3791  0.8006  0.5680

 Free energy of the ion-electron system (eV)
  ---------------------------------------------------
  alpha Z        PSCENC =      1362.55286497
  Ewald energy   TEWEN  =    -25513.06237826
  -Hartree energ DENC   =     -9960.14694408
  -exchange      EXHF   =         0.00000000
  -V(xc)+E(xc)   XCENC  =      1360.23251002
  PAW double counting   =     36386.58677765   -37556.89765074
  entropy T*S    EENTRO =         0.00000000
  eigenvalues    EBANDS =     -3572.60513236
  atomic energy  EATOM  =     37271.74295941
  Solvation  Ediel_sol  =         0.00000000
  ---------------------------------------------------
  free energy    TOTEN  =      -221.59699340 eV

  energy without entropy =     -221.59699340  energy(sigma->0) =     -221.59699340


--------------------------------------------------------------------------------------------------------




--------------------------------------- Iteration      1(  12)  ---------------------------------------


    POTLOK:  cpu time    0.1145: real time    0.1151
    SETDIJ:  cpu time    0.0144: real time    0.0144
     EDDAV:  cpu time   22.2470: real time   22.2999
 BZINTS: Fermi energy:  6.079978;276.000000 electrons
         Band energy:***********;  BLOECHL correction: -0.033320
       DOS:  cpu time    0.0486: real time    0.0488
    CHARGE:  cpu time    0.7389: real time    0.7406
    MIXING:  cpu time    0.0031: real time    0.0031
    --------------------------------------------
      LOOP:  cpu time   23.1664: real time   23.2219

 eigenvalue-minimisations  : 15204
 total energy-change (2. order) : 0.2032032E+00  (-0.1962193E-01)
 number of electron     275.9999968 magnetization      46.8377975
 augmentation part      112.6775708 magnetization      33.0424154

 Broyden mixing:
  rms(total) = 0.84131E+00    rms(broyden)= 0.84131E+00
  rms(prec ) = 0.88208E+00
  weight for this iteration     100.00

 eigenvalues of (default mixing * dielectric matrix)
  average eigenvalue GAMMA=   1.0993
  2.1100  1.7622  1.4195  0.3778  0.7516  0.6371  0.6371

 Free energy of the ion-electron system (eV)
  ---------------------------------------------------
  alpha Z        PSCENC =      1362.55286497
  Ewald energy   TEWEN  =    -25513.06237826
  -Hartree energ DENC   =     -9973.26185482
  -exchange      EXHF   =         0.00000000
  -V(xc)+E(xc)   XCENC  =      1359.58646137
  PAW double counting   =     36270.83951661   -37440.09053360
  entropy T*S    EENTRO =         0.00000000
  eigenvalues    EBANDS =     -3559.70082587
  atomic energy  EATOM  =     37271.74295941
  Solvation  Ediel_sol  =         0.00000000
  ---------------------------------------------------
  free energy    TOTEN  =      -221.39379019 eV

  energy without entropy =     -221.39379019  energy(sigma->0) =     -221.39379019


--------------------------------------------------------------------------------------------------------




--------------------------------------- Iteration      1(  13)  ---------------------------------------


    POTLOK:  cpu time    0.1141: real time    0.1145
    SETDIJ:  cpu time    0.0143: real time    0.0144
     EDDAV:  cpu time   20.7526: real time   20.8014
 BZINTS: Fermi energy:  6.139738;276.000000 electrons
         Band energy:***********;  BLOECHL correction: -0.034440
       DOS:  cpu time    0.0484: real time    0.0485
    CHARGE:  cpu time    0.7390: real time    0.7407
    MIXING:  cpu time    0.0032: real time    0.0032
    --------------------------------------------
      LOOP:  cpu time   21.6715: real time   21.7227

 eigenvalue-minimisations  : 13944
 total energy-change (2. order) : 0.6994239E-03  (-0.1141000E-01)
 number of electron     275.9999968 magnetization      43.9667899
 augmentation part      112.4053839 magnetization      30.4213108

 Broyden mixing:
  rms(total) = 0.46274E+00    rms(broyden)= 0.46274E+00
  rms(prec ) = 0.48572E+00
  weight for this iteration     100.00

 eigenvalues of (default mixing * dielectric matrix)
  average eigenvalue GAMMA=   1.3975
  3.4483  3.4483  0.3781  0.9284  0.9284  0.7244  0.7244  0.5996

 Free energy of the ion-electron system (eV)
  ---------------------------------------------------
  alpha Z        PSCENC =      1362.55286497
  Ewald energy   TEWEN  =    -25513.06237826
  -Hartree energ DENC   =     -9991.40292229
  -exchange      EXHF   =         0.00000000
  -V(xc)+E(xc)   XCENC  =      1358.76199660
  PAW double counting   =     36040.72176917   -37206.90645988
  entropy T*S    EENTRO =         0.00000000
  eigenvalues    EBANDS =     -3543.80092049
  atomic energy  EATOM  =     37271.74295941
  Solvation  Ediel_sol  =         0.00000000
  ---------------------------------------------------
  free energy    TOTEN  =      -221.39309076 eV

  energy without entropy =     -221.39309076  energy(sigma->0) =     -221.39309076


--------------------------------------------------------------------------------------------------------




--------------------------------------- Iteration      1(  14)  ---------------------------------------


    POTLOK:  cpu time    0.1140: real time    0.1144
    SETDIJ:  cpu time    0.0143: real time    0.0143
     EDDAV:  cpu time   21.9150: real time   21.9675
 BZINTS: Fermi energy:  6.171536;276.000000 electrons
         Band energy:***********;  BLOECHL correction: -0.032757
       DOS:  cpu time    0.0461: real time    0.0462
    CHARGE:  cpu time    0.7397: real time    0.7414
    MIXING:  cpu time    0.0038: real time    0.0038
    --------------------------------------------
      LOOP:  cpu time   22.8328: real time   22.8875

 eigenvalue-minimisations  : 14928
 total energy-change (2. order) :-0.4500003E-01  (-0.1525552E-01)
 number of electron     275.9999968 magnetization      43.0504960
 augmentation part      112.2255062 magnetization      29.8875138

 Broyden mixing:
  rms(total) = 0.18011E+00    rms(broyden)= 0.18011E+00
  rms(prec ) = 0.18770E+00
  weight for this iteration     100.00

 eigenvalues of (default mixing * dielectric matrix)
  average eigenvalue GAMMA=   1.5064
  5.3553  2.7850  1.2235  0.3780  0.8389  0.8389  0.8856  0.6261  0.6261

 Free energy of the ion-electron system (eV)
  ---------------------------------------------------
  alpha Z        PSCENC =      1362.55286497
  Ewald energy   TEWEN  =    -25513.06237826
  -Hartree energ DENC   =    -10003.91207242
  -exchange      EXHF   =         0.00000000
  -V(xc)+E(xc)   XCENC  =      1357.68100197
  PAW double counting   =     35842.17818867   -37005.34909526
  entropy T*S    EENTRO =         0.00000000
  eigenvalues    EBANDS =     -3533.26955986
  atomic energy  EATOM  =     37271.74295941
  Solvation  Ediel_sol  =         0.00000000
  ---------------------------------------------------
  free energy    TOTEN  =      -221.43809080 eV

  energy without entropy =     -221.43809080  energy(sigma->0) =     -221.43809080


--------------------------------------------------------------------------------------------------------




--------------------------------------- Iteration      1(  15)  ---------------------------------------


    POTLOK:  cpu time    0.1125: real time    0.1131
    SETDIJ:  cpu time    0.0146: real time    0.0146
     EDDAV:  cpu time   19.3893: real time   19.4352
 BZINTS: Fermi energy:  6.157630;276.000000 electrons
         Band energy:***********;  BLOECHL correction: -0.032996
       DOS:  cpu time    0.0497: real time    0.0498
    CHARGE:  cpu time    0.7483: real time    0.7501
    MIXING:  cpu time    0.0035: real time    0.0035
    --------------------------------------------
      LOOP:  cpu time   20.3179: real time   20.3664

 eigenvalue-minimisations  : 12744
 total energy-change (2. order) :-0.1790483E-01  (-0.6095237E-02)
 number of electron     275.9999968 magnetization      42.6105338
 augmentation part      112.2758296 magnetization      29.6222823

 Broyden mixing:
  rms(total) = 0.14215E+00    rms(broyden)= 0.14215E+00
  rms(prec ) = 0.15065E+00
  weight for this iteration     100.00

 eigenvalues of (default mixing * dielectric matrix)
  average eigenvalue GAMMA=   1.5486
  6.1544  2.8503  1.3378  1.0827  0.3780  0.8495  0.8495  0.6942  0.6942  0.5957

 Free energy of the ion-electron system (eV)
  ---------------------------------------------------
  alpha Z        PSCENC =      1362.55286497
  Ewald energy   TEWEN  =    -25513.06237826
  -Hartree energ DENC   =    -10002.66988320
  -exchange      EXHF   =         0.00000000
  -V(xc)+E(xc)   XCENC  =      1357.18760521
  PAW double counting   =     35827.82729876   -36990.61909680
  entropy T*S    EENTRO =         0.00000000
  eigenvalues    EBANDS =     -3534.41536571
  atomic energy  EATOM  =     37271.74295941
  Solvation  Ediel_sol  =         0.00000000
  ---------------------------------------------------
  free energy    TOTEN  =      -221.45599562 eV

  energy without entropy =     -221.45599562  energy(sigma->0) =     -221.45599562


--------------------------------------------------------------------------------------------------------




--------------------------------------- Iteration      1(  16)  ---------------------------------------


    POTLOK:  cpu time    0.1124: real time    0.1128
    SETDIJ:  cpu time    0.0143: real time    0.0144
     EDDAV:  cpu time   21.3371: real time   21.3874
 BZINTS: Fermi energy:  6.179063;276.000000 electrons
         Band energy:***********;  BLOECHL correction: -0.032863
       DOS:  cpu time    0.0496: real time    0.0497
    CHARGE:  cpu time    0.7386: real time    0.7403
    MIXING:  cpu time    0.0038: real time    0.0038
    --------------------------------------------
      LOOP:  cpu time   22.2560: real time   22.3085

 eigenvalue-minimisations  : 14436
 total energy-change (2. order) : 0.5158768E-02  (-0.9075820E-03)
 number of electron     275.9999968 magnetization      42.4852509
 augmentation part      112.1846313 magnetization      29.4965386

 Broyden mixing:
  rms(total) = 0.35918E-01    rms(broyden)= 0.35917E-01
  rms(prec ) = 0.37571E-01
  weight for this iteration     100.00

 eigenvalues of (default mixing * dielectric matrix)
  average eigenvalue GAMMA=   1.5371
  6.3154  2.7811  1.2992  1.2992  1.1478  0.3780  0.8073  0.8073  0.7320  0.7320
  0.6084

 Free energy of the ion-electron system (eV)
  ---------------------------------------------------
  alpha Z        PSCENC =      1362.55286497
  Ewald energy   TEWEN  =    -25513.06237826
  -Hartree energ DENC   =    -10007.31805956
  -exchange      EXHF   =         0.00000000
  -V(xc)+E(xc)   XCENC  =      1357.07573121
  PAW double counting   =     35785.98530292   -36948.67932507
  entropy T*S    EENTRO =         0.00000000
  eigenvalues    EBANDS =     -3529.74793247
  atomic energy  EATOM  =     37271.74295941
  Solvation  Ediel_sol  =         0.00000000
  ---------------------------------------------------
  free energy    TOTEN  =      -221.45083686 eV

  energy without entropy =     -221.45083686  energy(sigma->0) =     -221.45083686


--------------------------------------------------------------------------------------------------------




--------------------------------------- Iteration      1(  17)  ---------------------------------------


    POTLOK:  cpu time    0.1137: real time    0.1151
    SETDIJ:  cpu time    0.0143: real time    0.0143
     EDDAV:  cpu time   18.8489: real time   18.8934
 BZINTS: Fermi energy:  6.179809;276.000000 electrons
         Band energy:***********;  BLOECHL correction: -0.032810
       DOS:  cpu time    0.0497: real time    0.0498
    CHARGE:  cpu time    0.7415: real time    0.7433
    MIXING:  cpu time    0.0041: real time    0.0042
    --------------------------------------------
      LOOP:  cpu time   19.7723: real time   19.8200

 eigenvalue-minimisations  : 12324
 total energy-change (2. order) :-0.6147858E-03  (-0.4721621E-03)
 number of electron     275.9999968 magnetization      42.3884122
 augmentation part      112.1816864 magnetization      29.4116531

 Broyden mixing:
  rms(total) = 0.19611E-01    rms(broyden)= 0.19611E-01
  rms(prec ) = 0.20239E-01
  weight for this iteration     100.00

 eigenvalues of (default mixing * dielectric matrix)
  average eigenvalue GAMMA=   1.5601
  6.5109  2.7591  2.4506  1.0683  1.0683  0.3780  0.8949  0.8949  0.7196  0.7196
  0.6040  0.6530

 Free energy of the ion-electron system (eV)
  ---------------------------------------------------
  alpha Z        PSCENC =      1362.55286497
  Ewald energy   TEWEN  =    -25513.06237826
  -Hartree energ DENC   =    -10006.90060690
  -exchange      EXHF   =         0.00000000
  -V(xc)+E(xc)   XCENC  =      1357.01213185
  PAW double counting   =     35807.57781266   -36970.85821662
  entropy T*S    EENTRO =         0.00000000
  eigenvalues    EBANDS =     -3529.51601875
  atomic energy  EATOM  =     37271.74295941
  Solvation  Ediel_sol  =         0.00000000
  ---------------------------------------------------
  free energy    TOTEN  =      -221.45145164 eV

  energy without entropy =     -221.45145164  energy(sigma->0) =     -221.45145164


--------------------------------------------------------------------------------------------------------




--------------------------------------- Iteration      1(  18)  ---------------------------------------


    POTLOK:  cpu time    0.1132: real time    0.1136
    SETDIJ:  cpu time    0.0145: real time    0.0146
     EDDAV:  cpu time   21.2574: real time   21.3094
 BZINTS: Fermi energy:  6.180519;276.000000 electrons
         Band energy:***********;  BLOECHL correction: -0.032928
       DOS:  cpu time    0.0495: real time    0.0497
    CHARGE:  cpu time    0.7460: real time    0.7477
    MIXING:  cpu time    0.0039: real time    0.0039
    --------------------------------------------
      LOOP:  cpu time   22.1844: real time   22.2388

 eigenvalue-minimisations  : 14412
 total energy-change (2. order) :-0.2202729E-03  (-0.2254761E-04)
 number of electron     275.9999968 magnetization      42.3383866
 augmentation part      112.1757725 magnetization      29.3785790

 Broyden mixing:
  rms(total) = 0.85393E-02    rms(broyden)= 0.85391E-02
  rms(prec ) = 0.88811E-02
  weight for this iteration     100.00

 eigenvalues of (default mixing * dielectric matrix)
  average eigenvalue GAMMA=   1.5305
  6.6382  2.8294  2.4522  1.1484  1.1484  0.9574  0.9574  0.3780  0.7380  0.7380
  0.6909  0.6099  0.6099

 Free energy of the ion-electron system (eV)
  ---------------------------------------------------
  alpha Z        PSCENC =      1362.55286497
  Ewald energy   TEWEN  =    -25513.06237826
  -Hartree energ DENC   =    -10007.24554726
  -exchange      EXHF   =         0.00000000
  -V(xc)+E(xc)   XCENC  =      1356.96600870
  PAW double counting   =     35805.14054359   -36968.46481951
  entropy T*S    EENTRO =         0.00000000
  eigenvalues    EBANDS =     -3529.08130355
  atomic energy  EATOM  =     37271.74295941
  Solvation  Ediel_sol  =         0.00000000
  ---------------------------------------------------
  free energy    TOTEN  =      -221.45167192 eV

  energy without entropy =     -221.45167192  energy(sigma->0) =     -221.45167192


--------------------------------------------------------------------------------------------------------




--------------------------------------- Iteration      1(  19)  ---------------------------------------


    POTLOK:  cpu time    0.1140: real time    0.1144
    SETDIJ:  cpu time    0.0141: real time    0.0141
     EDDAV:  cpu time   20.6919: real time   20.7407
 BZINTS: Fermi energy:  6.181431;276.000000 electrons
         Band energy:***********;  BLOECHL correction: -0.032990
       DOS:  cpu time    0.0497: real time    0.0498
    CHARGE:  cpu time    0.7420: real time    0.7439
    MIXING:  cpu time    0.0043: real time    0.0044
    --------------------------------------------
      LOOP:  cpu time   21.6161: real time   21.6673

 eigenvalue-minimisations  : 13884
 total energy-change (2. order) :-0.6221598E-04  (-0.1065786E-04)
 number of electron     275.9999968 magnetization      42.3270611
 augmentation part      112.1719169 magnetization      29.3756236

 Broyden mixing:
  rms(total) = 0.19709E-02    rms(broyden)= 0.19707E-02
  rms(prec ) = 0.20994E-02
  weight for this iteration     100.00

 eigenvalues of (default mixing * dielectric matrix)
  average eigenvalue GAMMA=   1.5171
  6.7134  2.8683  2.4050  1.2976  1.2976  0.9980  0.9980  0.3780  0.7802  0.7802
  0.7502  0.7502  0.6114  0.6114

 Free energy of the ion-electron system (eV)
  ---------------------------------------------------
  alpha Z        PSCENC =      1362.55286497
  Ewald energy   TEWEN  =    -25513.06237826
  -Hartree energ DENC   =    -10007.57888746
  -exchange      EXHF   =         0.00000000
  -V(xc)+E(xc)   XCENC  =      1356.94653902
  PAW double counting   =     35800.92497820   -36964.19819633
  entropy T*S    EENTRO =         0.00000000
  eigenvalues    EBANDS =     -3528.77961367
  atomic energy  EATOM  =     37271.74295941
  Solvation  Ediel_sol  =         0.00000000
  ---------------------------------------------------
  free energy    TOTEN  =      -221.45173413 eV

  energy without entropy =     -221.45173413  energy(sigma->0) =     -221.45173413


--------------------------------------------------------------------------------------------------------




--------------------------------------- Iteration      1(  20)  ---------------------------------------


    POTLOK:  cpu time    0.1139: real time    0.1149
    SETDIJ:  cpu time    0.0144: real time    0.0145
     EDDAV:  cpu time   19.3040: real time   19.3512
 BZINTS: Fermi energy:  6.181900;276.000000 electrons
         Band energy:***********;  BLOECHL correction: -0.033000
       DOS:  cpu time    0.0483: real time    0.0484
    CHARGE:  cpu time    0.7453: real time    0.7471
    MIXING:  cpu time    0.0043: real time    0.0043
    --------------------------------------------
      LOOP:  cpu time   20.2302: real time   20.2804

 eigenvalue-minimisations  : 12732
 total energy-change (2. order) :-0.1065586E-04  (-0.1898040E-05)
 number of electron     275.9999968 magnetization      42.3235358
 augmentation part      112.1705365 magnetization      29.3737858

 Broyden mixing:
  rms(total) = 0.77287E-03    rms(broyden)= 0.77280E-03
  rms(prec ) = 0.79284E-03
  weight for this iteration     100.00

 eigenvalues of (default mixing * dielectric matrix)
  average eigenvalue GAMMA=   1.5140
  6.7437  2.9603  2.3714  1.8799  1.0833  1.0833  1.0134  1.0134  0.3780  0.7439
  0.7439  0.7251  0.7251  0.6069  0.6382

 Free energy of the ion-electron system (eV)
  ---------------------------------------------------
  alpha Z        PSCENC =      1362.55286497
  Ewald energy   TEWEN  =    -25513.06237826
  -Hartree energ DENC   =    -10007.69431632
  -exchange      EXHF   =         0.00000000
  -V(xc)+E(xc)   XCENC  =      1356.94247832
  PAW double counting   =     35800.33887978   -36963.61357616
  entropy T*S    EENTRO =         0.00000000
  eigenvalues    EBANDS =     -3528.65865652
  atomic energy  EATOM  =     37271.74295941
  Solvation  Ediel_sol  =         0.00000000
  ---------------------------------------------------
  free energy    TOTEN  =      -221.45174479 eV

  energy without entropy =     -221.45174479  energy(sigma->0) =     -221.45174479


--------------------------------------------------------------------------------------------------------




--------------------------------------- Iteration      1(  21)  ---------------------------------------


    POTLOK:  cpu time    0.1141: real time    0.1145
    SETDIJ:  cpu time    0.0142: real time    0.0143
     EDDAV:  cpu time   18.6858: real time   18.7331
 BZINTS: Fermi energy:  6.182134;276.000000 electrons
         Band energy:***********;  BLOECHL correction: -0.032999
       DOS:  cpu time    0.0497: real time    0.0498
    CHARGE:  cpu time    0.7392: real time    0.7410
    MIXING:  cpu time    0.0042: real time    0.0042
    --------------------------------------------
      LOOP:  cpu time   19.6073: real time   19.6569

 eigenvalue-minimisations  : 12204
 total energy-change (2. order) :-0.4552421E-06  (-0.2689524E-06)
 number of electron     275.9999968 magnetization      42.3253913
 augmentation part      112.1697642 magnetization      29.3756530

 Broyden mixing:
  rms(total) = 0.10403E-02    rms(broyden)= 0.10403E-02
  rms(prec ) = 0.11034E-02
  weight for this iteration     100.00

 eigenvalues of (default mixing * dielectric matrix)
  average eigenvalue GAMMA=   1.5034
  6.7456  3.0022  2.3994  2.2206  1.1894  1.1894  1.0015  1.0015  0.3780  0.7853
  0.7853  0.7322  0.7322  0.6730  0.6094  0.6094

 Free energy of the ion-electron system (eV)
  ---------------------------------------------------
  alpha Z        PSCENC =      1362.55286497
  Ewald energy   TEWEN  =    -25513.06237826
  -Hartree energ DENC   =    -10007.74203077
  -exchange      EXHF   =         0.00000000
  -V(xc)+E(xc)   XCENC  =      1356.94202324
  PAW double counting   =     35800.07986925   -36963.36129993
  entropy T*S    EENTRO =         0.00000000
  eigenvalues    EBANDS =     -3528.60375315
  atomic energy  EATOM  =     37271.74295941
  Solvation  Ediel_sol  =         0.00000000
  ---------------------------------------------------
  free energy    TOTEN  =      -221.45174524 eV

  energy without entropy =     -221.45174524  energy(sigma->0) =     -221.45174524


--------------------------------------------------------------------------------------------------------




--------------------------------------- Iteration      1(  22)  ---------------------------------------


    POTLOK:  cpu time    0.1142: real time    0.1147
    SETDIJ:  cpu time    0.0142: real time    0.0143
     EDDAV:  cpu time   17.1663: real time   17.2072
 BZINTS: Fermi energy:  6.181985;276.000000 electrons
         Band energy:***********;  BLOECHL correction: -0.033001
       DOS:  cpu time    0.0460: real time    0.0462
    CHARGE:  cpu time    0.7470: real time    0.7488
    MIXING:  cpu time    0.0050: real time    0.0050
    --------------------------------------------
      LOOP:  cpu time   18.0928: real time   18.1361

 eigenvalue-minimisations  : 10884
 total energy-change (2. order) :-0.1427936E-05  (-0.1152086E-06)
 number of electron     275.9999968 magnetization      42.3274679
 augmentation part      112.1704414 magnetization      29.3778707

 Broyden mixing:
  rms(total) = 0.51618E-03    rms(broyden)= 0.51618E-03
  rms(prec ) = 0.53703E-03
  weight for this iteration     100.00

 eigenvalues of (default mixing * dielectric matrix)
  average eigenvalue GAMMA=   1.4864
  6.7317  3.0007  2.6031  2.2201  1.2375  1.2375  1.0262  1.0262  0.3780  0.8676
  0.8676  0.7316  0.7316  0.7321  0.6100  0.6339  0.6339

 Free energy of the ion-electron system (eV)
  ---------------------------------------------------
  alpha Z        PSCENC =      1362.55286497
  Ewald energy   TEWEN  =    -25513.06237826
  -Hartree energ DENC   =    -10007.70915402
  -exchange      EXHF   =         0.00000000
  -V(xc)+E(xc)   XCENC  =      1356.94212846
  PAW double counting   =     35800.33705339   -36963.62077318
  entropy T*S    EENTRO =         0.00000000
  eigenvalues    EBANDS =     -3528.63444744
  atomic energy  EATOM  =     37271.74295941
  Solvation  Ediel_sol  =         0.00000000
  ---------------------------------------------------
  free energy    TOTEN  =      -221.45174667 eV

  energy without entropy =     -221.45174667  energy(sigma->0) =     -221.45174667


--------------------------------------------------------------------------------------------------------




--------------------------------------- Iteration      1(  23)  ---------------------------------------


    POTLOK:  cpu time    0.1142: real time    0.1146
    SETDIJ:  cpu time    0.0145: real time    0.0145
     EDDAV:  cpu time   14.8701: real time   14.9055
 BZINTS: Fermi energy:  6.181939;276.000000 electrons
         Band energy:***********;  BLOECHL correction: -0.033000
       DOS:  cpu time    0.0495: real time    0.0496
    CHARGE:  cpu time    0.7364: real time    0.7381
    MIXING:  cpu time    0.0051: real time    0.0051
    --------------------------------------------
      LOOP:  cpu time   15.7898: real time   15.8275

 eigenvalue-minimisations  :  8844
 total energy-change (2. order) : 0.1033921E-05  (-0.2138718E-07)
 number of electron     275.9999968 magnetization      42.3282941
 augmentation part      112.1706814 magnetization      29.3784672

 Broyden mixing:
  rms(total) = 0.14227E-03    rms(broyden)= 0.14227E-03
  rms(prec ) = 0.14748E-03
  weight for this iteration     100.00

 eigenvalues of (default mixing * dielectric matrix)
  average eigenvalue GAMMA=   1.4871
  6.7257  3.0140  2.7041  2.2599  1.4180  1.4180  1.0384  1.0384  0.3780  0.9496
  0.9496  0.8078  0.7385  0.7385  0.6817  0.6817  0.6131  0.6131

 Free energy of the ion-electron system (eV)
  ---------------------------------------------------
  alpha Z        PSCENC =      1362.55286497
  Ewald energy   TEWEN  =    -25513.06237826
  -Hartree energ DENC   =    -10007.69398873
  -exchange      EXHF   =         0.00000000
  -V(xc)+E(xc)   XCENC  =      1356.94305358
  PAW double counting   =     35800.55005880   -36963.83740626
  entropy T*S    EENTRO =         0.00000000
  eigenvalues    EBANDS =     -3528.64690914
  atomic energy  EATOM  =     37271.74295941
  Solvation  Ediel_sol  =         0.00000000
  ---------------------------------------------------
  free energy    TOTEN  =      -221.45174564 eV

  energy without entropy =     -221.45174564  energy(sigma->0) =     -221.45174564


--------------------------------------------------------------------------------------------------------




--------------------------------------- Iteration      1(  24)  ---------------------------------------


    POTLOK:  cpu time    0.1144: real time    0.1148
    SETDIJ:  cpu time    0.0144: real time    0.0144
     EDDAV:  cpu time   12.1377: real time   12.1662
 BZINTS: Fermi energy:  6.181943;276.000000 electrons
         Band energy:***********;  BLOECHL correction: -0.032999
       DOS:  cpu time    0.0485: real time    0.0487
    CHARGE:  cpu time    0.7459: real time    0.7476
    MIXING:  cpu time    0.0050: real time    0.0050
    --------------------------------------------
      LOOP:  cpu time   13.0658: real time   13.0967

 eigenvalue-minimisations  :  6444
 total energy-change (2. order) : 0.1110544E-05  (-0.7238537E-08)
 number of electron     275.9999968 magnetization      42.3284675
 augmentation part      112.1706860 magnetization      29.3784931

 Broyden mixing:
  rms(total) = 0.54709E-04    rms(broyden)= 0.54707E-04
  rms(prec ) = 0.58306E-04
  weight for this iteration     100.00

 eigenvalues of (default mixing * dielectric matrix)
[...]
 -0.000  -0.002   0.000   0.000  -0.001   0.000   0.000  -0.000  -0.006  -0.000   0.000   0.000   0.000   0.009   0.000  -0.000
 total augmentation occupancy for first ion, spin component:           2
 -0.003  -0.000   0.000  -0.010   0.000   0.000   0.002   0.001  -0.000   0.000   0.000  -0.003  -0.002   0.000  -0.000  -0.000
 -0.000  -0.003  -0.000  -0.000  -0.010  -0.000   0.000   0.000  -0.001  -0.000   0.000   0.000   0.000   0.002   0.000  -0.000
 -0.000   0.000  -0.003  -0.000   0.000  -0.010   0.000  -0.000   0.000   0.001  -0.002  -0.000   0.000  -0.000  -0.002   0.003
 -0.010  -0.000  -0.000   0.021  -0.000   0.000  -0.085  -0.050  -0.000   0.002   0.013   0.049   0.032   0.000  -0.001  -0.008
  0.000  -0.010  -0.000  -0.000   0.017   0.000  -0.000   0.000   0.076  -0.000  -0.000  -0.000   0.000  -0.043   0.000   0.000
  0.000  -0.000  -0.010  -0.000   0.000   0.021   0.013  -0.002  -0.000  -0.050   0.085  -0.008   0.001   0.000   0.032  -0.049
  0.002   0.000   0.000  -0.085   0.000   0.013   4.294   0.576  -0.000  -0.179  -0.000  -2.428  -0.470  -0.000   0.166   0.002
  0.001   0.000  -0.000  -0.050  -0.000  -0.002   0.576   5.020   0.000   0.000  -0.179  -0.469  -3.025  -0.000   0.003   0.166
 -0.000  -0.001   0.000  -0.000   0.076  -0.000  -0.000   0.000   4.387   0.000  -0.000   0.000  -0.000  -2.383  -0.000   0.000
  0.000  -0.000   0.001   0.002  -0.000  -0.050  -0.179  -0.000   0.000   5.020  -0.576   0.166  -0.003  -0.000  -3.025   0.469
  0.000   0.000  -0.002   0.013  -0.000   0.085  -0.000  -0.179  -0.000  -0.576   4.294  -0.002   0.166   0.000   0.470  -2.428
 -0.003   0.000  -0.000   0.049   0.000  -0.008  -2.428  -0.469   0.000   0.166  -0.002   1.294   0.332   0.000  -0.129  -0.000
 -0.002   0.000   0.000   0.032   0.000   0.001  -0.470  -3.025  -0.000  -0.003   0.166   0.332   1.750   0.000  -0.000  -0.129
  0.000   0.002  -0.000   0.000  -0.043   0.000  -0.000  -0.000  -2.383  -0.000   0.000  -0.000   0.000   1.231   0.000  -0.000
 -0.000  -0.000  -0.002  -0.001  -0.000   0.032   0.166   0.003  -0.000  -3.025   0.470  -0.129   0.000   0.000   1.750  -0.332
 -0.000  -0.000   0.003  -0.008   0.000  -0.049   0.002   0.166   0.000   0.469  -2.428   0.000  -0.129  -0.000  -0.332   1.294
  0.000   0.000   0.000   0.000   0.001  -0.000   0.000  -0.000   0.044  -0.000  -0.000   0.000   0.000  -0.022  -0.000   0.000
  0.000   0.000   0.000  -0.000   0.001   0.000   0.000   0.000   0.007   0.000  -0.000  -0.000  -0.000  -0.005   0.000   0.000


------------------------ aborting loop because EDIFF is reached ----------------------------------------


 


 total charge     
 
# of ion       s       p       d       tot
------------------------------------------
    1        0.284   6.340   5.852  12.476
    2        0.284   6.340   5.855  12.478
    3        0.284   6.340   5.862  12.486
    4        0.284   6.340   5.852  12.475
    5        0.284   6.340   5.855  12.478
    6        0.284   6.340   5.865  12.489
    7        0.284   6.340   5.851  12.474
    8        0.284   6.340   5.853  12.477
    9        0.283   6.340   5.854  12.478
   10        0.283   6.340   5.868  12.492
   11        0.283   6.340   5.866  12.489
   12        0.283   6.340   5.857  12.480
   13        1.567   3.417   0.000   4.984
   14        1.567   3.416   0.000   4.984
   15        1.567   3.417   0.000   4.984
   16        1.567   3.418   0.000   4.985
   17        1.567   3.418   0.000   4.985
   18        1.567   3.417   0.000   4.984
   19        1.567   3.404   0.000   4.971
   20        1.567   3.404   0.000   4.971
   21        1.567   3.405   0.000   4.972
   22        1.567   3.405   0.000   4.972
   23        1.567   3.405   0.000   4.972
   24        1.567   3.405   0.000   4.972
   25        1.568   3.418   0.000   4.986
   26        1.568   3.417   0.000   4.986
   27        1.568   3.419   0.000   4.987
   28        1.568   3.420   0.000   4.988
   29        1.568   3.420   0.000   4.988
   30        1.568   3.419   0.000   4.988
--------------------------------------------------
tot         31.618 137.524  70.290 239.431
 


 magnetization (x)
 
# of ion       s       p       d       tot
------------------------------------------
    1        0.024   0.036   3.140   3.201
    2        0.024   0.036   3.137   3.198
    3        0.025   0.036   3.134   3.195
    4        0.025   0.036   3.140   3.200
    5        0.025   0.036   3.140   3.201
    6        0.025   0.036   3.132   3.192
    7        0.024   0.036   3.124   3.185
    8        0.024   0.036   3.122   3.182
    9        0.025   0.036   3.122   3.183
   10        0.025   0.036   3.116   3.177
   11        0.025   0.036   3.118   3.179
   12        0.025   0.036   3.122   3.183
   13        0.020   0.139   0.000   0.159
   14        0.020   0.139   0.000   0.159
   15        0.020   0.139   0.000   0.159
   16        0.020   0.140   0.000   0.160
   17        0.020   0.140   0.000   0.161
   18        0.020   0.139   0.000   0.159
   19        0.021   0.143   0.000   0.165
   20        0.021   0.143   0.000   0.164
   21        0.021   0.144   0.000   0.165
   22        0.021   0.144   0.000   0.165
   23        0.021   0.144   0.000   0.165
   24        0.021   0.144   0.000   0.165
   25        0.020   0.135   0.000   0.156
   26        0.020   0.135   0.000   0.155
   27        0.020   0.136   0.000   0.157
   28        0.020   0.137   0.000   0.158
   29        0.020   0.137   0.000   0.157
   30        0.020   0.137   0.000   0.157
--------------------------------------------------
tot          0.668   2.947  37.547  41.162
 
    CHARGE:  cpu time    0.7457: real time    0.7474
    FORLOC:  cpu time    0.0137: real time    0.0138
    FORNL :  cpu time    5.1148: real time    5.1269
    STRESS:  cpu time   15.3212: real time   15.3573
    FORCOR:  cpu time    0.1236: real time    0.1239
    FORHAR:  cpu time    0.0238: real time    0.0239
    MIXING:  cpu time    0.0055: real time    0.0055
    OFIELD:  cpu time    0.0001: real time    0.0001

  FORCE on cell =-STRESS in cart. coord.  units (eV):
  Direction    XX          YY          ZZ          XY          YZ          ZX
  --------------------------------------------------------------------------------------
  Alpha Z  1362.55286  1362.55286  1362.55286
  Ewald   -8201.75422 -8201.75360 -9109.63806     0.00000     0.00002    -0.00000
  Hartree  3503.90013  3503.89999  2999.88819    -0.00000     0.00001    -0.00000
  E(xc)   -1615.78643 -1615.78646 -1617.35134    -0.00003     0.00000    -0.00000
  Local    -165.45674  -165.45677  1230.42110    -0.00030    -0.00003     0.00000
  n-local  -743.40804  -742.30059  -744.83285    -4.16401     0.49351     0.11545
  augment  1844.69751  1844.69753  1846.60475     0.00029     0.00000    -0.00000
  Kinetic  4007.11734  4009.21354  4024.97161     7.65335    -1.98539    -5.04538
  Fock        0.00000     0.00000     0.00000     0.00000     0.00000     0.00000
  -------------------------------------------------------------------------------------
  Total      -6.53554    -6.53554    -7.38373     0.00000    -0.00000     0.00000
  in kB     -34.66467   -34.66466   -39.16349     0.00000    -0.00000     0.00000
  external pressure =      -36.16 kB  Pullay stress =        0.00 kB


 VOLUME and BASIS-vectors are now :
 -----------------------------------------------------------------------------
  energy-cutoff  :      720.00
  volume of cell :      302.07
      direct lattice vectors                 reciprocal lattice vectors
     5.035100000  0.000000000  0.000000000     0.198605787  0.114665118  0.000000000
    -2.517550000  4.360524000  0.000000000     0.000000000  0.229330236  0.000000000
     0.000000000  0.000000000 13.758100000     0.000000000  0.000000000  0.072684455

  length of vectors
     5.035100000  5.035099558 13.758100000     0.229330216  0.229330236  0.072684455


 FORCES acting on ions
    electron-ion (+dipol)            ewald-force                    non-local-force                 convergence-correction
 -----------------------------------------------------------------------------------------------
   0.156E-03 0.366E-03 -.126E+03   -.101E-02 0.523E-03 0.128E+03   -.867E-18 0.130E-17 -.289E+01   -.742E-08 0.420E-08 -.285E-04
   -.402E-03 0.580E-03 0.126E+03   0.101E-02 -.523E-03 -.128E+03   -.130E-17 -.217E-17 0.289E+01   0.926E-08 -.406E-08 0.286E-04
   -.135E-03 0.533E-03 -.126E+03   0.314E-02 -.187E-02 0.128E+03   0.390E-17 0.434E-18 -.289E+01   0.169E-06 -.981E-07 -.209E-04
   -.328E-03 0.645E-03 -.126E+03   -.220E-02 0.121E-02 0.128E+03   -.260E-17 -.347E-17 -.289E+01   -.160E-06 0.915E-07 -.182E-04
   0.816E-04 0.300E-03 0.126E+03   0.220E-02 -.121E-02 -.128E+03   -.434E-18 0.304E-17 0.289E+01   0.161E-06 -.913E-07 0.183E-04
   -.111E-03 0.412E-03 0.126E+03   -.314E-02 0.187E-02 -.128E+03   0.651E-17 0.434E-17 0.289E+01   -.167E-06 0.982E-07 0.209E-04
   0.566E-03 -.105E-02 0.126E+03   0.964E-03 -.523E-03 -.128E+03   -.542E-17 -.173E-17 0.289E+01   0.106E-07 -.789E-08 0.285E-04
   0.104E-02 -.127E-02 -.126E+03   -.964E-03 0.523E-03 0.128E+03   -.455E-17 -.130E-17 -.289E+01   -.517E-08 0.197E-08 -.286E-04
   0.105E-02 -.133E-02 0.126E+03   0.215E-02 -.121E-02 -.128E+03   -.108E-17 0.130E-17 0.289E+01   0.162E-06 -.960E-07 0.182E-04
   0.750E-03 -.110E-02 -.126E+03   0.319E-02 -.187E-02 0.128E+03   -.282E-17 -.173E-17 -.289E+01   0.171E-06 -.993E-07 -.209E-04
   0.856E-03 -.121E-02 0.126E+03   -.319E-02 0.187E-02 -.128E+03   -.325E-17 -.564E-17 0.289E+01   -.166E-06 0.934E-07 0.209E-04
   0.557E-03 -.988E-03 -.126E+03   -.215E-02 0.121E-02 0.128E+03   -.130E-16 -.304E-17 -.289E+01   -.157E-06 0.901E-07 -.183E-04
   -.424E+02 -.134E-02 0.216E-03   0.418E+02 0.106E-02 -.470E-03   0.679E+00 -.206E-17 0.325E-17   -.378E-04 0.389E-07 -.373E-08
   0.424E+02 -.863E-04 -.337E-03   -.418E+02 -.106E-02 0.470E-03   -.679E+00 -.434E-17 0.510E-17   0.378E-04 -.427E-07 0.176E-08
   -.424E+02 -.320E-02 -.584E-02   0.418E+02 0.570E-03 -.997E-03   0.679E+00 0.173E-17 -.325E-17   -.378E-04 -.352E-07 -.232E-05
   -.424E+02 0.239E-02 0.545E-02   0.418E+02 -.163E-02 0.147E-02   0.679E+00 0.314E-17 -.152E-17   -.378E-04 -.927E-08 0.232E-05
   0.424E+02 -.382E-02 -.557E-02   -.418E+02 0.163E-02 -.147E-02   -.679E+00 0.388E-17 0.217E-18   0.378E-04 0.552E-08 -.233E-05
   0.424E+02 0.177E-02 0.572E-02   -.418E+02 -.570E-03 0.997E-03   -.679E+00 -.542E-19 0.271E-17   0.378E-04 0.314E-07 0.232E-05
   0.212E+02 -.367E+02 -.308E-03   -.209E+02 0.362E+02 0.438E-03   -.340E+00 0.588E+00 0.520E-17   0.190E-04 -.327E-04 0.176E-08
   -.212E+02 0.367E+02 0.194E-03   0.209E+02 -.362E+02 -.438E-03   0.340E+00 -.588E+00 0.867E-18   -.190E-04 0.327E-04 -.364E-08
   0.212E+02 -.367E+02 -.554E-02   -.209E+02 0.362E+02 -.150E-02   -.340E+00 0.588E+00 0.260E-17   0.189E-04 -.327E-04 -.233E-05
   0.212E+02 -.367E+02 0.575E-02   -.209E+02 0.362E+02 0.964E-03   -.340E+00 0.588E+00 0.867E-18   0.189E-04 -.328E-04 0.232E-05
   -.212E+02 0.367E+02 -.587E-02   0.209E+02 -.362E+02 -.964E-03   0.340E+00 -.588E+00 0.434E-17   -.189E-04 0.328E-04 -.232E-05
   -.212E+02 0.367E+02 0.543E-02   0.209E+02 -.362E+02 0.150E-02   0.340E+00 -.588E+00 0.000E+00   -.189E-04 0.327E-04 0.232E-05
   0.212E+02 0.367E+02 0.939E-04   -.209E+02 -.362E+02 0.322E-04   -.340E+00 -.588E+00 0.564E-17   0.189E-04 0.327E-04 0.192E-08
   -.212E+02 -.367E+02 0.144E-03   0.209E+02 0.362E+02 -.322E-04   0.340E+00 0.588E+00 0.477E-17   -.189E-04 -.327E-04 0.182E-08
   0.212E+02 0.367E+02 -.409E-02   -.209E+02 -.362E+02 -.303E-02   -.340E+00 -.588E+00 0.434E-17   0.190E-04 0.327E-04 -.233E-05
   -.212E+02 -.367E+02 -.404E-02   0.209E+02 0.362E+02 -.310E-02   0.340E+00 0.588E+00 -.390E-17   -.189E-04 -.328E-04 -.233E-05
   0.212E+02 0.367E+02 0.428E-02   -.209E+02 -.362E+02 0.310E-02   -.340E+00 -.588E+00 0.390E-17   0.189E-04 0.328E-04 0.233E-05
   -.212E+02 -.367E+02 0.433E-02   0.209E+02 0.362E+02 0.303E-02   0.340E+00 0.588E+00 -.260E-17   -.190E-04 -.327E-04 0.233E-05
 -----------------------------------------------------------------------------------------------
   0.150E-01 -.165E-01 -.112E-04   -.995E-13 -.995E-13 -.192E-12   0.555E-15 0.444E-15 0.181E-14   0.413E-07 -.373E-07 -.189E-09
 
 
 POSITION                                       TOTAL-FORCE (eV/Angst)
 -----------------------------------------------------------------------------------
      0.00000      0.00000      4.88853        -0.000000      0.000000     -0.926180
      0.00000      0.00000      8.86957        -0.000000     -0.000000      0.926180
     -0.00000      2.90702      0.30250        -0.000000      0.000000     -0.926180
      2.51755      1.45351      9.47456        -0.000000      0.000000     -0.926180
     -0.00000      2.90702      4.28354        -0.000000     -0.000000      0.926180
      2.51755      1.45351     13.45560        -0.000000     -0.000000      0.926180
      0.00000      0.00000      1.99052        -0.000000     -0.000000      0.926180
      0.00000      0.00000     11.76758        -0.000000      0.000000     -0.926180
     -0.00000      2.90702     11.16259        -0.000000     -0.000000      0.926180
     -0.00000      2.90702      7.18155        -0.000000      0.000000     -0.926180
      2.51755      1.45351      6.57655        -0.000000     -0.000000      0.926180
      2.51755      1.45351      2.59551        -0.000000      0.000000     -0.926180
      1.54165      0.00000      3.43953         0.087925     -0.000000      0.000000
      3.49345      0.00000     10.31858        -0.087925      0.000000      0.000000
      1.54164      2.90702     12.61160         0.087925     -0.000000      0.000000
      4.05920      1.45351      8.02555         0.087925      0.000000      0.000000
     -1.54165      2.90702      5.73255        -0.087925      0.000000      0.000000
      0.97591      1.45351      1.14650        -0.087925     -0.000000      0.000000
     -0.77082      1.33511      3.43953        -0.043963      0.076146      0.000000
     -1.74673      3.02542     10.31858         0.043963     -0.076146      0.000000
     -0.77083      4.24212     12.61160        -0.043963      0.076146      0.000000
      1.74673      2.78861      8.02555        -0.043963      0.076146      0.000000
      0.77082      1.57191      5.73255         0.043963     -0.076146      0.000000
      3.28838      0.11840      1.14650         0.043963     -0.076146      0.000000
      1.74673      3.02542      3.43953        -0.043963     -0.076146      0.000000
      0.77082      1.33511     10.31858         0.043963      0.076146      0.000000
     -0.77083      1.57191     12.61160        -0.043963     -0.076146      0.000000
      0.77082      4.24212      5.73255         0.043963      0.076146      0.000000
      1.74673      0.11840      8.02555        -0.043963     -0.076146      0.000000
      3.28838      2.78861      1.14650         0.043963      0.076146      0.000000
 -----------------------------------------------------------------------------------
    total drift:                                0.014981     -0.016527     -0.000011


--------------------------------------------------------------------------------------------------------



  FREE ENERGIE OF THE ION-ELECTRON SYSTEM (eV)
  ---------------------------------------------------
  free  energy   TOTEN  =      -221.45174457 eV

  energy  without entropy=     -221.45174457  energy(sigma->0) =     -221.45174457
 


--------------------------------------------------------------------------------------------------------


    POTLOK:  cpu time    0.1300: real time    0.1303


--------------------------------------------------------------------------------------------------------


     LOOP+:  cpu time  511.7048: real time  512.9469
    4ORBIT:  cpu time    0.0000: real time    0.0000
 


 total charge     
 
# of ion       s       p       d       tot
------------------------------------------
    1        0.284   6.340   5.852  12.476
    2        0.284   6.340   5.855  12.478
    3        0.284   6.340   5.862  12.486
    4        0.284   6.340   5.852  12.475
    5        0.284   6.340   5.855  12.478
    6        0.284   6.340   5.865  12.489
    7        0.284   6.340   5.851  12.474
    8        0.284   6.340   5.853  12.477
    9        0.283   6.340   5.854  12.478
   10        0.283   6.340   5.868  12.492
   11        0.283   6.340   5.866  12.489
   12        0.283   6.340   5.857  12.480
   13        1.567   3.417   0.000   4.984
   14        1.567   3.416   0.000   4.984
   15        1.567   3.417   0.000   4.984
   16        1.567   3.418   0.000   4.985
   17        1.567   3.418   0.000   4.985
   18        1.567   3.417   0.000   4.984
   19        1.567   3.404   0.000   4.971
   20        1.567   3.404   0.000   4.971
   21        1.567   3.405   0.000   4.972
   22        1.567   3.405   0.000   4.972
   23        1.567   3.405   0.000   4.972
   24        1.567   3.405   0.000   4.972
   25        1.568   3.418   0.000   4.986
   26        1.568   3.417   0.000   4.986
   27        1.568   3.419   0.000   4.987
   28        1.568   3.420   0.000   4.988
   29        1.568   3.420   0.000   4.988
   30        1.568   3.419   0.000   4.988
--------------------------------------------------
tot         31.618 137.524  70.290 239.431
 


 magnetization (x)
 
# of ion       s       p       d       tot
------------------------------------------
    1        0.024   0.036   3.140   3.201
    2        0.024   0.036   3.137   3.198
    3        0.025   0.036   3.134   3.195
    4        0.025   0.036   3.140   3.200
    5        0.025   0.036   3.140   3.201
    6        0.025   0.036   3.132   3.192
    7        0.024   0.036   3.124   3.185
    8        0.024   0.036   3.122   3.182
    9        0.025   0.036   3.122   3.183
   10        0.025   0.036   3.116   3.177
   11        0.025   0.036   3.118   3.179
   12        0.025   0.036   3.122   3.183
   13        0.020   0.139   0.000   0.159
   14        0.020   0.139   0.000   0.159
   15        0.020   0.139   0.000   0.159
   16        0.020   0.140   0.000   0.160
   17        0.020   0.140   0.000   0.161
   18        0.020   0.139   0.000   0.159
   19        0.021   0.143   0.000   0.165
   20        0.021   0.143   0.000   0.164
   21        0.021   0.144   0.000   0.165
   22        0.021   0.144   0.000   0.165
   23        0.021   0.144   0.000   0.165
   24        0.021   0.144   0.000   0.165
   25        0.020   0.135   0.000   0.156
   26        0.020   0.135   0.000   0.155
   27        0.020   0.136   0.000   0.157
   28        0.020   0.137   0.000   0.158
   29        0.020   0.137   0.000   0.157
   30        0.020   0.137   0.000   0.157
--------------------------------------------------
tot          0.668   2.947  37.547  41.162
 
 BZINTS: Fermi energy:  6.181932;276.000000 electrons
         Band energy:***********;  BLOECHL correction: -0.032999

 total amount of memory used by VASP MPI-rank0   110204. kBytes
=======================================================================

   base      :      30000. kBytes
   nonlr-proj:       9460. kBytes
   fftplans  :       5160. kBytes
   grid      :      12969. kBytes
   one-center:        248. kBytes
   wavefun   :      52367. kBytes
 
  
  
 General timing and accounting informations for this job:
 ========================================================
  
                  Total CPU time used (sec):      520.637
                            User time (sec):      519.021
                          System time (sec):        1.616
                         Elapsed time (sec):      521.967
  
                   Maximum memory used (kb):      159016.
                   Average memory used (kb):           0.
  
                          Minor page faults:        84252
                          Major page faults:            0
                 Voluntary context switches:          350
