unknown system                          
   1.00000000000000     
     3.592646    0.000000    0.000000
     1.796385    3.111279    0.000000
     1.796393    1.037117    2.933334
   Eu   O 
     1     1
Direct
  0.000000  0.000000  0.000000
  0.500000  0.500000  0.500000
 
   56   56   56
 0.11772642968E+06 0.28891841442E+03 0.57266419339E+03 0.73688870722E+03 0.64845551116E+03
 0.38179019577E+03 0.23084834587E+03 0.17680466390E+03 0.15534824289E+03 0.13693459777E+03
 0.11559578638E+03 0.93192428694E+02 0.72393414979E+02 0.54748632413E+02 0.40691213584E+02
 0.29971948315E+02 0.22051019462E+02 0.16327346743E+02 0.12260600162E+02 0.93010943898E+01
 0.73878614796E+01 0.60399026405E+01 0.50992503261E+01 0.44569318782E+01 0.40220600060E+01
 0.37370749550E+01 0.35572742892E+01 0.34601790537E+01 0.34282520223E+01 0.34601790537E+01
 0.35572742892E+01 0.37370749550E+01 0.40220600060E+01 0.44569318782E+01 0.50992503261E+01
 0.60399026405E+01 0.73878614796E+01 0.93010943898E+01 0.12260600162E+02 0.16327346743E+02
 0.22051019462E+02 0.29971948315E+02 0.40691213584E+02 0.54748632413E+02 0.72393414979E+02
 0.93192428694E+02 0.11559578638E+03 0.13693459777E+03 0.15534824289E+03 0.17680466390E+03
 0.23084834587E+03 0.38179019577E+03 0.64845551116E+03 0.73688870722E+03 0.57266419339E+03
 0.28891841442E+03 0.28891496144E+03 0.66572707360E+03 0.65328813451E+03 0.73453552753E+03
 0.48546262615E+03 0.27986726230E+03 0.19359318372E+03 0.16364473326E+03 0.14564997515E+03
 0.12573318407E+03 0.10353879483E+03 0.81786783534E+02 0.62600240724E+02 0.46888158224E+02
 0.34669264267E+02 0.25510102281E+02 0.18821370675E+02 0.14032470234E+02 0.10473283891E+02
 0.82274843270E+01 0.66306878917E+01 0.55108693080E+01 0.47376876534E+01 0.42119147238E+01
 0.38608189713E+01 0.36339583048E+01 0.34989431109E+01 0.34359585723E+01 0.34359852535E+01
 0.34989279351E+01 0.36339895195E+01 0.38607959451E+01 0.42119479760E+01 0.47376874556E+01
 0.55109167990E+01 0.66307250120E+01 0.82275744703E+01 0.10473355099E+02 0.14032621776E+02
 0.18821523358E+02 0.25510398803E+02 0.34669585410E+02 0.46888706871E+02 0.62600833520E+02
 0.81787640477E+02 0.10353967885E+03 0.12573399730E+03 0.14565088677E+03 0.16364512058E+03
 0.19359512098E+03 0.27987155553E+03 0.48547158148E+03 0.73454103926E+03 0.65327904610E+03
 0.66574043593E+03 0.28888342456E+03 0.57266495379E+03 0.65328752446E+03 0.75220981311E+03
 0.54804474287E+03 0.32363954549E+03 0.21157267226E+03 0.17108214380E+03 0.15208160985E+03
 0.13360225192E+03 0.11225482603E+03 0.90231339937E+02 0.70009285254E+02 0.52952212342E+02
 0.39396927295E+02 0.29068103469E+02 0.21433623814E+02 0.15912461619E+02 0.11984546379E+02
 0.91289688644E+01 0.72732114783E+01 0.59647746930E+01 0.50515767033E+01 0.44274976944E+01
 0.40048307914E+01 0.37274962160E+01 0.35526129284E+01 0.34580131923E+01 0.34270265439E+01
 0.34580214080E+01 0.35526088067E+01 0.37275277111E+01 0.40048516388E+01 0.44275351224E+01
 0.50515964770E+01 0.59648801531E+01 0.72732977485E+01 0.91291646237E+01 0.11984733174E+02
 0.15912808512E+02 0.21433977058E+02 0.29068747086E+02 0.39397633787E+02 0.52953352687E+02
 0.70010517983E+02 0.90233039225E+02 0.11225634079E+03 0.13360380318E+03 0.15208273993E+03
 0.17108374265E+03 0.21157717383E+03 0.32365114106E+03 0.54806275547E+03 0.75221564198E+03
 0.65327256919E+03 0.57267206130E+03 0.66574190082E+03 0.73688778107E+03 0.73453618559E+03
 0.54804536632E+03 0.34128538591E+03 0.22374118444E+03 0.17680375545E+03 0.15645659890E+03
 0.13913716723E+03 0.11896189711E+03 0.97246741199E+02 0.76535488839E+02 0.58539209790E+02
 0.43907142275E+02 0.32558376806E+02 0.24053630859E+02 0.17834083209E+02 0.13372822722E+02
 0.10064082699E+02 0.79518560391E+01 0.64490368244E+01 0.53932350769E+01 0.46642134370E+01
 0.41674846060E+01 0.38355732570E+01 0.36207369078E+01 0.34928548998E+01 0.34331670632E+01
 0.34331586468E+01 0.34928777209E+01 0.36207363044E+01 0.38356018290E+01 0.41675067571E+01
 0.46643058254E+01 0.53933219497E+01 0.64491754662E+01 0.79520052359E+01 0.10064356745E+02
 0.13373194712E+02 0.17834685406E+02 0.24054392383E+02 0.32559485799E+02 0.43908497884E+02
 0.58540983529E+02 0.76537480510E+02 0.97249018537E+02 0.11896410900E+03 0.13913917972E+03
 0.15645830921E+03 0.17680656026E+03 0.22374859750E+03 0.34130229426E+03 0.54806924412E+03
 0.73454756338E+03 0.73687954085E+03 0.65327155246E+03 0.65327741934E+03 0.64845752464E+03
 0.48546432385E+03 0.32364031547E+03 0.22374136436E+03 0.17902200520E+03 0.15873337828E+03
 0.14240997850E+03 0.12347422548E+03 0.10247423554E+03 0.81787837925E+02 0.63306413050E+02
 0.47934351231E+02 0.35789773677E+02 0.26549773080E+02 0.19710264834E+02 0.14753016841E+02
 0.11210977516E+02 0.86431960381E+01 0.69494561293E+01 0.57526352220E+01 0.49168533568E+01
 0.43444186855E+01 0.39562013446E+01 0.37007927146E+01 0.35397428406E+01 0.34524052988E+01
 0.34239140896E+01 0.34524077227E+01 0.35397650408E+01 0.37008221650E+01 0.39562551872E+01
 0.43444789049E+01 0.49169494370E+01 0.57527803298E+01 0.69496562582E+01 0.86434727548E+01
 0.11211377088E+02 0.14753582546E+02 0.19711023155E+02 0.26550880978E+02 0.35791243234E+02
 0.47936299823E+02 0.63308730039E+02 0.81790666843E+02 0.10247702670E+03 0.12347712748E+03
 0.14241231980E+03 0.15873561240E+03 0.17902634880E+03 0.22375059101E+03 0.32365906220E+03
 0.48548915754E+03 0.64847537971E+03 0.73454813909E+03 0.75221625147E+03 0.73454227303E+03
 0.38179229941E+03 0.27986840881E+03 0.21157311083E+03 0.17680388546E+03 0.15873341822E+03
 0.14349331266E+03 0.12573299837E+03 0.10568723975E+03 0.85457805232E+02 0.66950009281E+02
 0.51221161720E+02 0.38564102076E+02 0.28779595469E+02 0.21441519022E+02 0.16059504182E+02
 0.12181627535E+02 0.93185149561E+01 0.74488096718E+01 0.61166734658E+01 0.51782744813E+01
 0.45298576328E+01 0.40864482509E+01 0.37897448570E+01 0.35971323874E+01 0.34825141734E+01
 0.34288550266E+01 0.34289146964E+01 0.34824850512E+01 0.35971902353E+01 0.37897382358E+01
 0.40865630698E+01 0.45299077497E+01 0.51784638481E+01 0.61168210800E+01 0.74491185987E+01
 0.93188421452E+01 0.12182264023E+02 0.16060295041E+02 0.21442709989E+02 0.28781088175E+02
 0.38566152709E+02 0.51223705984E+02 0.66953020956E+02 0.85461379512E+02 0.10569071860E+03
 0.12573663536E+03 0.14349616422E+03 0.15873600205E+03 0.17680789103E+03 0.21158164780E+03
 0.27988297215E+03 0.38181116779E+03 0.48549017617E+03 0.54807123910E+03 0.54806537390E+03
 0.48547429784E+03 0.23084937288E+03 0.19359367134E+03 0.17108235281E+03 0.15645671421E+03
 0.14241006143E+03 0.12573304586E+03 0.10676981151E+03 0.87343433220E+02 0.69233983659E+02
 0.53547611065E+02 0.40697706616E+02 0.30602854004E+02 0.22924468131E+02 0.17222446487E+02
 0.13070707727E+02 0.99478134016E+01 0.79255746140E+01 0.64712533953E+01 0.54383018672E+01
 0.47178933736E+01 0.42212484494E+01 0.38849469975E+01 0.36617336251E+01 0.35220660456E+01
 0.34450483639E+01 0.34209442332E+01 0.34450592521E+01 0.35220931009E+01 0.36617832302E+01
 0.38850096358E+01 0.42213314720E+01 0.47180226987E+01 0.54384938654E+01 0.64715010412E+01
 0.79259478974E+01 0.99482773080E+01 0.13071432694E+02 0.17223397172E+02 0.22925819039E+02
 0.30604621006E+02 0.40699988060E+02 0.53550591673E+02 0.69237343470E+02 0.87347587251E+02
 0.10677368205E+03 0.12573694878E+03 0.14241353074E+03 0.15645942140E+03 0.17108586623E+03
 0.19359982252E+03 0.23085871264E+03 0.27988349770E+03 0.32366034572E+03 0.34130419628E+03
 0.32365319456E+03 0.27987322758E+03 0.17680506205E+03 0.16364497441E+03 0.15208179505E+03
 0.13913733507E+03 0.12347436789E+03 0.10568733878E+03 0.87343480464E+02 0.70011974138E+02
 0.54752769503E+02 0.42041914111E+02 0.31895837694E+02 0.24063580860E+02 0.18170183698E+02
 0.13827409152E+02 0.10500324488E+02 0.83572077721E+01 0.68005294936E+01 0.56860311332E+01
 0.49008081619E+01 0.43555801474E+01 0.39822282360E+01 0.37309469560E+01 0.35679942439E+01
 0.34705802636E+01 0.34251734230E+01 0.34251399235E+01 0.34706187642E+01 0.35680095161E+01
 0.37310053971E+01 0.39822890859E+01 0.43557301613E+01 0.49009257031E+01 0.56862820388E+01
 0.68008178622E+01 0.83576888931E+01 0.10500931847E+02 0.13828421663E+02 0.18171466342E+02
 0.24065318323E+02 0.31898064803E+02 0.42044643671E+02 0.54756342534E+02 0.70015677619E+02
 0.87348005506E+02 0.10569158729E+03 0.12347815454E+03 0.13914102862E+03 0.15208444194E+03
 0.16364767996E+03 0.17680872763E+03 0.19360000367E+03 0.21158214909E+03 0.22375143926E+03
 0.22374962567E+03 0.21157811370E+03 0.19359578974E+03 0.15534851237E+03 0.14565023366E+03
 0.13360250788E+03 0.11896213365E+03 0.10247443039E+03 0.85457944581E+02 0.69234066545E+02
 0.54752804528E+02 0.42501425464E+02 0.32566780932E+02 0.24781271218E+02 0.18840882814E+02
 0.14406875948E+02 0.11150259752E+02 0.87213234831E+01 0.70884331466E+01 0.59097359296E+01
 0.50704053288E+01 0.44835710737E+01 0.40773367824E+01 0.38013159854E+01 0.36175574063E+01
 0.35025713365E+01 0.34389857695E+01 0.34191956388E+01 0.34390027943E+01 0.35025982853E+01
 0.36175984949E+01 0.38013935313E+01 0.40774215931E+01 0.44837245458E+01 0.50705944111E+01
 0.59100432213E+01 0.70887758133E+01 0.87218624902E+01 0.11150944338E+02 0.14407904804E+02
 0.18842236049E+02 0.24783069529E+02 0.32569268634E+02 0.42504234147E+02 0.54756777371E+02
 0.69238082576E+02 0.85462852487E+02 0.10247945522E+03 0.11896633475E+03 0.13360668515E+03
 0.14565311762E+03 0.15535107369E+03 0.16364775535E+03 0.17108604921E+03 0.17680820798E+03
 0.17902677249E+03 0.17680700724E+03 0.17108413465E+03 0.16364543710E+03 0.13693493990E+03
 0.12573352934E+03 0.11225515218E+03 0.97247024202E+02 0.81788061784E+02 0.66950169747E+02
 0.53547713687E+02 0.42041970109E+02 0.32566803123E+02 0.25026052712E+02 0.19188569397E+02
 0.14770679654E+02 0.11486742028E+02 0.89972866695E+01 0.73201804761E+01 0.60976221569E+01
 0.52189390434E+01 0.45987263829E+01 0.41661808371E+01 0.38688114202E+01 0.36681216933E+01
 0.35377840661E+01 0.34598872722E+01 0.34234903379E+01 0.34235823316E+01 0.34598457094E+01
 0.35378859892E+01 0.36681082985E+01 0.38689426264E+01 0.41662091223E+01 0.45989661362E+01
 0.52190870739E+01 0.60980334512E+01 0.73205903092E+01 0.89980171214E+01 0.11487618324E+02
 0.14772002861E+02 0.19190220375E+02 0.25028124638E+02 0.32569675231E+02 0.42045008744E+02
 0.53551916975E+02 0.66954368788E+02 0.81792674403E+02 0.97252066186E+02 0.11225956490E+03
 0.12573734857E+03 0.13693811075E+03 0.14565318741E+03 0.15208457364E+03 0.15645961360E+03
 0.15873625073E+03 0.15873590106E+03 0.15645861670E+03 0.15208305683E+03 0.14565121505E+03
 0.11559621384E+03 0.10353919899E+03 0.90231697782E+02 0.76535784510E+02 0.63306640893E+02
 0.51221324863E+02 0.40697814639E+02 0.31895902639E+02 0.24781305012E+02 0.19188582319E+02
 0.14895168861E+02 0.11660771580E+02 0.91700235234E+01 0.74825207796E+01 0.62402390611E+01
 0.53379853105E+01 0.46957993822E+01 0.42435806617E+01 0.39304613304E+01 0.37159416520E+01
 0.35740930903E+01 0.34842383389E+01 0.34355917571E+01 0.34196195326E+01 0.34355916393E+01
 0.34842656836E+01 0.35741359188E+01 0.37159943064E+01 0.39305883323E+01 0.42436930058E+01
 0.46960134874E+01 0.53382215534E+01 0.62406195169E+01 0.74829456469E+01 0.91706695692E+01
 0.11661689859E+02 0.14896340610E+02 0.19190364872E+02 0.24783157044E+02 0.31898954053E+02
 0.40700713192E+02 0.51225607026E+02 0.63311172480E+02 0.76540454129E+02 0.90236440360E+02
 0.10354386705E+03 0.11559979138E+03 0.12573743054E+03 0.13360683877E+03 0.13914124263E+03
 0.14241379615E+03 0.14349647429E+03 0.14241266815E+03 0.13913956156E+03 0.13360421277E+03
 0.12573442458E+03 0.93192890726E+02 0.81787196853E+02 0.70009635468E+02 0.58539490266E+02
 0.47934563773E+02 0.38564254485E+02 0.30602957056E+02 0.24063646052E+02 0.18840920716E+02
 0.14770698875E+02 0.11660778838E+02 0.92284694110E+01 0.75662416035E+01 0.63288866776E+01
 0.54215674595E+01 0.47690144415E+01 0.43061256313E+01 0.39822684516E+01 0.37587535585E+01
 0.36079023664E+01 0.35100184150E+01 0.34515254912E+01 0.34243957304E+01 0.34242898043E+01
 0.34516760723E+01 0.35099412894E+01 0.36080618114E+01 0.37586984851E+01 0.39824664447E+01
 0.43061691483E+01 0.47693459230E+01 0.54217778482E+01 0.63294401062E+01 0.75667773293E+01
 0.92293133871E+01 0.11661917202E+02 0.14772034009E+02 0.18843039756E+02 0.24065565434E+02
 0.30606206751E+02 0.38567276108E+02 0.47938296137E+02 0.58543909914E+02 0.70014123235E+02
 0.81791524073E+02 0.93197159429E+02 0.10354395285E+03 0.11225973436E+03 0.11896658003E+03
 0.12347846540E+03 0.12573731570E+03 0.12573704974E+03 0.12347758077E+03 0.11896459078E+03
 0.11225683639E+03 0.10354016875E+03 0.72393859795E+02 0.62600624280E+02 0.52952527899E+02
 0.43907390398E+02 0.35789960216E+02 0.28779729520E+02 0.22924560249E+02 0.18170243946E+02
 0.14406913111E+02 0.11486763300E+02 0.91700337291E+01 0.75662455155E+01 0.63593231884E+01
 0.54644825068E+01 0.48149533712E+01 0.43496482562E+01 0.40218333927E+01 0.37931746440E+01
 0.36375232755E+01 0.35338671694E+01 0.34693228660E+01 0.34336686673E+01 0.34226598203E+01
 0.34336761627E+01 0.34693251728E+01 0.35339216578E+01 0.36375719959E+01 0.37932849663E+01
 0.40219462176E+01 0.43498104534E+01 0.48151415505E+01 0.54648115513E+01 0.63596567984E+01
 0.75668673492E+01 0.91705522064E+01 0.11488040025E+02 0.14407773867E+02 0.18172550441E+02
 0.22926131638E+02 0.28782820178E+02 0.35793223892E+02 0.43910862184E+02 0.52956567933E+02
 0.62604816585E+02 0.72397854564E+02 0.81791603298E+02 0.90236604434E+02 0.97252313847E+02
 0.10247978002E+03 0.10569197933E+03 0.10677413000E+03 0.10569120970E+03 0.10247754637E+03
 0.97249549229E+02 0.90233561143E+02 0.81788133052E+02 0.54749027039E+02 0.46888490247E+02
 0.39397195796E+02 0.32558585605E+02 0.26549929442E+02 0.21441631957E+02 0.17222525133E+02
 0.13827461828E+02 0.11150293681E+02 0.89973065119E+01 0.74825323225E+01 0.63288926177E+01
 0.54644848007E+01 0.48303399197E+01 0.43722146137E+01 0.40463624409E+01 0.38176771961E+01
 0.36601169965E+01 0.35541673683E+01 0.34857334927E+01 0.34451831297E+01 0.34263323527E+01
 0.34263951280E+01 0.34451652012E+01 0.34858250482E+01 0.35541509287E+01 0.36602185696E+01
 0.38177018643E+01 0.40465203683E+01 0.43724070065E+01 0.48306571967E+01 0.54648962360E+01
 0.63293290480E+01 0.74833936975E+01 0.89978669691E+01 0.11151941202E+02 0.13828329148E+02
 0.17224800371E+02 0.21443522594E+02 0.26552094724E+02 0.32562050923E+02 0.39400040141E+02
 0.46892024813E+02 0.54752353827E+02 0.62604883692E+02 0.70014266982E+02 0.76540678474E+02
 0.81792977640E+02 0.85463227872E+02 0.87348441972E+02 0.87348070960E+02 0.85461894193E+02
 0.81791193935E+02 0.76538000507E+02 0.70011011921E+02 0.62601284161E+02 0.40691544445E+02
 0.34669538197E+02 0.29068322412E+02 0.24053800227E+02 0.19710391769E+02 0.16059596302E+02
 0.13070772726E+02 0.10500366335E+02 0.87213518661E+01 0.73201990087E+01 0.62402506261E+01
 0.54215742209E+01 0.48149569028E+01 0.43722160276E+01 0.40548544612E+01 0.38301939717E+01
 0.36744891992E+01 0.35685854591E+01 0.34991989097E+01 0.34559965842E+01 0.34327339482E+01
 0.34252947704E+01 0.34327295916E+01 0.34560154652E+01 0.34992048523E+01 0.35686859215E+01
 0.36745208965E+01 0.38303467049E+01 0.40549042416E+01 0.43724394468E+01 0.48150037478E+01
 0.54220817893E+01 0.62403492554E+01 0.73211654406E+01 0.87214584406E+01 0.10501883851E+02
 0.13071603895E+02 0.16061309239E+02 0.19712922062E+02 0.24055313678E+02 0.29071338816E+02
 0.34672442966E+02 0.40694419406E+02 0.46892078210E+02 0.52956685209E+02 0.58544097824E+02
 0.63311432971E+02 0.66954698462E+02 0.69238473418E+02 0.70016117726E+02 0.69237817204E+02
 0.66953511145E+02 0.63309218393E+02 0.58541451940E+02 0.52953785524E+02 0.46889092296E+02
 0.29972214518E+02 0.25510320369E+02 0.21433797178E+02 0.17834216979E+02 0.14753117268E+02
 0.12181701204E+02 0.99478630335E+01 0.83572431838E+01 0.70884576951E+01 0.60976387768E+01
 0.53379962191E+01 0.47690213583E+01 0.43496524317E+01 0.40463647413E+01 0.38301949490E+01
 0.36793658730E+01 0.35762186411E+01 0.35078811327E+01 0.34643740403E+01 0.34390527689E+01
 0.34274019690E+01 0.34274207313E+01 0.34390401688E+01 0.34644369094E+01 0.35078809573E+01
 0.35762977226E+01 0.36793844836E+01 0.38303711808E+01 0.40464434887E+01 0.43500571075E+01
 0.47691807643E+01 0.53387077422E+01 0.60977816892E+01 0.70895995263E+01 0.83576117745E+01
 0.99490077940E+01 0.12183211559E+02 0.14753625506E+02 0.17836951802E+02 0.21435435075E+02
 0.25512185710E+02 0.29974847915E+02 0.34672483737E+02 0.39400131353E+02 0.43911011220E+02
 0.47938506864E+02 0.51225879177E+02 0.53552245635E+02 0.54757153550E+02 0.54756753729E+02
 0.53551022937E+02 0.51224141246E+02 0.47936723054E+02 0.43908895032E+02 0.39397993483E+02
 0.34669900113E+02 0.22051227634E+02 0.18821540171E+02 0.15912595766E+02 0.13372926410E+02
 0.11211055863E+02 0.93185700325E+01 0.79256152997E+01 0.68005588638E+01 0.59097567961E+01
 0.52189535788E+01 0.46958093622E+01 0.43061324072E+01 0.40218379088E+01 0.38176801141E+01
 0.36744909302E+01 0.35762194438E+01 0.35108663139E+01 0.34688909836E+01 0.34435866663E+01
 0.34302091375E+01 0.34260568387E+01 0.34302196538E+01 0.34435965695E+01 0.34689549276E+01
 0.35108459277E+01 0.35763362952E+01 0.36744713737E+01 0.38178338802E+01 0.40217962837E+01
 0.43064222937E+01 0.46957085179E+01 0.52195395829E+01 0.59097687088E+01 0.68013514173E+01
 0.79263344287E+01 0.93188973469E+01 0.11213283153E+02 0.13373320550E+02 0.15914000867E+02
 0.18824008228E+02 0.22052748618E+02 0.25512215941E+02 0.29071407324E+02 0.32562164554E+02
 0.35793387223E+02 0.38567490623E+02 0.40700976672E+02 0.42045315300E+02 0.42504574573E+02
 0.42045006242E+02 0.40700359564E+02 0.38566519682E+02 0.35791593148E+02 0.32559808247E+02
 0.29069034532E+02 0.25510647110E+02 0.16327506056E+02 0.14032599527E+02 0.11984649078E+02
 0.10064157651E+02 0.86432540993E+01 0.74488536936E+01 0.64712861995E+01 0.56860552811E+01
 0.50704228429E+01 0.45987390287E+01 0.42435897766E+01 0.39822750370E+01 0.37931794084E+01
 0.36601204145E+01 0.35685878396E+01 0.35078826540E+01 0.34688917340E+01 0.34452652663E+01
 0.34320081781E+01 0.34261801132E+01 0.34261528144E+01 0.34320469457E+01 0.34452227042E+01
 0.34689578843E+01 0.35078873421E+01 0.35687324851E+01 0.36601488842E+01 0.37934707909E+01
 0.39823413498E+01 0.42441300860E+01 0.45989098607E+01 0.50710479215E+01 0.56863560433E+01
 0.64715788792E+01 0.74501935138E+01 0.86429414335E+01 0.10065631446E+02 0.11986353031E+02
 0.14032915818E+02 0.16329064257E+02 0.18824030180E+02 0.21435485325E+02 0.24055398040E+02
 0.26552217579E+02 0.28782983771E+02 0.30606410703E+02 0.31899195000E+02 0.32569946941E+02
 0.32569562532E+02 0.31898370699E+02 0.30604927984E+02 0.28781385771E+02 0.26551160137E+02
 0.24054646112E+02 0.21434200692E+02 0.18821714814E+02 0.12260720802E+02 0.10473375697E+02
 0.91290429078E+01 0.79519147277E+01 0.69495016871E+01 0.61167083976E+01 0.54383283057E+01
 0.49008279468E+01 0.44835858879E+01 0.41661919614E+01 0.39304697652E+01 0.37587600348E+01
 0.36375283021E+01 0.35541712909E+01 0.34992019402E+01 0.34643762923E+01 0.34435881838E+01
 0.34320089544E+01 0.34263729340E+01 0.34247170273E+01 0.34263783657E+01 0.34320514099E+01
 0.34436037582E+01 0.34644412356E+01 0.34991483668E+01 0.35542109084E+01 0.36374180400E+01
 0.37588144484E+01 0.39303429671E+01 0.41663220853E+01 0.44836410017E+01 0.49011934401E+01
 0.54390930354E+01 0.61164702641E+01 0.69509619214E+01 0.79524344850E+01 0.91289294726E+01
 0.10475175715E+02 0.12262063639E+02 0.14032931549E+02 0.15914037143E+02 0.17837013200E+02
 0.19713012402E+02 0.21443644285E+02 0.22926285338E+02 0.24065749541E+02 0.24783367603E+02
 0.25028355815E+02 0.24783313869E+02 0.24065567635E+02 0.22926064887E+02 0.21442944681E+02
 0.19711240480E+02 0.17834880558E+02 0.15912978910E+02 0.14032766796E+02 0.93011803092E+01
 0.82275552413E+01 0.72732687494E+01 0.64490823335E+01 0.57526709597E+01 0.51783021481E+01
 0.47179146654E+01 0.43555965868E+01 0.40773495344E+01 0.38688214551E+01 0.37159496776E+01
 0.36079088924E+01 0.35338725630E+01 0.34857379796E+01 0.34560003072E+01 0.34390557899E+01
 0.34302114702E+01 0.34261817257E+01 0.34247178664E+01 0.34247309660E+01 0.34261698402E+01
 0.34302030498E+01 0.34390725037E+01 0.34560401247E+01 0.34858188351E+01 0.35340316875E+01
 0.36080659427E+01 0.37162397713E+01 0.38688983812E+01 0.40775858696E+01 0.43558617992E+01
 0.47179034117E+01 0.51791626098E+01 0.57524539071E+01 0.64494884825E+01 0.72748938800E+01
 0.82276338259E+01 0.93012934651E+01 0.10475186230E+02 0.11986378953E+02 0.13373364646E+02
 0.14753690977E+02 0.16061398315E+02 0.17224914136E+02 0.18172688263E+02 0.18843199518E+02
 0.19190542759E+02 0.19190411198E+02 0.18842433716E+02 0.18171664398E+02 0.17223589540E+02
 0.16060476165E+02 0.14753748408E+02 0.13373342529E+02 0.11984861823E+02 0.10473457413E+02
 0.73879273960E+01 0.66307421849E+01 0.59648188148E+01 0.53932704373E+01 0.49168813602E+01
 0.45298797887E+01 0.42212660234E+01 0.39822422602E+01 0.38013273595E+01 0.36681310711E+01
 0.35741009836E+01 0.35100251911E+01 0.34693287668E+01 0.34451883092E+01 0.34327384751E+01
 0.34274058610E+01 0.34260600718E+01 0.34261553430E+01 0.34263801221E+01 0.34261707546E+01
 0.34260961179E+01 0.34274445099E+01 0.34326944521E+01 0.34452132925E+01 0.34693002582E+01
 0.35101885867E+01 0.35741339302E+01 0.36683568917E+01 0.38014244249E+01 0.39822452384E+01
 0.42214920540E+01 0.45299246112E+01 0.49177504551E+01 0.53938435064E+01 0.59644497044E+01
 0.66314683444E+01 0.73892973318E+01 0.82276414555E+01 0.91289470301E+01 0.10065661157E+02
 0.11213330148E+02 0.12183276003E+02 0.13071686788E+02 0.13828430691E+02 0.14407892973E+02
 0.14772168329E+02 0.14896486680E+02 0.14772156396E+02 0.14408061063E+02 0.13828575911E+02
 0.13071580640E+02 0.12182402204E+02 0.11211502443E+02 0.10064461364E+02 0.91292562071E+01
 0.82276530332E+01 0.60399529345E+01 0.55109109938E+01 0.50516107562E+01 0.46642410504E+01
 0.43444410771E+01 0.40864664233E+01 0.38849618824E+01 0.37309593685E+01 0.36175679296E+01
 0.35377931930E+01 0.34842464132E+01 0.34515327496E+01 0.34336752623E+01 0.34263383631E+01
 0.34253002212E+01 0.34274256037E+01 0.34302238933E+01 0.34320504876E+01 0.34320541735E+01
 0.34302049597E+01 0.34274454945E+01 0.34252865680E+01 0.34264562836E+01 0.34339009534E+01
 0.34517508397E+01 0.34845235264E+01 0.35379892121E+01 0.36180550725E+01 0.37311926189E+01
 0.38849364203E+01 0.40866999083E+01 0.43443815162E+01 0.46644048561E+01 0.50523177897E+01
 0.55113450112E+01 0.60395618226E+01 0.66314738664E+01 0.72749065855E+01 0.79524561233E+01
 0.86429736334E+01 0.93189414053E+01 0.99490645421E+01 0.10501953599E+02 0.11152029110E+02
 0.11488140350E+02 0.11662027702E+02 0.11661807615E+02 0.11487739935E+02 0.11151066170E+02
 0.10501043401E+02 0.99483836287E+01 0.93189412271E+01 0.86435630277E+01 0.79520856011E+01
 0.72733677277E+01 0.66307847986E+01 0.50992887936E+01 0.47377197231E+01 0.44275243217E+01
 0.41675066940E+01 0.39562197115E+01 0.37897603357E+01 0.36617468663E+01 0.35680057554E+01
 0.35025815761E+01 0.34598965558E+01 0.34356003201E+01 0.34244037334E+01 0.34226673353E+01
 0.34264021815E+01 0.34327361522E+01 0.34390461859E+01 0.34436019578E+01 0.34452273791E+01
 0.34436076290E+01 0.34390754914E+01 0.34326964864E+01 0.34264573193E+01 0.34226333720E+01
 0.34244365593E+01 0.34353961107E+01 0.34600337195E+01 0.35026010180E+01 0.35682175902E+01
 0.36621971226E+01 0.37897513105E+01 0.39563910693E+01 0.41678021538E+01 0.44276159569E+01
 0.47378154498E+01 0.51004370466E+01 0.55113489185E+01 0.59644588338E+01 0.64495041234E+01
 0.69509853236E+01 0.74502257388E+01 0.79263762849E+01 0.83576636574E+01 0.87215202014E+01
 0.89979378925E+01 0.91706310203E+01 0.92293983556E+01 0.91707585832E+01 0.89981078814E+01
 0.87219526484E+01 0.83577762388E+01 0.79260304925E+01 0.74491948764E+01 0.69497251956E+01
 0.64492365960E+01 0.59649334126E+01 0.55109624254E+01 0.44569615951E+01 0.42119399702E+01
 0.40048522020E+01 0.38355915177E+01 0.37008084853E+01 0.35971461751E+01 0.35220783293E+01
 0.34705914685E+01 0.34389961751E+01 0.34235001734E+01 0.34196289360E+01 0.34242988450E+01
 0.34336848599E+01 0.34451735215E+01 0.34560233402E+01 0.34644442494E+01 0.34689616273E+01
 0.34689638329E+01 0.34644463304E+01 0.34560442805E+01 0.34452164405E+01 0.34339030545E+01
 0.34244375987E+01 0.34198182381E+01 0.34235790143E+01 0.34392371480E+01 0.34707157017E+01
 0.35223612486E+01 0.35974058125E+01 0.37003799041E+01 0.38356583352E+01 0.40056546430E+01
 0.42122419381E+01 0.44563859490E+01 0.47378182383E+01 0.50523242969E+01 0.53938547234E+01
 0.57524707825E+01 0.61164936956E+01 0.64716095386E+01 0.68013896917E+01 0.70896454507E+01
 0.73212186677E+01 0.74834534732E+01 0.75669325253E+01 0.75668464245E+01 0.74830169702E+01
 0.73206620654E+01 0.70888462658E+01 0.68008854463E+01 0.64715644719E+01 0.61168794298E+01
 0.57528329666E+01 0.53933685353E+01 0.50516370270E+01 0.47377223022E+01 0.40220835907E+01
 0.38608394269E+01 0.37275140986E+01 0.36207527127E+01 0.35397570050E+01 0.34825271486E+01
 0.34450604914E+01 0.34251849344E+01 0.34192067560E+01 0.34235931757E+01 0.34356022796E+01
 0.34516865249E+01 0.34693353937E+01 0.34858349592E+01 0.34992143365E+01 0.35078898797E+01
 0.35108541536E+01 0.35078947377E+01 0.34991548167E+01 0.34858242483E+01 0.34693045761E+01
 0.34517540319E+01 0.34353981868E+01 0.34235800093E+01 0.34190538550E+01 0.34252882992E+01
 0.34456008360E+01 0.34825439400E+01 0.35401467864E+01 0.36208883461E+01 0.37271997618E+01
 0.38609717147E+01 0.40224542925E+01 0.42122439103E+01 0.44276205337E+01 0.46644128109E+01
 0.49177625265E+01 0.51791794888E+01 0.54391152813E+01 0.56863840481E+01 0.59098026336E+01
 0.60978214027E+01 0.62403943036E+01 0.63293786737E+01 0.63597099945E+01 0.63294956657E+01
 0.62406761302E+01 0.60980897940E+01 0.59100980467E+01 0.56863342403E+01 0.54385425657E+01
 0.51785083903E+01 0.49169894930E+01 0.46643413715E+01 0.44275663323E+01 0.42119751720E+01
 0.37370943145E+01 0.36339756461E+01 0.35526286258E+01 0.34928693357E+01 0.34524188481E+01
 0.34288679429E+01 0.34209567700E+01 0.34251522992E+01 0.34390151184E+01 0.34598580506E+01
 0.34842780416E+01 0.35099535991E+01 0.35339338216E+01 0.35541628009E+01 0.35686973483E+01
 0.35763085211E+01 0.35763462983E+01 0.35687415314E+01 0.35542188715E+01 0.35340384645E+01
 0.35101941238E+01 0.34845278071E+01 0.34600367844E+01 0.34392390672E+01 0.34252891887E+01
 0.34210988375E+01 0.34290341443E+01 0.34524073580E+01 0.34929030987E+01 0.35527662619E+01
 0.36340916022E+01 0.37370609905E+01 0.38609730463E+01 0.40056578226E+01 0.41678077190E+01
 0.43443900564E+01 0.45299366315E+01 0.47179194185E+01 0.49012137779E+01 0.50710727794E+01
 0.52195689278E+01 0.53387413414E+01 0.54221191883E+01 0.54649367635E+01 0.54648543761E+01
 0.54218220096E+01 0.53382660576E+01 0.52191309346E+01 0.50706367486E+01 0.49009657903E+01
 0.47180599893E+01 0.45299419413E+01 0.43445098490E+01 0.41675344419E+01 0.40048762302E+01
 0.38608177286E+01 0.35572909714E+01 0.34989585719E+01 0.34580277717E+01 0.34331810624E+01
 0.34239277682E+01 0.34289283235E+01 0.34450730037E+01 0.34706327257E+01 0.35026125231E+01
 0.35379004885E+01 0.35741506131E+01 0.36080765828E+01 0.36375866717E+01 0.36602329418E+01
 0.36745347404E+01 0.36793975688E+01 0.36744834838E+01 0.36601598288E+01 0.36374276811E+01
 0.36080741822E+01 0.35741407277E+01 0.35379945735E+01 0.35026050108E+01 0.34707184295E+01
 0.34456024562E+01 0.34290348497E+01 0.34244783876E+01 0.34332582838E+01 0.34573304665E+01
 0.34990813344E+01 0.35581923239E+01 0.36340924547E+01 0.37272018978E+01 0.38356621549E+01
 0.39563970300E+01 0.40867084271E+01 0.42215034963E+01 0.43558764651E+01 0.44836590803E+01
 0.45989314285E+01 0.46957334669E+01 0.47692088271E+01 0.48150344884E+01 0.48306900437E+01
 0.48151758257E+01 0.47693809018E+01 0.46960484298E+01 0.45990003696E+01 0.44837574690E+01
 0.43557613018E+01 0.42213604974E+01 0.40865897636E+01 0.39562795101E+01 0.38356239074E+01
 0.37275477288E+01 0.36340077283E+01 0.34601942049E+01 0.34359732296E+01 0.34270409776E+01
 0.34331731130E+01 0.34524224554E+01 0.34825001939E+01 0.35221087722E+01 0.35680258152E+01
 0.36176153998E+01 0.36681257363E+01 0.37160121253E+01 0.37587164673E+01 0.37933028555E+01
 0.38177193676E+01 0.38303635178E+01 0.38303870165E+01 0.38178484730E+01 0.37934839252E+01
 0.37588259619E+01 0.37162495812E+01 0.36683649601E+01 0.36180614603E+01 0.35682223969E+01
 0.35223646443E+01 0.34825461155E+01 0.34524085408E+01 0.34332587388E+01 0.34270165822E+01
 0.34361426617E+01 0.34602395315E+01 0.34990818099E+01 0.35527675746E+01 0.36208908379E+01
 0.37003839236E+01 0.37897572094E+01 0.38849444752E+01 0.39822557295E+01 0.40775989624E+01
 0.41663378746E+01 0.42441485425E+01 0.43064432734E+01 0.43500803351E+01 0.43724645508E+01
 0.43724335188E+01 0.43498378553E+01 0.43061968944E+01 0.42437205678E+01 0.41662360171E+01
 0.40774474235E+01 0.39823135640E+01 0.38850325722E+01 0.37897595902E+01 0.37008419594E+01
 0.36207546125E+01 0.35526258142E+01 0.34989438791E+01 0.34282667178E+01 0.34360000698E+01
 0.34580366116E+01 0.34928935474E+01 0.35397816824E+01 0.35972078718E+01 0.36618019424E+01
 0.37310251442E+01 0.38014142393E+01 0.38689641121E+01 0.39306103466E+01 0.39824886698E+01
 0.40219682802E+01 0.40465418709E+01 0.40549247799E+01 0.40464626863E+01 0.40218138229E+01
 0.39823569795E+01 0.39303565338E+01 0.38689098222E+01 0.38014337558E+01 0.37311999376E+01
 0.36622025897E+01 0.35974096629E+01 0.35401492670E+01 0.34929045067E+01 0.34573310920E+01
 0.34361428151E+01 0.34290987875E+01 0.34361428151E+01 0.34573310920E+01 0.34929045067E+01
 0.35401492670E+01 0.35974096629E+01 0.36622025897E+01 0.37311999376E+01 0.38014337558E+01
 0.38689098222E+01 0.39303565338E+01 0.39823569795E+01 0.40218138229E+01 0.40464626863E+01
 0.40549247799E+01 0.40465418709E+01 0.40219682802E+01 0.39824886698E+01 0.39306103466E+01
 0.38689641121E+01 0.38014142393E+01 0.37310251442E+01 0.36618019424E+01 0.35972078718E+01
 0.35397816824E+01 0.34928935474E+01 0.34580366116E+01 0.34360000698E+01 0.34601942049E+01
 0.34989438791E+01 0.35526258142E+01 0.36207546125E+01 0.37008419594E+01 0.37897595902E+01