unknown system                          
   1.00000000000000     
     3.592646    0.000000    0.000000
     1.796385    3.111279    0.000000
     1.796393    1.037117    2.933334
   Eu   O 
     1     1
Direct
  0.000000  0.000000  0.000000
  0.500000  0.500000  0.500000
 
   56   56   56
 0.11231763986E+06 0.30742852723E+03 0.57275460058E+03 0.74091974302E+03 0.65327116049E+03
 0.38330195558E+03 0.22980297977E+03 0.17508864743E+03 0.15408599710E+03 0.13641929497E+03
 0.11567752623E+03 0.93590552628E+02 0.72853820533E+02 0.55100047194E+02 0.40844664496E+02
 0.29900416343E+02 0.21761509055E+02 0.15843979821E+02 0.11610149413E+02 0.85265854668E+01
 0.65046900904E+01 0.50891970997E+01 0.41130887104E+01 0.34485292801E+01 0.30025991753E+01
 0.27104962493E+01 0.25287495455E+01 0.24298134865E+01 0.23984592342E+01 0.24298134865E+01
 0.25287495455E+01 0.27104962493E+01 0.30025991753E+01 0.34485292801E+01 0.41130887104E+01
 0.50891970997E+01 0.65046900904E+01 0.85265854668E+01 0.11610149413E+02 0.15843979821E+02
 0.21761509055E+02 0.29900416343E+02 0.40844664496E+02 0.55100047194E+02 0.72853820533E+02
 0.93590552628E+02 0.11567752623E+03 0.13641929497E+03 0.15408599710E+03 0.17508864743E+03
 0.22980297977E+03 0.38330195558E+03 0.65327116049E+03 0.74091974302E+03 0.57275460058E+03
 0.30742852723E+03 0.30741547147E+03 0.66117049293E+03 0.64818841836E+03 0.73566067388E+03
 0.48644523879E+03 0.27876140462E+03 0.19154821400E+03 0.16189704559E+03 0.14469575430E+03
 0.12552195455E+03 0.10379971826E+03 0.82231515229E+02 0.63011857696E+02 0.47138222343E+02
 0.34703884707E+02 0.25321647658E+02 0.18428354564E+02 0.13458574976E+02 0.97729739967E+01
 0.73921448838E+01 0.57100645257E+01 0.45417299472E+01 0.37411561147E+01 0.31996508442E+01
 0.28399025127E+01 0.26089935876E+01 0.24722550607E+01 0.24087986979E+01 0.24087996886E+01
 0.24722581401E+01 0.26089990869E+01 0.28399110149E+01 0.31996632348E+01 0.37411736592E+01
 0.45417543993E+01 0.57100982651E+01 0.73921910693E+01 0.97730366873E+01 0.13458655945E+02
 0.18428454509E+02 0.25321762049E+02 0.34703996554E+02 0.47138288151E+02 0.63011781549E+02
 0.82231101061E+02 0.10379858973E+03 0.12551941937E+03 0.14469058592E+03 0.16188713216E+03
 0.19152990738E+03 0.27872797318E+03 0.48638255691E+03 0.73554233675E+03 0.64801332425E+03
 0.66106098841E+03 0.30736919659E+03 0.57270909875E+03 0.64816572151E+03 0.74765024712E+03
 0.54511136226E+03 0.32053898903E+03 0.20833771627E+03 0.16846438566E+03 0.15048032048E+03
 0.13295798770E+03 0.11227394170E+03 0.90583522454E+02 0.70427781568E+02 0.53265751757E+02
 0.39518356814E+02 0.28971701854E+02 0.21126213021E+02 0.15417108260E+02 0.11327833271E+02
 0.83512966954E+01 0.63921435140E+01 0.50201531070E+01 0.40735509266E+01 0.34286944938E+01
 0.29957540748E+01 0.27120556261E+01 0.25355075033E+01 0.24393985911E+01 0.24089420280E+01
 0.24394025360E+01 0.25355158183E+01 0.27120691970E+01 0.29957743243E+01 0.34287235053E+01
 0.40735916246E+01 0.50202094994E+01 0.63922209828E+01 0.83514022861E+01 0.11327973931E+02
 0.15417286704E+02 0.21126427527E+02 0.28971935595E+02 0.39518559303E+02 0.53265803702E+02
 0.70427432110E+02 0.90582277535E+02 0.11227088543E+03 0.13295149725E+03 0.15046764179E+03
 0.16844102085E+03 0.20829641491E+03 0.32046739900E+03 0.54498761399E+03 0.74745276034E+03
 0.64795693550E+03 0.57264548694E+03 0.66103248529E+03 0.74085677716E+03 0.73563007071E+03
 0.54510212316E+03 0.33673268603E+03 0.21916501175E+03 0.17314657450E+03 0.15408583185E+03
 0.13796216972E+03 0.11865547765E+03 0.97435996607E+02 0.76906407017E+02 0.58877237189E+02
 0.44090314282E+02 0.32538498274E+02 0.23823715342E+02 0.17412571188E+02 0.12780825045E+02
 0.93515902874E+01 0.71164070741E+01 0.55366912980E+01 0.44385142147E+01 0.36851622903E+01
 0.31750268441E+01 0.28358279810E+01 0.26180061836E+01 0.24890010118E+01 0.24291368990E+01
 0.24291397339E+01 0.24890098214E+01 0.26180219079E+01 0.28358522745E+01 0.31750622186E+01
 0.36852123325E+01 0.44385838916E+01 0.55367873467E+01 0.71165384393E+01 0.93517684821E+01
 0.12781057331E+02 0.17412860701E+02 0.23824054035E+02 0.32538847433E+02 0.44090573324E+02
 0.58877181860E+02 0.76905585311E+02 0.97433559602E+02 0.11864991796E+03 0.13795096725E+03
 0.15406502948E+03 0.17311043453E+03 0.21910591591E+03 0.33664141461E+03 0.54497160816E+03
 0.73547764313E+03 0.74075487341E+03 0.64792302004E+03 0.64794194917E+03 0.65322173107E+03
 0.48641990949E+03 0.32052865560E+03 0.21916192239E+03 0.17487071011E+03 0.15580121522E+03
 0.14076516581E+03 0.12283622127E+03 0.10246667779E+03 0.82071023742E+02 0.63632628669E+02
 0.48151719960E+02 0.35826527050E+02 0.26385080100E+02 0.19353664244E+02 0.14223562055E+02
 0.10536706833E+02 0.78573273438E+01 0.60748919298E+01 0.48254572648E+01 0.39621105388E+01
 0.33730003606E+01 0.29769409349E+01 0.27171930364E+01 0.25555073394E+01 0.24674989442E+01
 0.24396151295E+01 0.24675063013E+01 0.25555228360E+01 0.27172183028E+01 0.29769785883E+01
 0.33730542305E+01 0.39621859961E+01 0.48255616632E+01 0.60750351425E+01 0.78575223075E+01
 0.10536968681E+02 0.14223897942E+02 0.19354075566E+02 0.26385547474E+02 0.35826983589E+02
 0.48152002843E+02 0.63632396650E+02 0.82069618742E+02 0.10246292781E+03 0.12282817496E+03
 0.14074983881E+03 0.15577453413E+03 0.17482809105E+03 0.21910020055E+03 0.32044992327E+03
 0.48633747565E+03 0.65316267819E+03 0.73545540988E+03 0.74739853414E+03 0.73547456395E+03
 0.38326938775E+03 0.27874332997E+03 0.20832906277E+03 0.17314300720E+03 0.15580013176E+03
 0.14165629939E+03 0.12488054075E+03 0.10551494782E+03 0.85646349547E+02 0.67242408109E+02
 0.51449649806E+02 0.38637490297E+02 0.28665457513E+02 0.21138856439E+02 0.15585835947E+02
 0.11557779767E+02 0.85840604848E+01 0.66140341110E+01 0.52205787426E+01 0.42502517032E+01
 0.35832443154E+01 0.31307448510E+01 0.28295102634E+01 0.26359942890E+01 0.25214123421E+01
 0.24682651643E+01 0.24682694788E+01 0.25214257399E+01 0.26360181714E+01 0.28295470975E+01
 0.31307983809E+01 0.35833198833E+01 0.42503566997E+01 0.52207231841E+01 0.66142312973E+01
 0.85843275739E+01 0.11558133717E+02 0.15586283723E+02 0.21139396160E+02 0.28666056460E+02
 0.38638050295E+02 0.51449947209E+02 0.67241997086E+02 0.85644422697E+02 0.10551015304E+03
 0.12487082890E+03 0.14163893725E+03 0.15577222976E+03 0.17310306323E+03 0.20827986560E+03
 0.27869477004E+03 0.38323651887E+03 0.48632615490E+03 0.54494146855E+03 0.54494061321E+03
 0.48633589203E+03 0.22978240412E+03 0.19153601797E+03 0.16845794448E+03 0.15408276998E+03
 0.14076390696E+03 0.12488016174E+03 0.10653252945E+03 0.87470026403E+02 0.69492254241E+02
 0.53772813739E+02 0.40790946798E+02 0.30523259239E+02 0.22663616737E+02 0.16794109289E+02
 0.12491493567E+02 0.92624544031E+01 0.71302596372E+01 0.56074615764E+01 0.45382585752E+01
 0.37977770009E+01 0.32914010500E+01 0.29504622905E+01 0.27267692847E+01 0.25875984083E+01
 0.25119167003E+01 0.24879562196E+01 0.25119265805E+01 0.25876191879E+01 0.27268030900E+01
 0.29505125374E+01 0.32914727365E+01 0.37978771312E+01 0.45383967298E+01 0.56076506091E+01
 0.71305164013E+01 0.92628002489E+01 0.12491945239E+02 0.16794675636E+02 0.22664290661E+02
 0.30523994858E+02 0.40791619207E+02 0.53773155112E+02 0.69491760990E+02 0.87467845566E+02
 0.10652735131E+03 0.12487023958E+03 0.14074737439E+03 0.15405856084E+03 0.16842744971E+03
 0.19150475345E+03 0.22975917099E+03 0.27868929250E+03 0.32043479740E+03 0.33661463748E+03
 0.32043447425E+03 0.27869856606E+03 0.17507582000E+03 0.16188909020E+03 0.15047584649E+03
 0.13795986246E+03 0.12283514312E+03 0.10551451328E+03 0.87469898944E+02 0.70256313902E+02
 0.54972437611E+02 0.42143956899E+02 0.31836983568E+02 0.23832219181E+02 0.17775869469E+02
 0.13285225302E+02 0.98576787315E+01 0.75982401413E+01 0.59680790174E+01 0.48133577338E+01
 0.40074203499E+01 0.34521054084E+01 0.30747677853E+01 0.28234850700E+01 0.26622169265E+01
 0.25668969834E+01 0.25227569118E+01 0.25227622295E+01 0.25669134721E+01 0.26622462416E+01
 0.28235301326E+01 0.30748330344E+01 0.34521971797E+01 0.40075474012E+01 0.48135319215E+01
 0.59683160744E+01 0.75985603955E+01 0.98581074001E+01 0.13285779037E+02 0.17776556770E+02
 0.23833031209E+02 0.31837864722E+02 0.42144767929E+02 0.54972896842E+02 0.70255926630E+02
 0.87467885778E+02 0.10550981154E+03 0.12282657056E+03 0.13794659355E+03 0.15045825405E+03
 0.16186968692E+03 0.17505915816E+03 0.19150209083E+03 0.20827240317E+03 0.21908604464E+03
 0.21908594963E+03 0.20827501028E+03 0.19151176617E+03 0.15407809257E+03 0.14469070190E+03
 0.13295502682E+03 0.11865387065E+03 0.10246587292E+03 0.85645985012E+02 0.69492112805E+02
 0.54972398225E+02 0.42605366580E+02 0.32517358233E+02 0.24566730318E+02 0.18468991865E+02
 0.13891689653E+02 0.10513825293E+02 0.79932022341E+01 0.62841223276E+01 0.50621766666E+01
 0.42023415038E+01 0.36054457277E+01 0.31966079691E+01 0.29213233366E+01 0.27410136023E+01
 0.26291675857E+01 0.25685371703E+01 0.25493817256E+01 0.25685485875E+01 0.26291915315E+01
 0.27410524033E+01 0.29213807434E+01 0.31966894809E+01 0.36055590534E+01 0.42024971776E+01
 0.50623888014E+01 0.62844094164E+01 0.79935877661E+01 0.10514339029E+02 0.13892345972E+02
 0.18469801373E+02 0.24567682399E+02 0.32518396863E+02 0.42606354989E+02 0.54973075232E+02
 0.69492050273E+02 0.85644577049E+02 0.10246239933E+03 0.11864772937E+03 0.13294614652E+03
 0.14468001636E+03 0.15406769371E+03 0.16186839222E+03 0.16842377308E+03 0.17309578837E+03
 0.17481688587E+03 0.17309676223E+03 0.16842754513E+03 0.16187604805E+03 0.13641448788E+03
 0.12551882232E+03 0.11227205625E+03 0.97434940034E+02 0.82070473060E+02 0.67242144191E+02
 0.53772700708E+02 0.42143916490E+02 0.32517348440E+02 0.24817360976E+02 0.18827757605E+02
 0.14272296744E+02 0.10869662274E+02 0.82930652917E+01 0.65385002329E+01 0.52717598250E+01
 0.43727352188E+01 0.37438684821E+01 0.33099584784E+01 0.30152423392E+01 0.28195150749E+01
 0.26944891186E+01 0.26209911663E+01 0.25871058365E+01 0.25871116919E+01 0.26210092784E+01
 0.26945211795E+01 0.28195640871E+01 0.30153128869E+01 0.33100571199E+01 0.37440042825E+01
 0.43729204316E+01 0.52720106770E+01 0.65388376765E+01 0.82935154232E+01 0.10870257719E+02
 0.14273052580E+02 0.18828685962E+02 0.24818453364E+02 0.32518555185E+02 0.42145119564E+02
 0.53773686856E+02 0.67242590416E+02 0.82069970029E+02 0.97433088705E+02 0.11226865828E+03
 0.12551412217E+03 0.13640930666E+03 0.14467939806E+03 0.15045646253E+03 0.15405489244E+03
 0.15576621782E+03 0.15576648233E+03 0.15405611468E+03 0.15045932583E+03 0.14468387785E+03
 0.11567464721E+03 0.10379782190E+03 0.90582362981E+02 0.76905745570E+02 0.63632277319E+02
 0.51449477799E+02 0.40790871229E+02 0.31836955547E+02 0.24566722923E+02 0.18827757105E+02
 0.14402048845E+02 0.11053513282E+02 0.84804269039E+01 0.67168264442E+01 0.54306349553E+01
 0.45095733196E+01 0.38602090170E+01 0.34089753227E+01 0.31002694308E+01 0.28932605141E+01
 0.27586132717E+01 0.26758100421E+01 0.26312852807E+01 0.26172887699E+01 0.26312973614E+01
 0.26758352732E+01 0.27586539071E+01 0.28933202139E+01 0.31003535899E+01 0.34090915193E+01
 0.38603675969E+01 0.45097881063E+01 0.54309240104E+01 0.67172126920E+01 0.84809382724E+01
 0.11054185352E+02 0.14402897044E+02 0.18828795844E+02 0.24567948625E+02 0.31838331170E+02
 0.40792306617E+02 0.51450819274E+02 0.63633309694E+02 0.76906225565E+02 0.90582107516E+02
 0.10379681470E+03 0.11567312814E+03 0.12551383967E+03 0.13294529854E+03 0.13794478952E+03
 0.14074425904E+03 0.14163445237E+03 0.14074439977E+03 0.13794534221E+03 0.13294644895E+03
 0.12551540760E+03 0.93588860091E+02 0.82230396242E+02 0.70427093663E+02 0.58876843107E+02
 0.48151510807E+02 0.38637389330E+02 0.30523216871E+02 0.23832205714E+02 0.18468990667E+02
 0.14272299217E+02 0.11053515341E+02 0.85441583049E+01 0.68087125564E+01 0.55298000225E+01
 0.46053333663E+01 0.39482264401E+01 0.34883948960E+01 0.31718103617E+01 0.29580499920E+01
 0.28174897271E+01 0.27288604788E+01 0.26774604132E+01 0.26540117711E+01 0.26540177819E+01
 0.26774789438E+01 0.27288930833E+01 0.28175391871E+01 0.29581205905E+01 0.31719082562E+01
 0.34885286048E+01 0.39484074480E+01 0.46055768174E+01 0.55301253926E+01 0.68091440825E+01
 0.85447247964E+01 0.11054255322E+02 0.14273227874E+02 0.18470124685E+02 0.23833548642E+02
 0.30524743950E+02 0.38639040865E+02 0.48153185624E+02 0.58878410325E+02 0.70428420840E+02
 0.82231395220E+02 0.93589541210E+02 0.10379669636E+03 0.11226827914E+03 0.11864687774E+03
 0.12282501696E+03 0.12486785553E+03 0.12486770970E+03 0.12282465844E+03 0.11864645855E+03
 0.11226787063E+03 0.10379622552E+03 0.72852848150E+02 0.63011217588E+02 0.53265360497E+02
 0.44090093225E+02 0.35826413403E+02 0.28665406658E+02 0.22663599621E+02 0.17775868440E+02
 0.13891694845E+02 0.10869668489E+02 0.84804318955E+01 0.68087150644E+01 0.55635140165E+01
 0.46546217715E+01 0.40030831869E+01 0.35439054262E+01 0.32259445134E+01 0.30101868852E+01
 0.28674714966E+01 0.27763632419E+01 0.27215192064E+01 0.26925987050E+01 0.26836162984E+01
 0.26926107689E+01 0.27215442719E+01 0.27764033018E+01 0.28675298198E+01 0.30102683287E+01
 0.32260559229E+01 0.35440561341E+01 0.40032856017E+01 0.46548920040E+01 0.55638724069E+01
 0.68091863655E+01 0.84810447431E+01 0.10870463913E+02 0.13892686840E+02 0.17777075070E+02
 0.22665029739E+02 0.28667047117E+02 0.35828227619E+02 0.44092017747E+02 0.53267312570E+02
 0.63013115211E+02 0.72854624914E+02 0.82231354263E+02 0.90581955923E+02 0.97432714398E+02
 0.10246166488E+03 0.10550860564E+03 0.10652565841E+03 0.10550809387E+03 0.10246073206E+03
 0.97431481592E+02 0.90580510101E+02 0.82229733592E+02 0.55099505603E+02 0.47137871248E+02
 0.39518147444E+02 0.32538385347E+02 0.26385027704E+02 0.21138838869E+02 0.16794109815E+02
 0.13285233666E+02 0.10513835770E+02 0.82930752258E+01 0.67168339498E+01 0.55298050052E+01
 0.46546242317E+01 0.40217192857E+01 0.35724528218E+01 0.32596784270E+01 0.30466936138E+01
 0.29055032359E+01 0.28150608724E+01 0.27598479379E+01 0.27288873989E+01 0.27151344429E+01
 0.27151403203E+01 0.27289054522E+01 0.27598794883E+01 0.28151083078E+01 0.29055702674E+01
 0.30467856079E+01 0.32598028109E+01 0.35726195628E+01 0.40219414242E+01 0.46549183942E+01
 0.55301917426E+01 0.67173376533E+01 0.82937232801E+01 0.10514670621E+02 0.13286266865E+02
 0.16795360679E+02 0.21140315634E+02 0.26386726313E+02 0.32540280579E+02 0.39520195143E+02
 0.47140009440E+02 0.55101661852E+02 0.63013108341E+02 0.70428374680E+02 0.76906082386E+02
 0.82069651508E+02 0.85644005526E+02 0.87467019707E+02 0.87466711484E+02 0.85643119908E+02
 0.82068289374E+02 0.76904366951E+02 0.70426419016E+02 0.63011010029E+02 0.40844376938E+02
 0.34703704948E+02 0.28971601318E+02 0.23823668108E+02 0.19353649735E+02 0.15585839527E+02
 0.12491505681E+02 0.98576955179E+01 0.79932170156E+01 0.65385126796E+01 0.54306448870E+01
 0.46053407297E+01 0.40030880142E+01 0.35724551895E+01 0.32711373282E+01 0.30654847567E+01
 0.29292803351E+01 0.28423655538E+01 0.27894689508E+01 0.27593615819E+01 0.27443179930E+01
 0.27398056584E+01 0.27443295470E+01 0.27593854655E+01 0.27895068230E+01 0.28424201571E+01
 0.29293557697E+01 0.30655868117E+01 0.32712738659E+01 0.35726365740E+01 0.40033275532E+01
 0.46056550379E+01 0.54310540146E+01 0.65390397685E+01 0.79938871900E+01 0.98585337078E+01
 0.12492554198E+02 0.15587098242E+02 0.19355127011E+02 0.23825359182E+02 0.28973484337E+02
 0.34705741023E+02 0.40846507191E+02 0.47140015661E+02 0.53267311178E+02 0.58878372890E+02
 0.63633193279E+02 0.67242345826E+02 0.69491639490E+02 0.70255342561E+02 0.69491037369E+02
 0.67241203600E+02 0.63631616718E+02 0.58876487647E+02 0.53265239851E+02 0.47137868021E+02
 0.29900276152E+02 0.25321567533E+02 0.21126176165E+02 0.17412562645E+02 0.14223570230E+02
 0.11557796285E+02 0.92624756268E+01 0.75982596277E+01 0.62841396135E+01 0.52717746311E+01
 0.45095855299E+01 0.39482360542E+01 0.35439125066E+01 0.32596830585E+01 0.30654870270E+01
 0.29373696145E+01 0.28564796592E+01 0.28081597226E+01 0.27812657932E+01 0.27677216508E+01
 0.27622555874E+01 0.27622611319E+01 0.27677386282E+01 0.27812952849E+01 0.28082036889E+01
 0.28565411546E+01 0.29374530585E+01 0.30655985127E+01 0.32598306900E+01 0.35441067511E+01
 0.39484900642E+01 0.45099153413E+01 0.52721990834E+01 0.62846797807E+01 0.75989375222E+01
 0.92633119615E+01 0.11558833883E+02 0.14224801498E+02 0.17413990350E+02 0.21127793694E+02
 0.25323351188E+02 0.29902183841E+02 0.34705750753E+02 0.39520209673E+02 0.44092023869E+02
 0.48153160726E+02 0.51450734394E+02 0.53773514284E+02 0.54972799648E+02 0.54972524196E+02
 0.53772714314E+02 0.51449482740E+02 0.48151561563E+02 0.44090192516E+02 0.39518259297E+02
 0.34703780903E+02 0.21761452926E+02 0.18428331245E+02 0.15417107794E+02 0.12780838763E+02
 0.10536728049E+02 0.85840858950E+01 0.71302836233E+01 0.59681009786E+01 0.50621962163E+01
 0.43727521697E+01 0.38602233303E+01 0.34884066185E+01 0.32259537252E+01 0.30467003970E+01
 0.29292847668E+01 0.28564818217E+01 0.28145463590E+01 0.27927027326E+01 0.27828047088E+01
 0.27791333021E+01 0.27782892168E+01 0.27791440529E+01 0.27828268456E+01 0.27927376085E+01
 0.28145962005E+01 0.28565499396E+01 0.29293758028E+01 0.30468205898E+01 0.32261111821E+01
 0.34886115712E+01 0.38604883275E+01 0.43730921117E+01 0.50626280914E+01 0.59686431233E+01
 0.71309543220E+01 0.85849011888E+01 0.10537726158E+02 0.12782006721E+02 0.15418443809E+02
 0.18429821721E+02 0.21763069406E+02 0.25323360431E+02 0.28973501879E+02 0.32540300875E+02
 0.35828239400E+02 0.38639027840E+02 0.40792250856E+02 0.42145007152E+02 0.42606181909E+02
 0.42144543293E+02 0.40791363869E+02 0.38637791186E+02 0.35826746395E+02 0.32538650678E+02
 0.28971788084E+02 0.25321663511E+02 0.15843970698E+02 0.13458583276E+02 0.11327852985E+02
 0.93516197032E+01 0.78573566022E+01 0.66140622987E+01 0.56074879601E+01 0.48133818173E+01
 0.42023630211E+01 0.37438873476E+01 0.34089915620E+01 0.31718240482E+01 0.30101980970E+01
 0.29055120396E+01 0.28423720099E+01 0.28081639040E+01 0.27927047453E+01 0.27880087833E+01
 0.27881523588E+01 0.27892068902E+01 0.27892120155E+01 0.27881680213E+01 0.27880358756E+01
 0.27927448622E+01 0.28082194921E+01 0.28424465550E+01 0.29056102735E+01 0.30103262060E+01
 0.31719898678E+01 0.34092047327E+01 0.37441593814E+01 0.42027071942E+01 0.48138127633E+01
 0.56080208230E+01 0.66147113121E+01 0.78581330358E+01 0.93525292590E+01 0.11328930324E+02
 0.13459794061E+02 0.15845295880E+02 0.18429829135E+02 0.21127809156E+02 0.23825380856E+02
 0.26386748906E+02 0.28667061931E+02 0.30524740247E+02 0.31838298821E+02 0.32518488132E+02
 0.32518295919E+02 0.31837738171E+02 0.30523856479E+02 0.28665921925E+02 0.26385430527E+02
 0.23823963562E+02 0.21126366702E+02 0.18428421893E+02 0.11610165857E+02 0.97730048836E+01
 0.83513289881E+01 0.71164397159E+01 0.60749238935E+01 0.52206091769E+01 0.45382868776E+01
 0.40074461707E+01 0.36054689245E+01 0.33099790455E+01 0.31002874278E+01 0.29580654903E+01
 0.28674845531E+01 0.28150715282E+01 0.27894772479E+01 0.27812717966E+01 0.27828085268E+01
 0.27881541551E+01 0.27930652243E+01 0.27949895621E+01 0.27930751554E+01 0.27881745554E+01
 0.27828405186E+01 0.27813171764E+01 0.27895386119E+01 0.28151524226E+01 0.28675896307E+01
 0.29582006572E+01 0.31004599612E+01 0.33101976577E+01 0.36057437236E+01 0.40077884433E+01
 0.45387085893E+01 0.52211220807E+01 0.60755381636E+01 0.71171621063E+01 0.83521606468E+01
 0.97739391263E+01 0.11611230191E+02 0.13459799465E+02 0.15418455714E+02 0.17414008513E+02
 0.19355149298E+02 0.21140337605E+02 0.22665045366E+02 0.23833551355E+02 0.24567933191E+02
 0.24818417942E+02 0.24567629318E+02 0.23832966859E+02 0.22664223628E+02 0.21139335264E+02
 0.19354027960E+02 0.17412830185E+02 0.15417274194E+02 0.13458659612E+02 0.85266180527E+01
 0.73921794367E+01 0.63921789260E+01 0.55367264634E+01 0.48254912380E+01 0.42502837854E+01
 0.37978067565E+01 0.34521326280E+01 0.31966326022E+01 0.30152644193E+01 0.28932800979E+01
 0.28175068582E+01 0.27763779424E+01 0.27598602205E+01 0.27593714733E+01 0.27677292141E+01
 0.27791386524E+01 0.27892102023E+01 0.27949910714E+01 0.27949958542E+01 0.27892248004E+01
 0.27791638284E+01 0.27677662827E+01 0.27594223678E+01 0.27599275833E+01 0.27764652311E+01
 0.28176184515E+01 0.28934213852E+01 0.30154418539E+01 0.31968536920E+01 0.34524058194E+01
 0.37981411455E+01 0.42506885729E+01 0.48259748508E+01 0.55372953027E+01 0.63928357884E+01
 0.73929217698E+01 0.85274363348E+01 0.97739430229E+01 0.11328938717E+02 0.12782020241E+02
 0.14224819492E+02 0.15587118618E+02 0.16795380255E+02 0.17777089830E+02 0.18470131108E+02
 0.18828791701E+02 0.18828671254E+02 0.18469778560E+02 0.17776530250E+02 0.16794650814E+02
 0.15586265267E+02 0.14223889387E+02 0.12781060011E+02 0.11327987635E+02 0.97730664095E+01
 0.65047261638E+01 0.57101019576E+01 0.50201907574E+01 0.44385510765E+01 0.39621458342E+01
 0.35832775256E+01 0.32914318903E+01 0.30747961452E+01 0.29213492076E+01 0.28195384856E+01
 0.27586342443E+01 0.27288790126E+01 0.27215352850E+01 0.27289010119E+01 0.27443291605E+01
 0.27622643787E+01 0.27782957601E+01 0.27892165005E+01 0.27930778299E+01 0.27892259655E+01
 0.27783151619E+01 0.27622946667E+01 0.27443717790E+01 0.27289579330E+01 0.27216090604E+01
 0.27289728377E+01 0.27587520225E+01 0.28196848744E+01 0.29215296268E+01 0.30750167190E+01
 0.32916992850E+01 0.35835986247E+01 0.39625271892E+01 0.44389980840E+01 0.50207065639E+01
 0.57106861693E+01 0.65053735374E+01 0.73929240418E+01 0.83521662610E+01 0.93525390966E+01
 0.10537739050E+02 0.11558849697E+02 0.12492571241E+02 0.13286283051E+02 0.13892699915E+02
 0.14273236110E+02 0.14402899815E+02 0.14273050673E+02 0.13892341487E+02 0.13285774901E+02
 0.12491944508E+02 0.11558139056E+02 0.10536981370E+02 0.93517949408E+01 0.83514325391E+01
 0.73922246725E+01 0.50892357115E+01 0.45417692641E+01 0.40735899181E+01 0.36852001241E+01
 0.33730364443E+01 0.31307788207E+01 0.29504939631E+01 0.28235143777E+01 0.27410405286E+01
 0.26945136514E+01 0.26758321504E+01 0.26774800484E+01 0.26926158195E+01 0.27151490145E+01
 0.27398177124E+01 0.27622707533E+01 0.27791513899E+01 0.27881732831E+01 0.27881780057E+01
 0.27791657781E+01 0.27622954611E+01 0.27398538123E+01 0.27151979827E+01 0.26926795348E+01
 0.26775608104E+01 0.26759327137E+01 0.26946372633E+01 0.27411909512E+01 0.28236958723E+01
 0.29507112092E+01 0.31310367321E+01 0.33733398358E+01 0.36855531865E+01 0.40739954810E+01
 0.45422278784E+01 0.50897446523E+01 0.57106874043E+01 0.63928389397E+01 0.71171677819E+01
 0.78581416234E+01 0.85849127346E+01 0.92633261166E+01 0.98585497697E+01 0.10514683221E+02
 0.10870474827E+02 0.11054263977E+02 0.11054191935E+02 0.10870263226E+02 0.10514345086E+02
 0.98581236118E+01 0.92628188403E+01 0.85843495672E+01 0.78575483291E+01 0.71165685965E+01
 0.63922548638E+01 0.57101350452E+01 0.41131288386E+01 0.37411964226E+01 0.34287341242E+01
 0.31750651475E+01 0.29769774720E+01 0.28295447711E+01 0.27268016211E+01 0.26622470133E+01
 0.26291953607E+01 0.26210165568E+01 0.26313081993E+01 0.26540321300E+01 0.26836340329E+01
 0.27151554118E+01 0.27443420386E+01 0.27677486303E+01 0.27828345338E+01 0.27880414840E+01
 0.27828443315E+01 0.27677686238E+01 0.27443729964E+01 0.27151984277E+01 0.26836904814E+01
 0.26541036388E+01 0.26313966479E+01 0.26211240985E+01 0.26293244523E+01 0.26624004330E+01
 0.27269824475E+01 0.28297562961E+01 0.29772230124E+01 0.31753477196E+01 0.34290559596E+01
 0.37415583321E+01 0.41135294796E+01 0.45422284895E+01 0.50207081921E+01 0.55372983359E+01
 0.60755428848E+01 0.66147178209E+01 0.71309624943E+01 0.75989470258E+01 0.79938975635E+01
 0.82937340603E+01 0.84810556140E+01 0.85447357193E+01 0.84809495607E+01 0.82935277336E+01
 0.79936019989E+01 0.75985775212E+01 0.71305372567E+01 0.66142564028E+01 0.60750645885E+01
 0.55368207743E+01 0.50202461711E+01 0.45417933338E+01 0.34485701027E+01 0.31996915164E+01
 0.29957939126E+01 0.28358664815E+01 0.27172298570E+01 0.26360292061E+01 0.25876312679E+01
 0.25669276584E+01 0.25685655330E+01 0.25871317511E+01 0.26173121025E+01 0.26540384218E+01
 0.26926286521E+01 0.27289205792E+01 0.27593979099E+01 0.27813051924E+01 0.27927451900E+01
 0.27927503837E+01 0.27813209479E+01 0.27594247289E+01 0.27289592354E+01 0.26926801192E+01
 0.26541038093E+01 0.26173926185E+01 0.25872287015E+01 0.25686803495E+01 0.25670619389E+01
 0.25877868033E+01 0.26362079655E+01 0.27174339014E+01 0.28360977763E+01 0.29960540173E+01
 0.31999811494E+01 0.34488886120E+01 0.37415585914E+01 0.40739962232E+01 0.44389995377E+01
 0.48259772016E+01 0.52211254264E+01 0.56080251477E+01 0.59686483053E+01 0.62846856391E+01
 0.65390461404E+01 0.67173444866E+01 0.68091938010E+01 0.68091525006E+01 0.67172227051E+01
 0.65388500589E+01 0.62844249810E+01 0.59683355214E+01 0.56076743834E+01 0.52207513777E+01
 0.48255939864E+01 0.44386197168E+01 0.40736300863E+01 0.37412137819E+01 0.30026401759E+01
 0.28399432126E+01 0.27120954772E+01 0.26180447743E+01 0.25555443651E+01 0.25214475670E+01
 0.25119499218E+01 0.25227879352E+01 0.25494103553E+01 0.25871377391E+01 0.26313206628E+01
 0.26774993850E+01 0.27215618075E+01 0.27598941530E+01 0.27895187334E+01 0.28082130369E+01
 0.28146032415E+01 0.28082245313E+01 0.27895419887E+01 0.27599296545E+01 0.27216101790E+01
 0.26775613028E+01 0.26313967911E+01 0.25872287054E+01 0.25495167704E+01 0.25229104455E+01
 0.25120892707E+01 0.25216046365E+01 0.25557201665E+01 0.26182403596E+01 0.27123117501E+01
 0.28401806343E+01 0.30028983829E+01 0.31999812262E+01 0.34290562231E+01 0.36855537579E+01
 0.39625281778E+01 0.42506900540E+01 0.45387105914E+01 0.48138152748E+01 0.50626310900E+01
 0.52722025846E+01 0.54310581287E+01 0.55301967240E+01 0.55638786805E+01 0.55301335423E+01
 0.54309347262E+01 0.52720246638E+01 0.50624066664E+01 0.48135540641E+01 0.45384232608E+01
 0.42503874091E+01 0.39622203775E+01 0.36852496542E+01 0.34287629103E+01 0.31997038444E+01
 0.27105371899E+01 0.26090341992E+01 0.25355473233E+01 0.24890396656E+01 0.24675361179E+01
 0.24683005765E+01 0.24879896010E+01 0.25227933150E+01 0.25685771228E+01 0.26210350377E+01
 0.26758580830E+01 0.27289128444E+01 0.27764200046E+01 0.28151220369E+01 0.28424310860E+01
 0.28565495331E+01 0.28565560765E+01 0.28424507998E+01 0.28151551452E+01 0.27764668012E+01
 0.27289736028E+01 0.26759329780E+01 0.26211241052E+01 0.25686802714E+01 0.25229103852E+01
 0.24881204519E+01 0.24684451704E+01 0.24676945707E+01 0.24892122317E+01 0.25357342947E+01
 0.26092357090E+01 0.27107529344E+01 0.28401806290E+01 0.29960540493E+01 0.31753478421E+01
 0.33733401041E+01 0.35835990877E+01 0.37981418437E+01 0.40077894165E+01 0.42027085021E+01
 0.43730938653E+01 0.45099177379E+01 0.46056583902E+01 0.46549231426E+01 0.46548987031E+01
 0.46055860930E+01 0.45098005868E+01 0.43729366615E+01 0.42025175331E+01 0.40075720232E+01
 0.37979058933E+01 0.35833524022E+01 0.33730899144E+01 0.31751003421E+01 0.29958141120E+01
 0.28399517157E+01 0.25287903722E+01 0.24722955890E+01 0.24394383963E+01 0.24291756026E+01
 0.24396523778E+01 0.24683049274E+01 0.25119598890E+01 0.25669443110E+01 0.26292196010E+01
 0.26945462341E+01 0.27586757821E+01 0.28175578179E+01 0.28675452514E+01 0.29055826516E+01
 0.29293653521E+01 0.29374601581E+01 0.29293807880E+01 0.29056135377E+01 0.28675915681E+01
 0.28176194340E+01 0.27587523792E+01 0.26946372644E+01 0.26293242994E+01 0.25670617636E+01
 0.25120891426E+01 0.24684451112E+01 0.24398028013E+01 0.24293357981E+01 0.24396080814E+01
 0.24724745395E+01 0.25289782153E+01 0.26092356779E+01 0.27123116931E+01 0.28360977062E+01
 0.29772229485E+01 0.31310367005E+01 0.32916993232E+01 0.34524059862E+01 0.36057441150E+01
 0.37441601526E+01 0.38604897139E+01 0.39484923981E+01 0.40033312672E+01 0.40219470371E+01
 0.40032936836E+01 0.39484185664E+01 0.38603822512E+01 0.37440228371E+01 0.36055816826E+01
 0.34522238373E+01 0.32915031560E+01 0.31308321067E+01 0.29770150297E+01 0.28358907706E+01
 0.27121090781E+01 0.26090397226E+01 0.24298542312E+01 0.24088391878E+01 0.24089818418E+01
 0.24291784614E+01 0.24675435313E+01 0.25214610571E+01 0.25876521817E+01 0.26622765263E+01
 0.27410796473E+01 0.28195880439E+01 0.28933407490E+01 0.29581376966E+01 0.30102821282E+01
 0.30467963396E+01 0.30655948077E+01 0.30656041681E+01 0.30468243310E+01 0.30103284605E+01
 0.29582018271E+01 0.28934218259E+01 0.28196848794E+01 0.27411907438E+01 0.26624001661E+01
 0.25877865667E+01 0.25216044696E+01 0.24676944777E+01 0.24293357635E+01 0.24091446482E+01
 0.24090068943E+01 0.24300263197E+01 0.24724745119E+01 0.25357342259E+01 0.26182402402E+01
 0.27174337282E+01 0.28297560774E+01 0.29507109733E+01 0.30750165261E+01 0.31968536491E+01
 0.33101979339E+01 0.34092055731E+01 0.34886133046E+01 0.35441097884E+01 0.35726413936E+01
 0.35726266822E+01 0.35440660684E+01 0.34885418156E+01 0.34091083619E+01 0.33100777987E+01
 0.31967140198E+01 0.30748612710E+01 0.29505441405E+01 0.28295816052E+01 0.27172551712E+01
 0.26180605604E+01 0.25355556868E+01 0.24722986911E+01 0.23984999511E+01 0.24088401874E+01
 0.24394423733E+01 0.24890485357E+01 0.25555599454E+01 0.26360531832E+01 0.27268355247E+01
 0.28235595579E+01 0.29214068135E+01 0.30153353785E+01 0.31003724274E+01 0.31719235199E+01
 0.32260678387E+01 0.32598117239E+01 0.32712802028E+01 0.32598349185E+01 0.32261137714E+01
 0.31719912562E+01 0.31004605321E+01 0.30154419210E+01 0.29215294288E+01 0.28236955755E+01
 0.27269821547E+01 0.26362077294E+01 0.25557200039E+01 0.24892121376E+01 0.24396080393E+01
 0.24090068838E+01 0.23986669541E+01 0.24090068838E+01 0.24396080393E+01 0.24892121376E+01
 0.25557200039E+01 0.26362077294E+01 0.27269821547E+01 0.28236955755E+01 0.29215294288E+01
 0.30154419210E+01 0.31004605321E+01 0.31719912562E+01 0.32261137714E+01 0.32598349185E+01
 0.32712802028E+01 0.32598117239E+01 0.32260678387E+01 0.31719235199E+01 0.31003724274E+01
 0.30153353785E+01 0.29214068135E+01 0.28235595579E+01 0.27268355247E+01 0.26360531832E+01
 0.25555599454E+01 0.24890485357E+01 0.24394423733E+01 0.24088401874E+01 0.24298542312E+01
 0.24722986911E+01 0.25355556868E+01 0.26180605604E+01 0.27172551712E+01 0.28295816052E+01