=========================================
SLURM_JOB_ID = 63603124
SLURM_JOB_NODELIST = lnode32
SLURM_GPUS = 
SLURM_CPUS_ON_NODE = 16
SLURM_JOB_PARTITION = lenovo
SLURM_TASK_PID = 2352987
CUDA_VISIBLE_DEVICES = 
==========================================
 running on   16 total cores
 distrk:  each k-point on   16 cores,    1 groups
 distr:  one band on    4 cores,    4 groups
 using from now: INCAR     
 vasp.5.4.4.18Apr17-6-g9f103f2a35 (build Apr 28 2018 00:24:27) complex          
  
 POSCAR found type information on POSCAR  Ni
 POSCAR found :  1 types and       4 ions
 scaLAPACK will be used

 ----------------------------------------------------------------------------- 
|                                                                             |
|  ADVICE TO THIS USER RUNNING 'VASP/VAMP'   (HEAR YOUR MASTER'S VOICE ...):  |
|                                                                             |
|      You have a (more or less) 'small supercell' and for smaller cells      |
|      it is recommended  to use the reciprocal-space projection scheme!      |
|      The real space optimization is not  efficient for small cells and it   |
|      is also less accurate ...                                              |
|      Therefore set LREAL=.FALSE. in the  INCAR file                         |
|                                                                             |
 ----------------------------------------------------------------------------- 

 LDA part: xc-table for Pade appr. of Perdew
 POSCAR, INCAR and KPOINTS ok, starting setup
 FFT: planning ...
 WAVECAR not read
 entering main loop
       N       E                     dE             d eps       ncg     rms          rms(c)
DAV:   1     0.904191507903E+03    0.90419E+03   -0.44165E+04 24008   0.250E+03
DAV:   2     0.504753249734E+02   -0.85372E+03   -0.82296E+03 21840   0.714E+02
DAV:   3    -0.268149546283E+01   -0.53157E+02   -0.49863E+02 23736   0.213E+02
DAV:   4    -0.367476906851E+01   -0.99327E+00   -0.98754E+00 23608   0.302E+01
DAV:   5    -0.370075579309E+01   -0.25987E-01   -0.25992E-01 27264   0.482E+00    0.529E+01
DAV:   6    -0.112474477932E+02   -0.75467E+01   -0.70400E+01 21776   0.930E+01    0.255E+01
DAV:   7    -0.101432250738E+02    0.11042E+01   -0.24491E+01 23480   0.627E+01    0.810E+00
DAV:   8    -0.113251229108E+02   -0.11819E+01   -0.16377E+00 24280   0.140E+01    0.324E+00
DAV:   9    -0.117164614905E+02   -0.39134E+00   -0.52422E-01 23512   0.575E+00    0.121E+00
DAV:  10    -0.117395625221E+02   -0.23101E-01   -0.56653E-02 24280   0.180E+00    0.541E-01
DAV:  11    -0.117469159162E+02   -0.73534E-02   -0.86211E-03 28792   0.100E+00    0.315E-01
DAV:  12    -0.117497715556E+02   -0.28556E-02   -0.32787E-03 28368   0.629E-01    0.165E-01
DAV:  13    -0.117504147492E+02   -0.64319E-03   -0.11137E-03 24880   0.316E-01    0.964E-02
DAV:  14    -0.117506880445E+02   -0.27330E-03   -0.26144E-04 28072   0.181E-01    0.693E-02
DAV:  15    -0.117510950853E+02   -0.40704E-03   -0.54315E-04 32384   0.251E-01    0.585E-02
DAV:  16    -0.117513289448E+02   -0.23386E-03   -0.27610E-04 32432   0.173E-01    0.490E-02
DAV:  17    -0.117517518450E+02   -0.42290E-03   -0.11108E-03 33976   0.380E-01    0.412E-02
DAV:  18    -0.117520863043E+02   -0.33446E-03   -0.11646E-03 32168   0.348E-01    0.418E-02
DAV:  19    -0.117523291715E+02   -0.24287E-03   -0.73759E-04 33200   0.256E-01    0.307E-02
DAV:  20    -0.117524244433E+02   -0.95272E-04   -0.11047E-04 22744   0.878E-02    0.138E-02
DAV:  21    -0.117524996755E+02   -0.75232E-04   -0.97150E-05 34104   0.973E-02    0.115E-02
DAV:  22    -0.117525704335E+02   -0.70758E-04   -0.14637E-04 31928   0.122E-01    0.114E-02
DAV:  23    -0.117525482385E+02    0.22195E-04   -0.41206E-05 28760   0.819E-02    0.314E-03
DAV:  24    -0.117525265729E+02    0.21666E-04   -0.13743E-05 31152   0.352E-02    0.306E-03
DAV:  25    -0.117525222814E+02    0.42915E-05   -0.17162E-06 21680   0.106E-02    0.132E-03
DAV:  26    -0.117525199585E+02    0.23230E-05   -0.23387E-07 14360   0.392E-03    0.694E-04
DAV:  27    -0.117525153292E+02    0.46292E-05   -0.39732E-07 12256   0.669E-03    0.774E-04
DAV:  28    -0.117525161634E+02   -0.83420E-06   -0.10257E-07 11792   0.404E-03    0.283E-04
DAV:  29    -0.117525189869E+02   -0.28235E-05   -0.14062E-07 11264   0.412E-03    0.304E-04
DAV:  30    -0.117525191043E+02   -0.11744E-06   -0.17203E-08 11200   0.124E-03    0.122E-04
DAV:  31    -0.117525187898E+02    0.31455E-06   -0.23120E-09 11176   0.546E-04    0.814E-05
DAV:  32    -0.117525189306E+02   -0.14084E-06   -0.76159E-10 11200   0.375E-04    0.578E-05
DAV:  33    -0.117525193285E+02   -0.39789E-06   -0.30089E-09 11160   0.606E-04    0.489E-05
DAV:  34    -0.117525192722E+02    0.56329E-07   -0.60329E-10 11128   0.284E-04
   1 F= -.11752519E+02 E0= -.11752519E+02  d E =0.000000E+00  mag=     0.0000
