       N       E                     dE             d eps       ncg     rms          rms(c)
DAV:   1     0.258166303288E+03    0.25817E+03   -0.17235E+04 69456   0.215E+03
DAV:   2     0.313402542159E+01   -0.25503E+03   -0.24791E+03 70088   0.387E+02
DAV:   3    -0.141095663247E+02   -0.17244E+02   -0.16925E+02 78560   0.139E+02
DAV:   4    -0.143826840248E+02   -0.27312E+00   -0.27209E+00 72288   0.173E+01
DAV:   5    -0.143938834579E+02   -0.11199E-01   -0.11201E-01104032   0.291E+00    0.330E+01
DAV:   6    -0.150048409998E+02   -0.61096E+00   -0.60095E+01 73608   0.101E+02    0.129E+01
DAV:   7    -0.155454763635E+02   -0.54064E+00   -0.94881E+00 78040   0.471E+01    0.582E+00
DAV:   8    -0.165098267496E+02   -0.96435E+00   -0.11683E+00 75120   0.103E+01    0.303E+00
DAV:   9    -0.167583987864E+02   -0.24857E+00   -0.34008E-01 76384   0.447E+00    0.137E+00
DAV:  10    -0.168402641023E+02   -0.81865E-01   -0.27196E-01 90488   0.353E+00    0.703E-01
DAV:  11    -0.168797069426E+02   -0.39443E-01   -0.11495E-01 99784   0.247E+00    0.677E-01
DAV:  12    -0.169177522666E+02   -0.38045E-01   -0.99537E-02127136   0.211E+00    0.698E-01
DAV:  13    -0.169231741403E+02   -0.54219E-02   -0.44095E-03 81864   0.586E-01    0.701E-01
DAV:  14    -0.169115750532E+02    0.11599E-01   -0.15971E-02118992   0.119E+00    0.665E-01
DAV:  15    -0.168392465204E+02    0.72329E-01   -0.93188E-01116000   0.811E+00    0.670E-01
DAV:  16    -0.168207224899E+02    0.18524E-01   -0.11269E-01104560   0.243E+00    0.652E-01
DAV:  17    -0.168411572468E+02   -0.20435E-01   -0.98051E-02110008   0.260E+00    0.672E-01
DAV:  18    -0.168498033011E+02   -0.86461E-02   -0.20989E-02107744   0.102E+00    0.689E-01
DAV:  19    -0.166878567747E+02    0.16195E+00   -0.34843E+00119728   0.153E+01    0.104E+00
DAV:  20    -0.166032824683E+02    0.84574E-01   -0.34462E-01104688   0.488E+00    0.137E+00
DAV:  21    -0.166010545435E+02    0.22279E-02   -0.41719E-02 93592   0.204E+00    0.159E+00
DAV:  22    -0.168174984921E+02   -0.21644E+00   -0.20929E+00120072   0.129E+01    0.904E-01
DAV:  23    -0.168875591281E+02   -0.70061E-01   -0.10445E+00111856   0.760E+00    0.816E-01
DAV:  24    -0.168684475610E+02    0.19112E-01   -0.14156E-01102736   0.328E+00    0.617E-01
DAV:  25    -0.168495054268E+02    0.18942E-01   -0.10345E-01119264   0.228E+00    0.559E-01
DAV:  26    -0.168499234988E+02   -0.41807E-03   -0.17318E-03 69424   0.455E-01    0.563E-01
DAV:  27    -0.168496877620E+02    0.23574E-03   -0.34408E-05119328   0.511E-02    0.561E-01
DAV:  28    -0.168479540435E+02    0.17337E-02   -0.74207E-04122784   0.218E-01    0.565E-01
DAV:  29    -0.168613182509E+02   -0.13364E-01   -0.61997E-02122400   0.208E+00    0.521E-01
DAV:  30    -0.168868082293E+02   -0.25490E-01   -0.19904E-01122112   0.336E+00    0.550E-01
DAV:  31    -0.169593611332E+02   -0.72553E-01   -0.90428E-01124720   0.669E+00    0.962E-01
DAV:  32    -0.169507816845E+02    0.85794E-02   -0.22862E-02 79456   0.166E+00    0.911E-01
DAV:  33    -0.169471539209E+02    0.36278E-02   -0.22906E-03 97472   0.442E-01    0.921E-01
DAV:  34    -0.169710761277E+02   -0.23922E-01   -0.56580E-02124144   0.189E+00    0.114E+00
DAV:  35    -0.169830844128E+02   -0.12008E-01   -0.12172E-02108416   0.860E-01    0.120E+00
DAV:  36    -0.169917879570E+02   -0.87035E-02   -0.84571E-03120208   0.725E-01    0.133E+00
DAV:  37    -0.169855447590E+02    0.62432E-02   -0.29963E-03104336   0.490E-01    0.131E+00
DAV:  38    -0.169401238935E+02    0.45421E-01   -0.16250E-01115136   0.338E+00    0.122E+00
DAV:  39    -0.169042080478E+02    0.35916E-01   -0.18427E-01120656   0.315E+00    0.110E+00
DAV:  40    -0.168722745654E+02    0.31933E-01   -0.22611E-01125704   0.358E+00    0.109E+00
DAV:  41    -0.168655630155E+02    0.67115E-02   -0.20560E-02101840   0.105E+00    0.108E+00
DAV:  42    -0.168603480706E+02    0.52149E-02   -0.89754E-03119472   0.655E-01    0.106E+00
DAV:  43    -0.168612202504E+02   -0.87218E-03   -0.42941E-04 72336   0.249E-01    0.106E+00
DAV:  44    -0.168595962905E+02    0.16240E-02   -0.11894E-03113320   0.311E-01    0.108E+00
DAV:  45    -0.168381115723E+02    0.21485E-01   -0.11260E-01122944   0.262E+00    0.103E+00
DAV:  46    -0.168061105973E+02    0.32001E-01   -0.16667E-01122976   0.336E+00    0.117E+00
DAV:  47    -0.168262116144E+02   -0.20101E-01   -0.52404E-02112784   0.221E+00    0.105E+00
DAV:  48    -0.168475360808E+02   -0.21324E-01   -0.96735E-02119280   0.262E+00    0.893E-01
DAV:  49    -0.168660015277E+02   -0.18465E-01   -0.94307E-02122544   0.243E+00    0.783E-01
DAV:  50    -0.168934742243E+02   -0.27473E-01   -0.19753E-01120224   0.325E+00    0.787E-01
DAV:  51    -0.169183432095E+02   -0.24869E-01   -0.11450E-01121920   0.253E+00    0.836E-01
DAV:  52    -0.169337877040E+02   -0.15444E-01   -0.36755E-02118344   0.132E+00    0.933E-01
DAV:  53    -0.169154537954E+02    0.18334E-01   -0.47901E-02112352   0.175E+00    0.828E-01
DAV:  54    -0.169155238275E+02   -0.70032E-04   -0.65013E-04 69536   0.246E-01    0.824E-01
DAV:  55    -0.169140064578E+02    0.15174E-02   -0.39309E-04122560   0.175E-01    0.837E-01
DAV:  56    -0.168964115099E+02    0.17595E-01   -0.50852E-02120032   0.171E+00    0.760E-01
DAV:  57    -0.169009447754E+02   -0.45333E-02   -0.39770E-03104496   0.554E-01    0.799E-01
DAV:  58    -0.169019780545E+02   -0.10333E-02   -0.37663E-04107392   0.161E-01    0.811E-01
DAV:  59    -0.168525510628E+02    0.49427E-01   -0.57964E-01120160   0.576E+00    0.732E-01
DAV:  60    -0.168339010377E+02    0.18650E-01   -0.11370E-01109728   0.255E+00    0.747E-01
DAV:  61    -0.168318577393E+02    0.20433E-02   -0.35957E-03 80632   0.566E-01    0.770E-01
DAV:  62    -0.168284280592E+02    0.34297E-02   -0.32239E-03130336   0.448E-01    0.763E-01
DAV:  63    -0.168177603300E+02    0.10668E-01   -0.19613E-02123472   0.120E+00    0.820E-01
DAV:  64    -0.168045995225E+02    0.13161E-01   -0.23554E-02125168   0.130E+00    0.891E-01
DAV:  65    -0.168402590839E+02   -0.35660E-01   -0.20327E-01120416   0.398E+00    0.706E-01
DAV:  66    -0.168762673425E+02   -0.36008E-01   -0.35155E-01122896   0.458E+00    0.614E-01
DAV:  67    -0.169071749194E+02   -0.30908E-01   -0.22392E-01129104   0.337E+00    0.690E-01
DAV:  68    -0.169424854712E+02   -0.35311E-01   -0.19106E-01122016   0.311E+00    0.885E-01
DAV:  69    -0.169515688922E+02   -0.90834E-02   -0.13376E-02 96816   0.886E-01    0.937E-01
DAV:  70    -0.169336514958E+02    0.17917E-01   -0.34702E-02114040   0.157E+00    0.834E-01
DAV:  71    -0.169320765548E+02    0.15749E-02   -0.97748E-04 75664   0.264E-01    0.834E-01
DAV:  72    -0.169348664783E+02   -0.27899E-02   -0.91771E-04112944   0.265E-01    0.847E-01
DAV:  73    -0.169284698602E+02    0.63966E-02   -0.45717E-03117264   0.527E-01    0.823E-01
DAV:  74    -0.169007514351E+02    0.27718E-01   -0.12357E-01119296   0.261E+00    0.692E-01
DAV:  75    -0.168993004465E+02    0.14510E-02   -0.29048E-03 69888   0.455E-01    0.672E-01
DAV:  76    -0.169045306529E+02   -0.52302E-02   -0.49664E-03110544   0.580E-01    0.692E-01
DAV:  77    -0.168955208836E+02    0.90098E-02   -0.15181E-02120592   0.971E-01    0.652E-01
DAV:  78    -0.168924230017E+02    0.30979E-02   -0.23482E-03106944   0.367E-01    0.640E-01
DAV:  79    -0.168764078442E+02    0.16015E-01   -0.63879E-02121936   0.190E+00    0.599E-01
DAV:  80    -0.168752951387E+02    0.11127E-02   -0.19385E-03 79264   0.366E-01    0.590E-01
DAV:  81    -0.168663317788E+02    0.89634E-02   -0.21995E-02123552   0.113E+00    0.596E-01
DAV:  82    -0.168680311765E+02   -0.16994E-02   -0.94873E-04100912   0.301E-01    0.592E-01
DAV:  83    -0.168698304376E+02   -0.17993E-02   -0.84421E-04114656   0.213E-01    0.586E-01
DAV:  84    -0.168604691244E+02    0.93613E-02   -0.30136E-02125568   0.145E+00    0.565E-01
DAV:  85    -0.168573872663E+02    0.30819E-02   -0.42085E-03104928   0.493E-01    0.560E-01
DAV:  86    -0.168554666630E+02    0.19206E-02   -0.10672E-03113312   0.245E-01    0.564E-01
DAV:  87    -0.168451157465E+02    0.10351E-01   -0.29468E-02123696   0.138E+00    0.580E-01
DAV:  88    -0.168455956840E+02   -0.47994E-03   -0.57772E-04 69424   0.245E-01    0.577E-01
DAV:  89    -0.168475359975E+02   -0.19403E-02   -0.95206E-04126016   0.243E-01    0.571E-01
DAV:  90    -0.168485970772E+02   -0.10611E-02   -0.33078E-04118704   0.142E-01    0.569E-01
DAV:  91    -0.168498324199E+02   -0.12353E-02   -0.36418E-04113800   0.155E-01    0.559E-01
DAV:  92    -0.168533853624E+02   -0.35529E-02   -0.34830E-03122544   0.468E-01    0.552E-01
DAV:  93    -0.168543333370E+02   -0.94797E-03   -0.33240E-04103344   0.138E-01    0.552E-01
DAV:  94    -0.168499151663E+02    0.44182E-02   -0.51987E-03119152   0.597E-01    0.561E-01
DAV:  95    -0.168461155708E+02    0.37996E-02   -0.38384E-03122224   0.483E-01    0.571E-01
DAV:  96    -0.168396077985E+02    0.65078E-02   -0.10009E-02124000   0.804E-01    0.592E-01
DAV:  97    -0.168502474715E+02   -0.10640E-01   -0.26226E-02119328   0.138E+00    0.548E-01
DAV:  98    -0.168695272297E+02   -0.19280E-01   -0.10719E-01122000   0.256E+00    0.509E-01
DAV:  99    -0.168642368954E+02    0.52903E-02   -0.10504E-02104976   0.949E-01    0.506E-01
DAV: 100    -0.168627795504E+02    0.14573E-02   -0.78238E-04102616   0.211E-01    0.509E-01
DAV: 101    -0.168726946309E+02   -0.99151E-02   -0.30679E-02122144   0.141E+00    0.525E-01
DAV: 102    -0.168714745723E+02    0.12201E-02   -0.84712E-04 88528   0.285E-01    0.527E-01
DAV: 103    -0.168709856938E+02    0.48888E-03   -0.91675E-05 96208   0.875E-02    0.533E-01
DAV: 104    -0.168732340374E+02   -0.22483E-02   -0.15284E-03120288   0.314E-01    0.535E-01
DAV: 105    -0.168739722651E+02   -0.73823E-03   -0.23187E-04107728   0.116E-01    0.539E-01
DAV: 106    -0.168377802632E+02    0.36192E-01   -0.36237E-01122640   0.486E+00    0.571E-01
DAV: 107    -0.168512993239E+02   -0.13519E-01   -0.40806E-02109056   0.187E+00    0.523E-01
DAV: 108    -0.168589853845E+02   -0.76861E-02   -0.17436E-02113360   0.102E+00    0.508E-01
DAV: 109    -0.168612714816E+02   -0.22861E-02   -0.19735E-03 99664   0.335E-01    0.508E-01
DAV: 110    -0.168552712249E+02    0.60003E-02   -0.10115E-02113552   0.830E-01    0.522E-01
DAV: 111    -0.168568677762E+02   -0.15966E-02   -0.16228E-03106144   0.396E-01    0.473E-01
DAV: 112    -0.168669296862E+02   -0.10062E-01   -0.32919E-02124096   0.148E+00    0.481E-01
DAV: 113    -0.168669009307E+02    0.28755E-04   -0.85457E-04 72544   0.272E-01    0.495E-01
DAV: 114    -0.168659350887E+02    0.96584E-03   -0.28266E-04104816   0.145E-01    0.496E-01
DAV: 115    -0.168664611920E+02   -0.52610E-03   -0.84447E-05105088   0.832E-02    0.494E-01
DAV: 116    -0.168920426669E+02   -0.25581E-01   -0.17815E-01119424   0.315E+00    0.526E-01
DAV: 117    -0.168883743186E+02    0.36683E-02   -0.55389E-03100512   0.748E-01    0.517E-01
DAV: 118    -0.168885505328E+02   -0.17621E-03   -0.10868E-04 69840   0.126E-01    0.519E-01
DAV: 119    -0.168887910770E+02   -0.24054E-03   -0.16601E-05126072   0.267E-02    0.520E-01
DAV: 120    -0.168864739387E+02    0.23171E-02   -0.13210E-03121712   0.283E-01
   1 F= -.16886474E+02 E0= -.16886474E+02  d E =0.000000E+00  mag=    -0.0000
