=========================================
SLURM_JOB_ID = 63599669
SLURM_JOB_NODELIST = lnode49
SLURM_GPUS = 
SLURM_CPUS_ON_NODE = 8
SLURM_JOB_PARTITION = lenovo
SLURM_TASK_PID = 58566
CUDA_VISIBLE_DEVICES = 
==========================================
 running on    8 total cores
 distrk:  each k-point on    8 cores,    1 groups
 distr:  one band on    4 cores,    2 groups
 using from now: INCAR     
 vasp.5.4.4.18Apr17-6-g9f103f2a35 (build Apr 28 2018 00:24:27) complex          
  
 POSCAR found type information on POSCAR  Co
 POSCAR found :  1 types and       2 ions
 scaLAPACK will be used
 LDA part: xc-table for Pade appr. of Perdew
 WARNING: stress and forces are not correct
 POSCAR, INCAR and KPOINTS ok, starting setup
 FFT: planning ...
 WAVECAR not read
 charge-density read from file: unknown                                 
 magnetization density read from file 1
 entering main loop
       N       E                     dE             d eps       ncg     rms          rms(c)
DAV:   1     0.534038081346E+02    0.53404E+02   -0.54323E+03  5850   0.797E+02
DAV:   2    -0.943076357129E+01   -0.62835E+02   -0.56900E+02  5544   0.169E+02
DAV:   3    -0.111423885352E+02   -0.17116E+01   -0.16867E+01  6244   0.337E+01
DAV:   4    -0.111657305886E+02   -0.23342E-01   -0.23335E-01  6838   0.343E+00
DAV:   5    -0.111662649876E+02   -0.53440E-03   -0.53439E-03  6412   0.460E-01
DAV:   6    -0.111662950141E+02   -0.30027E-04   -0.30026E-04  7014   0.837E-02
DAV:   7    -0.111662952533E+02   -0.23921E-06   -0.24018E-06  5110   0.623E-03
   1 F= -.11166295E+02 E0= -.11147556E+02  d E =-.374786E-01  mag=     3.2116
 writing wavefunctions
