=========================================
SLURM_JOB_ID = 63599672
SLURM_JOB_NODELIST = lnode47
SLURM_GPUS = 
SLURM_CPUS_ON_NODE = 8
SLURM_JOB_PARTITION = lenovo
SLURM_TASK_PID = 3324542
CUDA_VISIBLE_DEVICES = 
==========================================
 running on    8 total cores
 distrk:  each k-point on    8 cores,    1 groups
 distr:  one band on    4 cores,    2 groups
 using from now: INCAR     
 vasp.5.4.4.18Apr17-6-g9f103f2a35 (build Apr 28 2018 00:24:27) complex          
  
 POSCAR found type information on POSCAR  Co
 POSCAR found :  1 types and       2 ions
 scaLAPACK will be used
 LDA part: xc-table for Pade appr. of Perdew
 POSCAR, INCAR and KPOINTS ok, starting setup
 FFT: planning ...
 WAVECAR not read
 entering main loop
       N       E                     dE             d eps       ncg     rms          rms(c)
DAV:   1     0.553789140887E+02    0.55379E+02   -0.58172E+03  5890   0.843E+02
DAV:   2    -0.986922822725E+01   -0.65248E+02   -0.60404E+02  5524   0.172E+02
DAV:   3    -0.114799366491E+02   -0.16107E+01   -0.15873E+01  6170   0.329E+01
DAV:   4    -0.115011400173E+02   -0.21203E-01   -0.21198E-01  6560   0.327E+00
DAV:   5    -0.115017139384E+02   -0.57392E-03   -0.57391E-03  6248   0.503E-01    0.239E+01
DAV:   6    -0.128659895278E+02   -0.13643E+01   -0.80578E+00  5864   0.521E+01    0.532E+00
DAV:   7    -0.126584689367E+02    0.20752E+00   -0.11289E+00  6094   0.184E+01    0.306E+00
DAV:   8    -0.126310402166E+02    0.27429E-01   -0.27610E-02  7410   0.231E+00    0.141E+00
DAV:   9    -0.126228525689E+02    0.81876E-02   -0.22575E-03  8178   0.602E-01    0.705E-01
DAV:  10    -0.126193405580E+02    0.35120E-02   -0.46237E-04  6802   0.213E-01    0.789E-02
DAV:  11    -0.126193756008E+02   -0.35043E-04   -0.82024E-05  7356   0.129E-01    0.329E-02
DAV:  12    -0.126193700656E+02    0.55351E-05   -0.64326E-06  6422   0.275E-02    0.165E-02
DAV:  13    -0.126193669060E+02    0.31596E-05   -0.64230E-07  3532   0.101E-02    0.540E-03
DAV:  14    -0.126193671710E+02   -0.26499E-06   -0.36147E-07  3004   0.542E-03
   1 F= -.12619367E+02 E0= -.12600583E+02  d E =-.375692E-01  mag=     3.2247
 writing wavefunctions
