       N       E                     dE             d eps       ncg     rms          rms(c)
DAV:   1     0.292223184201E+03    0.29222E+03   -0.17694E+04 40628   0.229E+03
DAV:   2     0.611572084240E+01   -0.28611E+03   -0.27797E+03 39008   0.536E+02
DAV:   3    -0.763926455696E+01   -0.13755E+02   -0.13651E+02 41164   0.133E+02
DAV:   4    -0.782242734792E+01   -0.18316E+00   -0.18314E+00 41932   0.151E+01
DAV:   5    -0.782711113027E+01   -0.46838E-02   -0.46837E-02 41944   0.225E+00    0.224E+01
DAV:   6    -0.720737453554E+01    0.61974E+00   -0.12037E+01 39924   0.463E+01    0.957E+00
DAV:   7    -0.782120463492E+01   -0.61383E+00   -0.12094E+00 41440   0.117E+01    0.557E+00
DAV:   8    -0.795180819526E+01   -0.13060E+00   -0.18669E-01 42528   0.403E+00    0.263E+00
DAV:   9    -0.806187897432E+01   -0.11007E+00   -0.36961E-01 47264   0.393E+00    0.899E-01
DAV:  10    -0.810280869058E+01   -0.40930E-01   -0.65375E-02 42292   0.198E+00    0.625E-01
DAV:  11    -0.812380781556E+01   -0.20999E-01   -0.31554E-02 43124   0.138E+00    0.394E-01
DAV:  12    -0.813278812541E+01   -0.89803E-02   -0.28240E-02 45564   0.134E+00    0.159E-01
DAV:  13    -0.813355569588E+01   -0.76757E-03   -0.34110E-03 41376   0.507E-01    0.910E-02
DAV:  14    -0.813367702250E+01   -0.12133E-03   -0.43519E-04 40720   0.193E-01    0.433E-02
DAV:  15    -0.813370114290E+01   -0.24120E-04   -0.86444E-05 43660   0.866E-02    0.155E-02
DAV:  16    -0.813367548106E+01    0.25662E-04   -0.55026E-05 45884   0.657E-02    0.921E-03
DAV:  17    -0.813366538673E+01    0.10094E-04   -0.20214E-05 42812   0.292E-02    0.585E-03
DAV:  18    -0.813367428134E+01   -0.88946E-05   -0.20845E-05 47288   0.241E-02    0.261E-03
DAV:  19    -0.813367602755E+01   -0.17462E-05   -0.17538E-06 42828   0.838E-03    0.108E-03
DAV:  20    -0.813367752783E+01   -0.15003E-05   -0.26054E-07 24784   0.291E-03    0.470E-04
DAV:  21    -0.813367876116E+01   -0.12333E-05   -0.35076E-08 19740   0.195E-03    0.302E-04
DAV:  22    -0.813367853019E+01    0.23097E-06   -0.55967E-09 19704   0.962E-04    0.100E-04
DAV:  23    -0.813367828916E+01    0.24104E-06   -0.16028E-09 19676   0.447E-04    0.372E-05
DAV:  24    -0.813367834598E+01   -0.56829E-07   -0.22586E-10 19660   0.206E-04
   1 F= -.81336783E+01 E0= -.81336783E+01  d E =0.000000E+00  mag=    -0.0000
