=========================================
SLURM_JOB_ID = 31881292
SLURM_JOB_NODELIST = lnode24
SLURM_GPUS = 
SLURM_CPUS_ON_NODE = 8
SLURM_JOB_PARTITION = lenovo
SLURM_TASK_PID = 2378946
CUDA_VISIBLE_DEVICES = 
==========================================
 running on    8 total cores
 distrk:  each k-point on    8 cores,    1 groups
 distr:  one band on    4 cores,    2 groups
 using from now: INCAR     
 vasp.5.4.4.18Apr17-6-g9f103f2a35 (build Apr 28 2018 00:24:27) complex          
  
 POSCAR found type information on POSCAR  Eu O 
 POSCAR found :  2 types and       4 ions
 scaLAPACK will be used
 LDA part: xc-table for Pade appr. of Perdew
 generate k-points for:    4    3    4
 POSCAR, INCAR and KPOINTS ok, starting setup
 FFT: planning ...
 WAVECAR not read
 entering main loop
       N       E                     dE             d eps       ncg     rms          rms(c)
DAV:   1     0.431929637911E+03    0.43193E+03   -0.18225E+04  2840   0.349E+03
DAV:   2     0.475778783967E+02   -0.38435E+03   -0.36136E+03  3208   0.413E+02
DAV:   3    -0.372701899261E+02   -0.84848E+02   -0.83162E+02  3944   0.262E+02
DAV:   4    -0.441519555788E+02   -0.68818E+01   -0.64231E+01  4040   0.651E+01
DAV:   5    -0.450147930411E+02   -0.86284E+00   -0.80807E+00  4400   0.186E+01    0.276E+01
DAV:   6    -0.945800199208E+02   -0.49565E+02   -0.76913E+02  3852   0.237E+02    0.112E+02
DAV:   7    -0.272709190247E+02    0.67309E+02   -0.49537E+02  3712   0.124E+02    0.275E+01
DAV:   8    -0.410444304961E+02   -0.13774E+02   -0.10605E+02  3700   0.635E+01    0.209E+01
DAV:   9    -0.414054937398E+02   -0.36106E+00   -0.94385E+00  3808   0.219E+01    0.133E+01
DAV:  10    -0.416390988227E+02   -0.23361E+00   -0.22617E+00  4176   0.115E+01    0.844E+00
DAV:  11    -0.417095453741E+02   -0.70447E-01   -0.42685E-01  4472   0.491E+00    0.571E+00
DAV:  12    -0.416479005477E+02    0.61645E-01   -0.94301E-01  3940   0.834E+00    0.192E+00
DAV:  13    -0.416393401686E+02    0.85604E-02   -0.24664E-01  4348   0.488E+00    0.145E+00
DAV:  14    -0.416384912467E+02    0.84892E-03   -0.20829E-02  3896   0.136E+00    0.140E+00
DAV:  15    -0.416340667383E+02    0.44245E-02   -0.43026E-02  3464   0.156E+00    0.954E-01
DAV:  16    -0.416339732771E+02    0.93461E-04   -0.17042E-02  4340   0.117E+00    0.596E-01
DAV:  17    -0.416315948648E+02    0.23784E-02   -0.90929E-03  3432   0.859E-01    0.317E-01
DAV:  18    -0.416313720617E+02    0.22280E-03   -0.12387E-03  4600   0.373E-01    0.183E-01
DAV:  19    -0.416312751755E+02    0.96886E-04   -0.33638E-04  3664   0.192E-01    0.117E-01
DAV:  20    -0.416312249863E+02    0.50189E-04   -0.41560E-04  4360   0.216E-01    0.326E-02
DAV:  21    -0.416312003760E+02    0.24610E-04   -0.16748E-04  3792   0.117E-01    0.455E-02
DAV:  22    -0.416312041950E+02   -0.38190E-05   -0.33818E-05  3932   0.443E-02    0.183E-02
DAV:  23    -0.416312054691E+02   -0.12740E-05   -0.29509E-06  2344   0.145E-02    0.111E-02
DAV:  24    -0.416312055726E+02   -0.10357E-06   -0.93976E-07  1664   0.144E-02
   1 F= -.41631206E+02 E0= -.41638453E+02  d E =0.217430E-01  mag=     0.0000
