=========================================
SLURM_JOB_ID = 30545223
SLURM_JOB_NODELIST = lnode12
SLURM_GPUS = 
SLURM_CPUS_ON_NODE = 8
SLURM_JOB_PARTITION = lenovo
SLURM_TASK_PID = 3865484
CUDA_VISIBLE_DEVICES = 
==========================================
 running on    8 total cores
 distrk:  each k-point on    8 cores,    1 groups
 distr:  one band on    4 cores,    2 groups
 using from now: INCAR     
 vasp.5.4.4.18Apr17-6-g9f103f2a35 (build Apr 28 2018 00:24:27) complex          
  
 POSCAR found type information on POSCAR  Eu O 
 POSCAR found :  2 types and       4 ions
 scaLAPACK will be used
 LDA part: xc-table for Pade appr. of Perdew
 POSCAR, INCAR and KPOINTS ok, starting setup
 FFT: planning ...
 WAVECAR not read
 entering main loop
       N       E                     dE             d eps       ncg     rms          rms(c)
DAV:   1     0.450972662862E+03    0.45097E+03   -0.18179E+04  2064   0.352E+03
DAV:   2     0.618365834833E+02   -0.38914E+03   -0.36428E+03  2400   0.426E+02
DAV:   3    -0.353159705426E+02   -0.97153E+02   -0.94970E+02  3072   0.267E+02
DAV:   4    -0.440474780076E+02   -0.87315E+01   -0.82884E+01  3112   0.728E+01
DAV:   5    -0.450305104088E+02   -0.98303E+00   -0.89926E+00  3316   0.205E+01    0.277E+01
DAV:   6    -0.969787831781E+02   -0.51948E+02   -0.80150E+02  3024   0.246E+02    0.113E+02
DAV:   7    -0.289204380987E+02    0.68058E+02   -0.48527E+02  2752   0.123E+02    0.280E+01
DAV:   8    -0.413763686988E+02   -0.12456E+02   -0.95291E+01  2824   0.612E+01    0.216E+01
DAV:   9    -0.414371971413E+02   -0.60828E-01   -0.82688E+00  2812   0.203E+01    0.135E+01
DAV:  10    -0.415788456581E+02   -0.14165E+00   -0.24657E+00  3248   0.118E+01    0.851E+00
DAV:  11    -0.417152297475E+02   -0.13638E+00   -0.41658E-01  3368   0.511E+00    0.561E+00
DAV:  12    -0.416532972506E+02    0.61932E-01   -0.96359E-01  3040   0.894E+00    0.185E+00
DAV:  13    -0.416233741702E+02    0.29923E-01   -0.25719E-01  3104   0.414E+00    0.101E+00
DAV:  14    -0.416246891639E+02   -0.13150E-02   -0.17809E-02  3008   0.102E+00    0.863E-01
DAV:  15    -0.416233146498E+02    0.13745E-02   -0.18678E-02  2940   0.114E+00    0.631E-01
DAV:  16    -0.416211373396E+02    0.21773E-02   -0.59510E-03  3316   0.820E-01    0.556E-01
DAV:  17    -0.416201676061E+02    0.96973E-03   -0.39474E-03  3128   0.509E-01    0.550E-01
DAV:  18    -0.416202699301E+02   -0.10232E-03   -0.82188E-04  3556   0.276E-01    0.372E-01
DAV:  19    -0.416204927357E+02   -0.22281E-03   -0.11331E-03  3336   0.273E-01    0.133E-01
DAV:  20    -0.416205468209E+02   -0.54085E-04   -0.30401E-04  3552   0.134E-01    0.555E-02
DAV:  21    -0.416205242442E+02    0.22577E-04   -0.41929E-05  2584   0.457E-02    0.419E-02
DAV:  22    -0.416205202987E+02    0.39455E-05   -0.18403E-05  2912   0.269E-02    0.213E-02
DAV:  23    -0.416205178355E+02    0.24631E-05   -0.32213E-05  2464   0.389E-02    0.108E-02
DAV:  24    -0.416205177111E+02    0.12447E-06   -0.26423E-06  1576   0.198E-02
   1 F= -.41620518E+02 E0= -.41628086E+02  d E =0.227046E-01  mag=     0.0000
