 vasp.5.4.4.18Apr17-6-g9f103f2a35 (build Apr 28 2018 00:24:27) complex          
  
 executed on             LinuxIFC date 2021.03.25  01:51:12
 running on    8 total cores
 distrk:  each k-point on    8 cores,    1 groups
 distr:  one band on NCORES_PER_BAND=   4 cores,    2 groups


--------------------------------------------------------------------------------------------------------


 INCAR:
 POTCAR:    PAW_PBE Eu 23Dec2003                  
 POTCAR:    PAW_PBE O 08Apr2002                   
 POTCAR:    PAW_PBE Eu 23Dec2003                  
   SHA256 =  ed303d27e7c5191953f9b15539336e6f36d9037c1d2e92e80c13d733697cb93d Eu
   COPYR  = (c) Copyright 23Dec2003 Georg Kresse                                
   COPYR  = This file is part of the software VASP. Any use, copying, and all ot
   COPYR  = If you do not have a valid VASP license, you may not use, copy or di
   VRHFIN =Eu : [core=Kr4d]                                                     
   LEXCH  = PE                                                                  
   EATOM  =  2619.8085 eV,  192.5505 Ry                                         
                                                                                
   TITEL  = PAW_PBE Eu 23Dec2003                                                
   LULTRA =        F    use ultrasoft PP ?                                      
   IUNSCR =        1    unscreen: 0-lin 1-nonlin 2-no                           
   RPACOR =    2.300    partial core radius                                     
   POMASS =  151.965; ZVAL   =   17.000    mass and valenz                      
   RCORE  =    2.800    outmost cutoff radius                                   
   RWIGS  =    2.800; RWIGS  =    1.482    wigner-seitz radius (au A)           
   ENMAX  =  249.668; ENMIN  =  187.251 eV                                      
   RCLOC  =    2.308    cutoff for local pot                                    
   LCOR   =        T    correct aug charges                                     
   LPAW   =        T    paw PP                                                  
   EAUG   =  549.628                                                            
   DEXC   =    0.000                                                            
   RMAX   =    2.870    core radius for proj-oper                               
   RAUG   =    1.300    factor for augmentation sphere                          
   RDEP   =    2.887    radius for radial grids                                 
   RDEPT  =    2.221    core radius for aug-charge                              
                                                                                
   Atomic configuration                                                         
   14 entries                                                                   
     n  l   j            E        occ.                                          
     1  0  0.50    -48354.7667   2.0000                                         
     2  0  0.50     -7939.6472   2.0000                                         
     2  1  1.50     -7072.6637   6.0000                                         
     3  0  0.50     -1747.1875   2.0000                                         
     3  1  1.50     -1477.5221   6.0000                                         
     3  2  2.50     -1117.4686  10.0000                                         
     4  0  0.50      -346.8682   2.0000                                         
     4  1  1.50      -258.1962   6.0000                                         
     4  2  2.50      -134.7724  10.0000                                         
     5  0  0.50       -44.6510   2.0000                                         
     6  0  0.50        -3.6227   2.0000                                         
     5  1  1.50       -23.7639   6.0000                                         
     5  2  2.50        -1.3130   0.0000                                         
     4  3  2.50        -2.7310   7.0000                                         
   Description                                                                  
     l       E           TYP  RCUT    TYP  RCUT                                 
     0    -44.6510453     23  2.400                                             
     0     -3.6226685     23  2.400                                             
     1    -23.7638687     23  2.400                                             
     1     27.2116520     23  2.400                                             
     2     -1.3129622     23  2.500                                             
     2     13.6058260     23  2.500                                             
     3     -2.7309948     23  2.800                                             
     3     -3.4014565     23  2.800                                             
  local pseudopotential read in
  partial core-charges read in
  partial kinetic energy density read in
  atomic valenz-charges read in
  non local Contribution for L=           0  read in
    real space projection operators read in
  non local Contribution for L=           0  read in
    real space projection operators read in
  non local Contribution for L=           1  read in
    real space projection operators read in
  non local Contribution for L=           1  read in
    real space projection operators read in
  non local Contribution for L=           2  read in
    real space projection operators read in
  non local Contribution for L=           2  read in
    real space projection operators read in
  non local Contribution for L=           3  read in
    real space projection operators read in
  non local Contribution for L=           3  read in
    real space projection operators read in
    PAW grid and wavefunctions read in
 
   number of l-projection  operators is LMAX  =           8
   number of lm-projection operators is LMMAX =          32
 
 POTCAR:    PAW_PBE O 08Apr2002                   
   SHA256 =  818f92134a0a090dccd8ba1447fa70422a3b330e708bb4f08108d8ae51209ddf O/
   COPYR  = (c) Copyright 08Apr2002 Georg Kresse                                
   COPYR  = This file is part of the software VASP. Any use, copying, and all ot
   COPYR  = If you do not have a valid VASP license, you may not use, copy or di
   VRHFIN =O: s2p4                                                              
   LEXCH  = PE                                                                  
   EATOM  =   432.3788 eV,   31.7789 Ry                                         
                                                                                
   TITEL  = PAW_PBE O 08Apr2002                                                 
   LULTRA =        F    use ultrasoft PP ?                                      
   IUNSCR =        1    unscreen: 0-lin 1-nonlin 2-no                           
   RPACOR =    1.200    partial core radius                                     
   POMASS =   16.000; ZVAL   =    6.000    mass and valenz                      
   RCORE  =    1.520    outmost cutoff radius                                   
   RWIGS  =    1.550; RWIGS  =    0.820    wigner-seitz radius (au A)           
   ENMAX  =  400.000; ENMIN  =  300.000 eV                                      
   ICORE  =        2    local potential                                         
   LCOR   =        T    correct aug charges                                     
   LPAW   =        T    paw PP                                                  
   EAUG   =  605.392                                                            
   DEXC   =    0.000                                                            
   RMAX   =    1.553    core radius for proj-oper                               
   RAUG   =    1.300    factor for augmentation sphere                          
   RDEP   =    1.550    radius for radial grids                                 
   RDEPT  =    1.329    core radius for aug-charge                              
                                                                                
   Atomic configuration                                                         
    4 entries                                                                   
     n  l   j            E        occ.                                          
     1  0  0.50      -514.6923   2.0000                                         
     2  0  0.50       -23.9615   2.0000                                         
     2  1  0.50        -9.0305   4.0000                                         
     3  2  1.50        -9.5241   0.0000                                         
   Description                                                                  
     l       E           TYP  RCUT    TYP  RCUT                                 
     0    -23.9615318     23  1.200                                             
     0     -9.5240782     23  1.200                                             
     1     -9.0304911     23  1.520                                             
     1      8.1634956     23  1.520                                             
     2     -9.5240782      7  1.500                                             
  local pseudopotential read in
  partial core-charges read in
  partial kinetic energy density read in
  kinetic energy density of atom read in
  atomic valenz-charges read in
  non local Contribution for L=           0  read in
    real space projection operators read in
  non local Contribution for L=           0  read in
    real space projection operators read in
  non local Contribution for L=           1  read in
    real space projection operators read in
  non local Contribution for L=           1  read in
    real space projection operators read in
    PAW grid and wavefunctions read in
 
   number of l-projection  operators is LMAX  =           4
   number of lm-projection operators is LMMAX =           8
 
  PAW_PBE Eu 23Dec2003                  :
 energy of atom  1       EATOM=-2619.8085
 kinetic energy error for atom=    0.0019 (will be added to EATOM!!)
  PAW_PBE O 08Apr2002                   :
 energy of atom  2       EATOM= -432.3788
 kinetic energy error for atom=    0.0224 (will be added to EATOM!!)
 
 
 POSCAR: Eu1 O1 str #: 3                         
  positions in direct lattice
  No initial velocities read in
 exchange correlation table for  LEXCH =        8
   RHO(1)=    0.500       N(1)  =     2000
   RHO(2)=  100.500       N(2)  =     4000
 


--------------------------------------------------------------------------------------------------------


 ion  position               nearest neighbor table
   1  0.000  0.000  0.000-   4 2.54   4 2.54   4 2.54   4 2.54   3 2.54   3 2.54
   2  0.500  0.500  0.500-   3 2.54   3 2.54   3 2.54   3 2.54   4 2.54   4 2.54
   3  1.000  0.500  1.000-   2 2.54   2 2.54   2 2.54   2 2.54   1 2.54   1 2.54
   4  0.500  0.000  0.500-   1 2.54   1 2.54   1 2.54   1 2.54   2 2.54   2 2.54
 
  LATTYP: Found a simple monoclinic cell.
 ALAT       =     6.2226840220
 B/A-ratio  =     0.5773350008
 C/A-ratio  =     1.7320409046
 COS(beta)  =    -0.9622517837
  
  Lattice vectors:
  
 A1 = (  -5.3890386000,  -1.0371167000,  -2.9333340000)
 A2 = (   1.7962526000,  -1.0371167000,  -2.9333340000)
 A3 = (   8.9816927000,  -1.0370457000,   5.8666680000)


Analysis of symmetry for initial positions (statically):
=====================================================================
 Subroutine PRICEL returns following result:
 
  LATTYP: Found a trigonal (rhomboedric) cell.
 ALAT       =     3.5926389896
 COS(alpha) =     0.5000180940
  
  Lattice vectors:
  
 A1 = (  -1.7963845000,  -3.1112791000,   0.0000000000)
 A2 = (  -3.5926456000,   0.0000000000,   0.0000000000)
 A3 = (  -1.7963930000,  -1.0371167000,  -2.9333340000)
 
   2 primitive cells build up your supercell.
 

 Routine SETGRP: Setting up the symmetry group for a 
 simple monoclinic supercell.


 Subroutine GETGRP returns: Found  4 space group operations
 (whereof  4 operations were pure point group operations)
 out of a pool of  4 trial point group operations.


The static configuration has the point symmetry C_2h.


Analysis of symmetry for dynamics (positions and initial velocities):
=====================================================================
 Subroutine PRICEL returns following result:
 
  LATTYP: Found a trigonal (rhomboedric) cell.
 ALAT       =     3.5926389896
 COS(alpha) =     0.5000180940
  
  Lattice vectors:
  
 A1 = (  -1.7963845000,  -3.1112791000,   0.0000000000)
 A2 = (  -3.5926456000,   0.0000000000,   0.0000000000)
 A3 = (  -1.7963930000,  -1.0371167000,  -2.9333340000)
 
   2 primitive cells build up your supercell.
 

 Routine SETGRP: Setting up the symmetry group for a 
 simple monoclinic supercell.


 Subroutine GETGRP returns: Found  4 space group operations
 (whereof  4 operations were pure point group operations)
 out of a pool of  4 trial point group operations.


The dynamic configuration has the point symmetry C_2h.


Analysis of structural, dynamic, and magnetic symmetry:
=====================================================================
 Subroutine PRICEL returns following result:
 
  LATTYP: Found a trigonal (rhomboedric) cell.
 ALAT       =     3.5926389896
 COS(alpha) =     0.5000180940
  
  Lattice vectors:
  
 A1 = (  -1.7963845000,  -3.1112791000,   0.0000000000)
 A2 = (  -3.5926456000,   0.0000000000,   0.0000000000)
 A3 = (  -1.7963930000,  -1.0371167000,  -2.9333340000)
 
   2 primitive cells build up your supercell.
 

 Routine SETGRP: Setting up the symmetry group for a 
 simple monoclinic supercell.


 Subroutine GETGRP returns: Found  4 space group operations
 (whereof  4 operations were pure point group operations)
 out of a pool of  4 trial point group operations.


The magnetic configuration has the point symmetry C_2h.


 Subroutine INISYM returns: Found  4 space group operations
 (whereof  4 operations are pure point group operations),
 and found     2 'primitive' translations

 
 

Automatic generation of k-mesh.
 generate k-points for:    4    3    4
Space group operators:
 irot       det(A)        alpha          n_x          n_y          n_z        tau_x        tau_y        tau_z
    1     1.000000     0.000001     1.000000     0.000000     0.000000     0.000000     0.000000     0.000000
    2    -1.000000     0.000001     1.000000     0.000000     0.000000     0.000000     0.000000     0.000000
    3     1.000000   179.999999    -0.499990     0.288683     0.816500     0.000000     0.000000     0.000000
    4    -1.000000   179.999999    -0.499990     0.288683     0.816500     0.000000     0.000000     0.000000
 
 Subroutine IBZKPT returns following result:
 ===========================================
 
 Found     21 irreducible k-points:
 
 Following reciprocal coordinates:
            Coordinates               Weight
  0.000000  0.000000  0.000000      1.000000
  0.250000  0.000000  0.000000      2.000000
  0.500000  0.000000  0.000000      1.000000
  0.000000  0.333333  0.000000      2.000000
  0.250000  0.333333  0.000000      4.000000
  0.500000  0.333333  0.000000      2.000000
  0.000000 -0.000000  0.250000      2.000000
  0.250000  0.000000  0.250000      4.000000
  0.500000  0.000000  0.250000      2.000000
 -0.000000  0.333333  0.250000      2.000000
  0.250000  0.333333  0.250000      4.000000
  0.500000  0.333333  0.250000      2.000000
  0.000000 -0.333333  0.250000      2.000000
  0.250000 -0.333333  0.250000      4.000000
  0.500000 -0.333333  0.250000      2.000000
  0.000000 -0.000000  0.500000      1.000000
  0.250000  0.000000  0.500000      2.000000
  0.500000  0.000000  0.500000      1.000000
  0.000000  0.333333  0.500000      2.000000
  0.250000  0.333333  0.500000      4.000000
  0.500000  0.333333  0.500000      2.000000
 
 Following cartesian coordinates:
            Coordinates               Weight
  0.000000  0.000000  0.000000      1.000000
 -0.034793  0.020089  0.056819      2.000000
 -0.069587  0.040178  0.113637      1.000000
  0.046391 -0.026785  0.037878      2.000000
  0.011598 -0.006696  0.094697      4.000000
 -0.023196  0.013393  0.151515      2.000000
  0.034793  0.060264 -0.000001      2.000000
  0.000000  0.080353  0.056818      4.000000
 -0.034793  0.100442  0.113636      2.000000
  0.081184  0.033479  0.037877      2.000000
  0.046391  0.053568  0.094696      4.000000
  0.011598  0.073657  0.151514      2.000000
 -0.011598  0.087049 -0.037879      2.000000
 -0.046391  0.107138  0.018939      4.000000
 -0.081184  0.127227  0.075758      2.000000
  0.069587  0.120528 -0.000002      1.000000
  0.034793  0.140617  0.056816      2.000000
  0.000000  0.160706  0.113635      1.000000
  0.115978  0.093743  0.037876      2.000000
  0.081184  0.113832  0.094695      4.000000
  0.046391  0.133920  0.151513      2.000000
 


--------------------------------------------------------------------------------------------------------




 Dimension of arrays:
   k-points           NKPTS =     21   k-points in BZ     NKDIM =     21   number of bands    NBANDS=     28
   number of dos      NEDOS =    301   number of ions     NIONS =      4
   non local maximal  LDIM  =      8   non local SUM 2l+1 LMDIM =     32
   total plane-waves  NPLWV =  11200
   max r-space proj   IRMAX =      1   max aug-charges    IRDMAX=   9962
   dimension x,y,z NGX =    20 NGY =   28 NGZ =   20
   dimension x,y,z NGXF=    40 NGYF=   56 NGZF=   40
   support grid    NGXF=    40 NGYF=   56 NGZF=   40
   ions per type =               2   2
   NGX,Y,Z   is equivalent  to a cutoff of   9.25,  9.16,  9.25 a.u.
   NGXF,Y,Z  is equivalent  to a cutoff of  18.51, 18.32, 18.51 a.u.

 SYSTEM =  "EuO"                                   
 POSCAR =  Eu1 O1 str #: 3                         

 Startparameter for this run:
   NWRITE =      2    write-flag & timer
   PREC   = normal    normal or accurate (medium, high low for compatibility)
   ISTART =      0    job   : 0-new  1-cont  2-samecut
   ICHARG =      2    charge: 1-file 2-atom 10-const
   ISPIN  =      2    spin polarized calculation?
   LNONCOLLINEAR =      F non collinear calculations
   LSORBIT =      F    spin-orbit coupling
   INIWAV =      1    electr: 0-lowe 1-rand  2-diag
   LASPH  =      F    aspherical Exc in radial PAW
   METAGGA=      F    non-selfconsistent MetaGGA calc.

 Electronic Relaxation 1
   ENCUT  =  500.0 eV  36.75 Ry    6.06 a.u.   6.55  9.26  6.55*2*pi/ulx,y,z
   ENINI  =  500.0     initial cutoff
   ENAUG  =  605.4 eV  augmentation charge cutoff
   NELM   =     60;   NELMIN=  2; NELMDL= -5     # of ELM steps 
   EDIFF  = 0.1E-05   stopping-criterion for ELM
   LREAL  =      F    real-space projection
   NLSPLINE    = F    spline interpolate recip. space projectors
   LCOMPAT=      F    compatible to vasp.4.4
   GGA_COMPAT  = T    GGA compatible to vasp.4.4-vasp.4.6
   LMAXPAW     = -100 max onsite density
   LMAXMIX     =    2 max onsite mixed and CHGCAR
   VOSKOWN=      0    Vosko Wilk Nusair interpolation
   ROPT   =    0.00000   0.00000
 Ionic relaxation
   EDIFFG = 0.1E-04   stopping-criterion for IOM
   NSW    =      0    number of steps for IOM
   NBLOCK =      1;   KBLOCK =      1    inner block; outer block 
   IBRION =     -1    ionic relax: 0-MD 1-quasi-New 2-CG
   NFREE  =      1    steps in history (QN), initial steepest desc. (CG)
   ISIF   =      2    stress and relaxation
   IWAVPR =     10    prediction:  0-non 1-charg 2-wave 3-comb
   ISYM   =      2    0-nonsym 1-usesym 2-fastsym
   LCORR  =      T    Harris-Foulkes like correction to forces

   POTIM  = 0.5000    time-step for ionic-motion
   TEIN   =    0.0    initial temperature
   TEBEG  =    0.0;   TEEND  =   0.0 temperature during run
   SMASS  =  -3.00    Nose mass-parameter (am)
   estimated Nose-frequenzy (Omega)   =  0.10E-29 period in steps =****** mass=  -0.295E-27a.u.
   SCALEE = 1.0000    scale energy and forces
   NPACO  =    256;   APACO  = 16.0  distance and # of slots for P.C.
   PSTRESS=    0.0 pullay stress

  Mass of Ions in am
   POMASS = 151.97 16.00
  Ionic Valenz
   ZVAL   =  17.00  6.00
  Atomic Wigner-Seitz radii
   RWIGS  =  -1.00 -1.00
  virtual crystal weights 
   VCA    =   1.00  1.00
   NELECT =      46.0000    total number of electrons
   NUPDOWN=      -1.0000    fix difference up-down

 DOS related values:
   EMIN   =  10.00;   EMAX   =-10.00  energy-range for DOS
   EFERMI =   0.00
   ISMEAR =     1;   SIGMA  =   0.10  broadening in eV -4-tet -1-fermi 0-gaus

 Electronic relaxation 2 (details)
   IALGO  =     38    algorithm
   LDIAG  =      T    sub-space diagonalisation (order eigenvalues)
   LSUBROT=      F    optimize rotation matrix (better conditioning)
   TURBO    =      0    0=normal 1=particle mesh
   IRESTART =      0    0=no restart 2=restart with 2 vectors
   NREBOOT  =      0    no. of reboots
   NMIN     =      0    reboot dimension
   EREF     =   0.00    reference energy to select bands
   IMIX   =      4    mixing-type and parameters
     AMIX     =   0.40;   BMIX     =  1.00
     AMIX_MAG =   1.60;   BMIX_MAG =  1.00
     AMIN     =   0.10
     WC   =   100.;   INIMIX=   1;  MIXPRE=   1;  MAXMIX= -45

 Intra band minimization:
   WEIMIN = 0.0000     energy-eigenvalue tresh-hold
   EBREAK =  0.89E-08  absolut break condition
   DEPER  =   0.30     relativ break condition  

   TIME   =   0.40     timestep for ELM

  volume/ion in A,a.u.               =      16.39       110.63
  Fermi-wavevector in a.u.,A,eV,Ry     =   1.454607  2.748810 28.788335  2.115883
  Thomas-Fermi vector in A             =   2.571738
 
 Write flags
   LWAVE        =      F    write WAVECAR
   LDOWNSAMPLE  =      F    k-point downsampling of WAVECAR
   LCHARG       =      F    write CHGCAR
   LVTOT        =      F    write LOCPOT, total local potential
   LVHAR        =      F    write LOCPOT, Hartree potential only
   LELF         =      F    write electronic localiz. function (ELF)
   LORBIT       =     11    0 simple, 1 ext, 2 COOP (PROOUT), +10 PAW based schemes


 Dipole corrections
   LMONO  =      F    monopole corrections only (constant potential shift)
   LDIPOL =      F    correct potential (dipole corrections)
   IDIPOL =      0    1-x, 2-y, 3-z, 4-all directions 
   EPSILON=  1.0000000 bulk dielectric constant

 Exchange correlation treatment:
   GGA     =    --    GGA type
   LEXCH   =     8    internal setting for exchange type
   VOSKOWN=      0    Vosko Wilk Nusair interpolation
   LHFCALC =     F    Hartree Fock is set to
   LHFONE  =     F    Hartree Fock one center treatment
   AEXX    =    0.0000 exact exchange contribution

 Linear response parameters
   LEPSILON=     F    determine dielectric tensor
   LRPA    =     F    only Hartree local field effects (RPA)
   LNABLA  =     F    use nabla operator in PAW spheres
   LVEL    =     F    velocity operator in full k-point grid
   LINTERFAST=   F  fast interpolation
   KINTER  =     0    interpolate to denser k-point grid
   CSHIFT  =0.1000    complex shift for real part using Kramers Kronig
   OMEGAMAX=  -1.0    maximum frequency
   DEG_THRESHOLD= 0.2000000E-02 threshold for treating states as degnerate
   RTIME   =   -0.100 relaxation time in fs
  (WPLASMAI=    0.000 imaginary part of plasma frequency in eV, 0.658/RTIME)
   DFIELD  = 0.0000000 0.0000000 0.0000000 field for delta impulse in time
 
 Orbital magnetization related:
   ORBITALMAG=     F  switch on orbital magnetization
   LCHIMAG   =     F  perturbation theory with respect to B field
   DQ        =  0.001000  dq finite difference perturbation B field
   LLRAUG    =     F  two centre corrections for induced B field



--------------------------------------------------------------------------------------------------------


 Static calculation
 charge density and potential will be updated during run
 spin polarized calculation
 Variant of blocked Davidson
 Davidson routine will perform the subspace rotation
 perform sub-space diagonalisation
    after iterative eigenvector-optimisation
 modified Broyden-mixing scheme, WC =      100.0
 initial mixing is a Kerker type mixing with AMIX =  0.4000 and BMIX =      1.0000
 Hartree-type preconditioning will be used
 using additional bands            5
 reciprocal scheme for non local part
 use partial core corrections
 calculate Harris-corrections to forces 
   (improved forces if not selfconsistent)
 use gradient corrections 
 use of overlap-Matrix (Vanderbilt PP)
 Methfessel and Paxton  Order N= 1 SIGMA  =   0.10


--------------------------------------------------------------------------------------------------------


  energy-cutoff  :      500.00
  volume of cell :       65.58
      direct lattice vectors                 reciprocal lattice vectors
    -1.796252600  1.037116700  2.933334000    -0.139173204  0.080355564  0.227274382
     3.592654100 -2.074162400  2.933334000     0.139173204 -0.080355564  0.113634631
     1.796384500  3.111279100  0.000000000     0.139173204  0.241055652 -0.000004300

  length of vectors
     3.592573285  5.080724505  3.592638990     0.278352011  0.196822323  0.278346921


 
 k-points in units of 2pi/SCALE and weight: read from INCAR                         
   0.00000000  0.00000000  0.00000000       0.021
  -0.03479330  0.02008889  0.05681860       0.042
  -0.06958660  0.04017778  0.11363719       0.021
   0.04639107 -0.02678519  0.03787821       0.042
   0.01159777 -0.00669630  0.09469681       0.083
  -0.02319553  0.01339259  0.15151540       0.042
   0.03479330  0.06026391 -0.00000107       0.042
   0.00000000  0.08035280  0.05681752       0.083
  -0.03479330  0.10044170  0.11363612       0.042
   0.08118437  0.03347873  0.03787714       0.042
   0.04639107  0.05356762  0.09469573       0.083
   0.01159777  0.07365651  0.15151433       0.042
  -0.01159777  0.08704910 -0.03787929       0.042
  -0.04639107  0.10713799  0.01893931       0.083
  -0.08118437  0.12722688  0.07575791       0.042
   0.06958660  0.12052783 -0.00000215       0.021
   0.03479330  0.14061672  0.05681645       0.042
   0.00000000  0.16070561  0.11363504       0.021
   0.11597767  0.09374264  0.03787606       0.042
   0.08118437  0.11383153  0.09469466       0.083
   0.04639107  0.13392042  0.15151325       0.042
 
 k-points in reciprocal lattice and weights: read from INCAR                         
   0.00000000  0.00000000  0.00000000       0.021
   0.25000000  0.00000000  0.00000000       0.042
   0.50000000  0.00000000  0.00000000       0.021
   0.00000000  0.33333333  0.00000000       0.042
   0.25000000  0.33333333  0.00000000       0.083
   0.50000000  0.33333333  0.00000000       0.042
   0.00000000 -0.00000000  0.25000000       0.042
   0.25000000  0.00000000  0.25000000       0.083
   0.50000000  0.00000000  0.25000000       0.042
  -0.00000000  0.33333333  0.25000000       0.042
   0.25000000  0.33333333  0.25000000       0.083
   0.50000000  0.33333333  0.25000000       0.042
   0.00000000 -0.33333333  0.25000000       0.042
   0.25000000 -0.33333333  0.25000000       0.083
   0.50000000 -0.33333333  0.25000000       0.042
   0.00000000 -0.00000000  0.50000000       0.021
   0.25000000  0.00000000  0.50000000       0.042
   0.50000000  0.00000000  0.50000000       0.021
   0.00000000  0.33333333  0.50000000       0.042
   0.25000000  0.33333333  0.50000000       0.083
   0.50000000  0.33333333  0.50000000       0.042
 
 position of ions in fractional coordinates (direct lattice) 
   0.00000000  0.00000000  0.00000000
   0.50000000  0.50000000  0.50000000
   0.99999999  0.50000004  1.00000000
   0.49999999  0.00000004  0.50000000
 
 position of ions in cartesian coordinates  (Angst):
   0.00000000  0.00000000  0.00000000
   1.79639300  1.03711670  2.93333400
   1.79645910  3.11131450  4.40000110
   0.00006610  2.07419780  1.46666710
 


--------------------------------------------------------------------------------------------------------


 k-point  1 :   0.0000 0.0000 0.0000  plane waves:    1675
 k-point  2 :   0.2500 0.0000 0.0000  plane waves:    1661
 k-point  3 :   0.5000 0.0000 0.0000  plane waves:    1674
 k-point  4 :   0.0000 0.3333 0.0000  plane waves:    1690
 k-point  5 :   0.2500 0.3333 0.0000  plane waves:    1663
 k-point  6 :   0.5000 0.3333 0.0000  plane waves:    1658
 k-point  7 :   0.0000-0.0000 0.2500  plane waves:    1661
 k-point  8 :   0.2500 0.0000 0.2500  plane waves:    1681
 k-point  9 :   0.5000 0.0000 0.2500  plane waves:    1672
 k-point 10 :  -0.0000 0.3333 0.2500  plane waves:    1663
 k-point 11 :   0.2500 0.3333 0.2500  plane waves:    1666
 k-point 12 :   0.5000 0.3333 0.2500  plane waves:    1668
 k-point 13 :   0.0000-0.3333 0.2500  plane waves:    1663
 k-point 14 :   0.2500-0.3333 0.2500  plane waves:    1666
 k-point 15 :   0.5000-0.3333 0.2500  plane waves:    1668
 k-point 16 :   0.0000-0.0000 0.5000  plane waves:    1674
 k-point 17 :   0.2500 0.0000 0.5000  plane waves:    1672
 k-point 18 :   0.5000 0.0000 0.5000  plane waves:    1612
 k-point 19 :   0.0000 0.3333 0.5000  plane waves:    1658
 k-point 20 :   0.2500 0.3333 0.5000  plane waves:    1668
 k-point 21 :   0.5000 0.3333 0.5000  plane waves:    1664

 maximum and minimum number of plane-waves per node :       432      400

 maximum number of plane-waves:      1690
 maximum index in each direction: 
   IXMAX=    6   IYMAX=    9   IZMAX=    6
   IXMIN=   -7   IYMIN=   -9   IZMIN=   -7


 parallel 3D FFT for wavefunctions:
    minimum data exchange during FFTs selected (reduces bandwidth)
 parallel 3D FFT for charge:
    minimum data exchange during FFTs selected (reduces bandwidth)


 total amount of memory used by VASP MPI-rank0    40654. kBytes
=======================================================================

   base      :      30000. kBytes
   nonl-proj :       4607. kBytes
   fftplans  :        481. kBytes
   grid      :       1160. kBytes
   one-center:         98. kBytes
   wavefun   :       4308. kBytes
 
     INWAV:  cpu time    0.0000: real time    0.0001
 Broyden mixing: mesh for mixing (old mesh)
   NGX = 13   NGY = 19   NGZ = 13
  (NGX  = 40   NGY  = 56   NGZ  = 40)
  gives a total of   3211 points

 initial charge density was supplied:
 charge density of overlapping atoms calculated
 number of electron      46.0000000 magnetization       0.0000000
 keeping initial charge density in first step


--------------------------------------------------------------------------------------------------------


 Maximum index for augmentation-charges         1239 (set IRDMAX)


--------------------------------------------------------------------------------------------------------


 First call to EWALD:  gamma=   0.440
 Maximum number of real-space cells 3x 2x 3
 Maximum number of reciprocal cells 3x 3x 3

    FEWALD:  cpu time    0.0012: real time    0.0012


--------------------------------------- Iteration      1(   1)  ---------------------------------------


    POTLOK:  cpu time    0.0200: real time    0.0260
    SETDIJ:  cpu time    0.0116: real time    0.0116
     EDDAV:  cpu time    0.5924: real time    0.6024
       DOS:  cpu time    0.0015: real time    0.0015
    --------------------------------------------
      LOOP:  cpu time    0.6255: real time    0.6415

 eigenvalue-minimisations  :  2840
 total energy-change (2. order) : 0.4319296E+03  (-0.1822542E+04)
 number of electron      46.0000000 magnetization       0.0000000
 augmentation part       46.0000000 magnetization       0.0000000

 Free energy of the ion-electron system (eV)
  ---------------------------------------------------
  alpha Z        PSCENC =       453.10565554
  Ewald energy   TEWEN  =     -4853.25068260
  -Hartree energ DENC   =     -1394.95400397
  -exchange      EXHF   =         0.00000000
  -V(xc)+E(xc)   XCENC  =       227.25687706
  PAW double counting   =      5122.54265185    -5413.80328534
  entropy T*S    EENTRO =        -0.00230873
  eigenvalues    EBANDS =       186.70856893
  atomic energy  EATOM  =      6104.32616516
  Solvation  Ediel_sol  =         0.00000000
  ---------------------------------------------------
  free energy    TOTEN  =       431.92963791 eV

  energy without entropy =      431.93194664  energy(sigma->0) =      431.93040749


--------------------------------------------------------------------------------------------------------




--------------------------------------- Iteration      1(   2)  ---------------------------------------


     EDDAV:  cpu time    0.6545: real time    0.6565
       DOS:  cpu time    0.0016: real time    0.0016
    --------------------------------------------
      LOOP:  cpu time    0.6562: real time    0.6581

 eigenvalue-minimisations  :  3208
 total energy-change (2. order) :-0.3843518E+03  (-0.3613591E+03)
 number of electron      46.0000000 magnetization       0.0000000
 augmentation part       46.0000000 magnetization       0.0000000

 Free energy of the ion-electron system (eV)
  ---------------------------------------------------
  alpha Z        PSCENC =       453.10565554
  Ewald energy   TEWEN  =     -4853.25068260
  -Hartree energ DENC   =     -1394.95400397
  -exchange      EXHF   =         0.00000000
  -V(xc)+E(xc)   XCENC  =       227.25687706
  PAW double counting   =      5122.54265185    -5413.80328534
  entropy T*S    EENTRO =        -0.00083962
  eigenvalues    EBANDS =      -197.64465970
  atomic energy  EATOM  =      6104.32616516
  Solvation  Ediel_sol  =         0.00000000
  ---------------------------------------------------
  free energy    TOTEN  =        47.57787840 eV

  energy without entropy =       47.57871801  energy(sigma->0) =       47.57815827


--------------------------------------------------------------------------------------------------------




--------------------------------------- Iteration      1(   3)  ---------------------------------------


     EDDAV:  cpu time    0.7677: real time    0.7702
       DOS:  cpu time    0.0017: real time    0.0017
    --------------------------------------------
      LOOP:  cpu time    0.7694: real time    0.7719

 eigenvalue-minimisations  :  3944
 total energy-change (2. order) :-0.8484807E+02  (-0.8316177E+02)
 number of electron      46.0000000 magnetization       0.0000000
 augmentation part       46.0000000 magnetization       0.0000000

 Free energy of the ion-electron system (eV)
  ---------------------------------------------------
  alpha Z        PSCENC =       453.10565554
  Ewald energy   TEWEN  =     -4853.25068260
  -Hartree energ DENC   =     -1394.95400397
  -exchange      EXHF   =         0.00000000
  -V(xc)+E(xc)   XCENC  =       227.25687706
  PAW double counting   =      5122.54265185    -5413.80328534
  entropy T*S    EENTRO =        -0.00030874
  eigenvalues    EBANDS =      -282.49325889
  atomic energy  EATOM  =      6104.32616516
  Solvation  Ediel_sol  =         0.00000000
  ---------------------------------------------------
  free energy    TOTEN  =       -37.27018993 eV

  energy without entropy =      -37.26988118  energy(sigma->0) =      -37.27008701


--------------------------------------------------------------------------------------------------------




--------------------------------------- Iteration      1(   4)  ---------------------------------------


     EDDAV:  cpu time    0.7763: real time    0.7783
       DOS:  cpu time    0.0020: real time    0.0020
    --------------------------------------------
      LOOP:  cpu time    0.7783: real time    0.7803

 eigenvalue-minimisations  :  4040
 total energy-change (2. order) :-0.6881766E+01  (-0.6423096E+01)
 number of electron      46.0000000 magnetization       0.0000000
 augmentation part       46.0000000 magnetization       0.0000000

 Free energy of the ion-electron system (eV)
  ---------------------------------------------------
  alpha Z        PSCENC =       453.10565554
  Ewald energy   TEWEN  =     -4853.25068260
  -Hartree energ DENC   =     -1394.95400397
  -exchange      EXHF   =         0.00000000
  -V(xc)+E(xc)   XCENC  =       227.25687706
  PAW double counting   =      5122.54265185    -5413.80328534
  entropy T*S    EENTRO =         0.00637941
  eigenvalues    EBANDS =      -289.38171270
  atomic energy  EATOM  =      6104.32616516
  Solvation  Ediel_sol  =         0.00000000
  ---------------------------------------------------
  free energy    TOTEN  =       -44.15195558 eV

  energy without entropy =      -44.15833499  energy(sigma->0) =      -44.15408205


--------------------------------------------------------------------------------------------------------




--------------------------------------- Iteration      1(   5)  ---------------------------------------


     EDDAV:  cpu time    0.8511: real time    0.8532
       DOS:  cpu time    0.0018: real time    0.0018
    CHARGE:  cpu time    0.0355: real time    0.0355
    MIXING:  cpu time    0.0006: real time    0.0006
    --------------------------------------------
      LOOP:  cpu time    0.8890: real time    0.8912

 eigenvalue-minimisations  :  4400
 total energy-change (2. order) :-0.8628375E+00  (-0.8080738E+00)
 number of electron      46.0000053 magnetization       0.0000000
 augmentation part        8.5178758 magnetization       0.0000000

 Broyden mixing:
  rms(total) = 0.27565E+01    rms(broyden)= 0.27563E+01
  rms(prec ) = 0.56724E+01
  weight for this iteration     100.00

 Free energy of the ion-electron system (eV)
  ---------------------------------------------------
  alpha Z        PSCENC =       453.10565554
  Ewald energy   TEWEN  =     -4853.25068260
  -Hartree energ DENC   =     -1394.95400397
  -exchange      EXHF   =         0.00000000
  -V(xc)+E(xc)   XCENC  =       227.25687706
  PAW double counting   =      5122.54265185    -5413.80328534
  entropy T*S    EENTRO =         0.00488887
  eigenvalues    EBANDS =      -290.24305962
  atomic energy  EATOM  =      6104.32616516
  Solvation  Ediel_sol  =         0.00000000
  ---------------------------------------------------
  free energy    TOTEN  =       -45.01479304 eV

  energy without entropy =      -45.01968192  energy(sigma->0) =      -45.01642267


--------------------------------------------------------------------------------------------------------




--------------------------------------- Iteration      1(   6)  ---------------------------------------


    POTLOK:  cpu time    0.0139: real time    0.0141
    SETDIJ:  cpu time    0.0101: real time    0.0102
     EDDAV:  cpu time    0.7507: real time    0.7525
       DOS:  cpu time    0.0018: real time    0.0018
    CHARGE:  cpu time    0.0324: real time    0.0325
    MIXING:  cpu time    0.0006: real time    0.0006
    --------------------------------------------
      LOOP:  cpu time    0.8095: real time    0.8116

 eigenvalue-minimisations  :  3852
 total energy-change (2. order) :-0.4956523E+02  (-0.7691277E+02)
 number of electron      46.0000082 magnetization       0.0000000
 augmentation part       22.5571866 magnetization       0.0000000

 Broyden mixing:
  rms(total) = 0.11197E+02    rms(broyden)= 0.11197E+02
  rms(prec ) = 0.19816E+02
  weight for this iteration     100.00

 eigenvalues of (default mixing * dielectric matrix)
  average eigenvalue GAMMA=   0.1386
  0.1386

 Free energy of the ion-electron system (eV)
  ---------------------------------------------------
  alpha Z        PSCENC =       453.10565554
  Ewald energy   TEWEN  =     -4853.25068260
  -Hartree energ DENC   =     -1263.33184929
  -exchange      EXHF   =         0.00000000
  -V(xc)+E(xc)   XCENC  =       223.15330481
  PAW double counting   =      4927.55545631    -5160.34099123
  entropy T*S    EENTRO =        -0.00103050
  eigenvalues    EBANDS =      -525.79604811
  atomic energy  EATOM  =      6104.32616516
  Solvation  Ediel_sol  =         0.00000000
  ---------------------------------------------------
  free energy    TOTEN  =       -94.58001992 eV

  energy without entropy =      -94.57898942  energy(sigma->0) =      -94.57967642


--------------------------------------------------------------------------------------------------------




--------------------------------------- Iteration      1(   7)  ---------------------------------------


    POTLOK:  cpu time    0.0129: real time    0.0130
    SETDIJ:  cpu time    0.0089: real time    0.0089
     EDDAV:  cpu time    0.7251: real time    0.7268
       DOS:  cpu time    0.0016: real time    0.0016
    CHARGE:  cpu time    0.0343: real time    0.0344
    MIXING:  cpu time    0.0009: real time    0.0009
    --------------------------------------------
      LOOP:  cpu time    0.7836: real time    0.7855

 eigenvalue-minimisations  :  3712
 total energy-change (2. order) : 0.6730910E+02  (-0.4953714E+02)
 number of electron      46.0000048 magnetization       0.0000000
 augmentation part       10.7635320 magnetization       0.0000000

 Broyden mixing:
  rms(total) = 0.27452E+01    rms(broyden)= 0.27448E+01
  rms(prec ) = 0.28275E+01
  weight for this iteration     100.00

 eigenvalues of (default mixing * dielectric matrix)
  average eigenvalue GAMMA=   0.2242
  0.2242  0.2242

 Free energy of the ion-electron system (eV)
  ---------------------------------------------------
  alpha Z        PSCENC =       453.10565554
  Ewald energy   TEWEN  =     -4853.25068260
  -Hartree energ DENC   =     -1354.09287159
  -exchange      EXHF   =         0.00000000
  -V(xc)+E(xc)   XCENC  =       223.81216259
  PAW double counting   =      5162.78362451    -5451.76070944
  entropy T*S    EENTRO =         0.00223015
  eigenvalues    EBANDS =      -312.19649335
  atomic energy  EATOM  =      6104.32616516
  Solvation  Ediel_sol  =         0.00000000
  ---------------------------------------------------
  free energy    TOTEN  =       -27.27091902 eV

  energy without entropy =      -27.27314917  energy(sigma->0) =      -27.27166241


--------------------------------------------------------------------------------------------------------




--------------------------------------- Iteration      1(   8)  ---------------------------------------


    POTLOK:  cpu time    0.0141: real time    0.0143
    SETDIJ:  cpu time    0.0081: real time    0.0082
     EDDAV:  cpu time    0.7219: real time    0.7236
       DOS:  cpu time    0.0018: real time    0.0018
    CHARGE:  cpu time    0.0376: real time    0.0377
    MIXING:  cpu time    0.0007: real time    0.0007
    --------------------------------------------
      LOOP:  cpu time    0.7842: real time    0.7862

 eigenvalue-minimisations  :  3700
 total energy-change (2. order) :-0.1377351E+02  (-0.1060540E+02)
 number of electron      46.0000060 magnetization       0.0000000
 augmentation part       12.1228594 magnetization       0.0000000

 Broyden mixing:
  rms(total) = 0.20906E+01    rms(broyden)= 0.20904E+01
  rms(prec ) = 0.24382E+01
  weight for this iteration     100.00

 eigenvalues of (default mixing * dielectric matrix)
  average eigenvalue GAMMA=   0.3610
  0.4376  0.4376  0.2077

 Free energy of the ion-electron system (eV)
  ---------------------------------------------------
  alpha Z        PSCENC =       453.10565554
  Ewald energy   TEWEN  =     -4853.25068260
  -Hartree energ DENC   =     -1349.97525734
  -exchange      EXHF   =         0.00000000
  -V(xc)+E(xc)   XCENC  =       225.35185400
  PAW double counting   =      5183.98388259    -5473.61044265
  entropy T*S    EENTRO =        -0.00176016
  eigenvalues    EBANDS =      -330.97384503
  atomic energy  EATOM  =      6104.32616516
  Solvation  Ediel_sol  =         0.00000000
  ---------------------------------------------------
  free energy    TOTEN  =       -41.04443050 eV

  energy without entropy =      -41.04267034  energy(sigma->0) =      -41.04384378


--------------------------------------------------------------------------------------------------------




--------------------------------------- Iteration      1(   9)  ---------------------------------------


    POTLOK:  cpu time    0.0151: real time    0.0152
    SETDIJ:  cpu time    0.0095: real time    0.0095
     EDDAV:  cpu time    0.7345: real time    0.7364
       DOS:  cpu time    0.0018: real time    0.0018
    CHARGE:  cpu time    0.0355: real time    0.0355
    MIXING:  cpu time    0.0007: real time    0.0007
    --------------------------------------------
      LOOP:  cpu time    0.7971: real time    0.7991

 eigenvalue-minimisations  :  3808
 total energy-change (2. order) :-0.3610632E+00  (-0.9438509E+00)
 number of electron      46.0000059 magnetization      -0.0000000
 augmentation part       11.6992814 magnetization      -0.0000000

 Broyden mixing:
  rms(total) = 0.13268E+01    rms(broyden)= 0.13268E+01
  rms(prec ) = 0.16133E+01
  weight for this iteration     100.00

 eigenvalues of (default mixing * dielectric matrix)
  average eigenvalue GAMMA=   0.5375
  0.7307  0.2074  0.6059  0.6059

 Free energy of the ion-electron system (eV)
  ---------------------------------------------------
  alpha Z        PSCENC =       453.10565554
  Ewald energy   TEWEN  =     -4853.25068260
  -Hartree energ DENC   =     -1369.59821899
  -exchange      EXHF   =         0.00000000
  -V(xc)+E(xc)   XCENC  =       227.64034388
  PAW double counting   =      5211.00929613    -5508.56926903
  entropy T*S    EENTRO =         0.01942249
  eigenvalues    EBANDS =      -306.08820632
  atomic energy  EATOM  =      6104.32616516
  Solvation  Ediel_sol  =         0.00000000
  ---------------------------------------------------
  free energy    TOTEN  =       -41.40549374 eV

  energy without entropy =      -41.42491623  energy(sigma->0) =      -41.41196790


--------------------------------------------------------------------------------------------------------




--------------------------------------- Iteration      1(  10)  ---------------------------------------


    POTLOK:  cpu time    0.0129: real time    0.0130
    SETDIJ:  cpu time    0.0074: real time    0.0074
     EDDAV:  cpu time    0.7978: real time    0.7997
       DOS:  cpu time    0.0018: real time    0.0018
    CHARGE:  cpu time    0.0326: real time    0.0327
    MIXING:  cpu time    0.0007: real time    0.0007
    --------------------------------------------
      LOOP:  cpu time    0.8532: real time    0.8553

 eigenvalue-minimisations  :  4176
 total energy-change (2. order) :-0.2336051E+00  (-0.2261691E+00)
 number of electron      46.0000057 magnetization      -0.0000000
 augmentation part       11.2023618 magnetization      -0.0000000

 Broyden mixing:
  rms(total) = 0.84433E+00    rms(broyden)= 0.84431E+00
  rms(prec ) = 0.11770E+01
  weight for this iteration     100.00

 eigenvalues of (default mixing * dielectric matrix)
  average eigenvalue GAMMA=   0.5772
  0.7931  0.7931  0.2079  0.5461  0.5461

 Free energy of the ion-electron system (eV)
  ---------------------------------------------------
  alpha Z        PSCENC =       453.10565554
  Ewald energy   TEWEN  =     -4853.25068260
  -Hartree energ DENC   =     -1381.66293826
  -exchange      EXHF   =         0.00000000
  -V(xc)+E(xc)   XCENC  =       229.72410323
  PAW double counting   =      5228.74640919    -5534.68613189
  entropy T*S    EENTRO =         0.00991265
  eigenvalues    EBANDS =      -287.95159184
  atomic energy  EATOM  =      6104.32616516
  Solvation  Ediel_sol  =         0.00000000
  ---------------------------------------------------
  free energy    TOTEN  =       -41.63909882 eV

  energy without entropy =      -41.64901147  energy(sigma->0) =      -41.64240304


--------------------------------------------------------------------------------------------------------




--------------------------------------- Iteration      1(  11)  ---------------------------------------


    POTLOK:  cpu time    0.0129: real time    0.0130
    SETDIJ:  cpu time    0.0088: real time    0.0089
     EDDAV:  cpu time    0.8562: real time    0.8582
       DOS:  cpu time    0.0018: real time    0.0018
    CHARGE:  cpu time    0.0341: real time    0.0341
    MIXING:  cpu time    0.0007: real time    0.0007
    --------------------------------------------
      LOOP:  cpu time    0.9146: real time    0.9168

 eigenvalue-minimisations  :  4472
 total energy-change (2. order) :-0.7044655E-01  (-0.4268517E-01)
 number of electron      46.0000056 magnetization       0.0000000
 augmentation part       11.1927897 magnetization       0.0000000

 Broyden mixing:
  rms(total) = 0.57137E+00    rms(broyden)= 0.57136E+00
  rms(prec ) = 0.85950E+00
  weight for this iteration     100.00

 eigenvalues of (default mixing * dielectric matrix)
  average eigenvalue GAMMA=   0.6744
  1.0951  1.0951  0.2077  0.5471  0.5471  0.5542

 Free energy of the ion-electron system (eV)
  ---------------------------------------------------
  alpha Z        PSCENC =       453.10565554
  Ewald energy   TEWEN  =     -4853.25068260
  -Hartree energ DENC   =     -1384.05879990
  -exchange      EXHF   =         0.00000000
  -V(xc)+E(xc)   XCENC  =       230.57951000
  PAW double counting   =      5241.52353224    -5550.29194399
  entropy T*S    EENTRO =         0.01730208
  eigenvalues    EBANDS =      -283.66028391
  atomic energy  EATOM  =      6104.32616516
  Solvation  Ediel_sol  =         0.00000000
  ---------------------------------------------------
  free energy    TOTEN  =       -41.70954537 eV

  energy without entropy =      -41.72684746  energy(sigma->0) =      -41.71531273


--------------------------------------------------------------------------------------------------------




--------------------------------------- Iteration      1(  12)  ---------------------------------------


    POTLOK:  cpu time    0.0128: real time    0.0131
    SETDIJ:  cpu time    0.0088: real time    0.0088
     EDDAV:  cpu time    0.7622: real time    0.7640
       DOS:  cpu time    0.0018: real time    0.0018
    CHARGE:  cpu time    0.0343: real time    0.0343
    MIXING:  cpu time    0.0012: real time    0.0012
    --------------------------------------------
      LOOP:  cpu time    0.8209: real time    0.8232

 eigenvalue-minimisations  :  3940
 total energy-change (2. order) : 0.6164483E-01  (-0.9430126E-01)
 number of electron      46.0000056 magnetization       0.0000000
 augmentation part       11.5362281 magnetization       0.0000000

 Broyden mixing:
  rms(total) = 0.19210E+00    rms(broyden)= 0.19207E+00
  rms(prec ) = 0.29526E+00
  weight for this iteration     100.00

 eigenvalues of (default mixing * dielectric matrix)
  average eigenvalue GAMMA=   0.8869
  2.4794  1.1140  0.2077  0.5692  0.5692  0.6343  0.6343

 Free energy of the ion-electron system (eV)
  ---------------------------------------------------
  alpha Z        PSCENC =       453.10565554
  Ewald energy   TEWEN  =     -4853.25068260
  -Hartree energ DENC   =     -1380.62761153
  -exchange      EXHF   =         0.00000000
  -V(xc)+E(xc)   XCENC  =       232.07185993
  PAW double counting   =      5268.31005043    -5578.88127528
  entropy T*S    EENTRO =         0.02291014
  eigenvalues    EBANDS =      -286.72497234
  atomic energy  EATOM  =      6104.32616516
  Solvation  Ediel_sol  =         0.00000000
  ---------------------------------------------------
  free energy    TOTEN  =       -41.64790055 eV

  energy without entropy =      -41.67081069  energy(sigma->0) =      -41.65553726


--------------------------------------------------------------------------------------------------------




--------------------------------------- Iteration      1(  13)  ---------------------------------------


    POTLOK:  cpu time    0.0144: real time    0.0147
    SETDIJ:  cpu time    0.0081: real time    0.0081
     EDDAV:  cpu time    0.8324: real time    0.8344
       DOS:  cpu time    0.0018: real time    0.0018
    CHARGE:  cpu time    0.0323: real time    0.0324
    MIXING:  cpu time    0.0008: real time    0.0008
    --------------------------------------------
      LOOP:  cpu time    0.8899: real time    0.8922

 eigenvalue-minimisations  :  4348
 total energy-change (2. order) : 0.8560379E-02  (-0.2466381E-01)
 number of electron      46.0000057 magnetization       0.0000000
 augmentation part       11.6532893 magnetization       0.0000000

 Broyden mixing:
  rms(total) = 0.14517E+00    rms(broyden)= 0.14517E+00
  rms(prec ) = 0.21775E+00
  weight for this iteration     100.00

 eigenvalues of (default mixing * dielectric matrix)
  average eigenvalue GAMMA=   0.9172
  2.8236  1.0258  0.2077  0.5627  0.5627  0.7812  0.7812  0.5923

 Free energy of the ion-electron system (eV)
  ---------------------------------------------------
  alpha Z        PSCENC =       453.10565554
  Ewald energy   TEWEN  =     -4853.25068260
  -Hartree energ DENC   =     -1377.81623029
  -exchange      EXHF   =         0.00000000
  -V(xc)+E(xc)   XCENC  =       232.59108544
  PAW double counting   =      5274.91279238    -5584.69748455
  entropy T*S    EENTRO =         0.01736056
  eigenvalues    EBANDS =      -290.82800180
  atomic energy  EATOM  =      6104.32616516
  Solvation  Ediel_sol  =         0.00000000
  ---------------------------------------------------
  free energy    TOTEN  =       -41.63934017 eV

  energy without entropy =      -41.65670073  energy(sigma->0) =      -41.64512702


--------------------------------------------------------------------------------------------------------




--------------------------------------- Iteration      1(  14)  ---------------------------------------


    POTLOK:  cpu time    0.0125: real time    0.0126
    SETDIJ:  cpu time    0.0076: real time    0.0076
     EDDAV:  cpu time    0.7021: real time    0.7038
       DOS:  cpu time    0.0019: real time    0.0019
    CHARGE:  cpu time    0.0330: real time    0.0330
    MIXING:  cpu time    0.0009: real time    0.0009
    --------------------------------------------
      LOOP:  cpu time    0.7579: real time    0.7598

 eigenvalue-minimisations  :  3896
 total energy-change (2. order) : 0.8489219E-03  (-0.2082938E-02)
 number of electron      46.0000057 magnetization      -0.0000000
 augmentation part       11.6767488 magnetization      -0.0000000

 Broyden mixing:
  rms(total) = 0.13978E+00    rms(broyden)= 0.13978E+00
  rms(prec ) = 0.20594E+00
  weight for this iteration     100.00

 eigenvalues of (default mixing * dielectric matrix)
  average eigenvalue GAMMA=   0.9557
  3.0345  1.2779  0.2077  0.5632  0.5632  0.8268  0.8268  0.6507  0.6507

 Free energy of the ion-electron system (eV)
  ---------------------------------------------------
  alpha Z        PSCENC =       453.10565554
  Ewald energy   TEWEN  =     -4853.25068260
  -Hartree energ DENC   =     -1377.15918993
  -exchange      EXHF   =         0.00000000
  -V(xc)+E(xc)   XCENC  =       232.62250909
  PAW double counting   =      5277.94562517    -5587.02759016
  entropy T*S    EENTRO =         0.01965117
  eigenvalues    EBANDS =      -292.22063469
  atomic energy  EATOM  =      6104.32616516
  Solvation  Ediel_sol  =         0.00000000
  ---------------------------------------------------
  free energy    TOTEN  =       -41.63849125 eV

  energy without entropy =      -41.65814241  energy(sigma->0) =      -41.64504164


--------------------------------------------------------------------------------------------------------




--------------------------------------- Iteration      1(  15)  ---------------------------------------


    POTLOK:  cpu time    0.0135: real time    0.0136
    SETDIJ:  cpu time    0.0088: real time    0.0088
     EDDAV:  cpu time    0.6841: real time    0.6857
       DOS:  cpu time    0.0018: real time    0.0018
    CHARGE:  cpu time    0.0333: real time    0.0334
    MIXING:  cpu time    0.0010: real time    0.0010
    --------------------------------------------
      LOOP:  cpu time    0.7426: real time    0.7444

 eigenvalue-minimisations  :  3464
 total energy-change (2. order) : 0.4424508E-02  (-0.4302589E-02)
 number of electron      46.0000057 magnetization       0.0000000
 augmentation part       11.7287544 magnetization       0.0000000

 Broyden mixing:
  rms(total) = 0.95375E-01    rms(broyden)= 0.95367E-01
  rms(prec ) = 0.14635E+00
  weight for this iteration     100.00

 eigenvalues of (default mixing * dielectric matrix)
  average eigenvalue GAMMA=   1.0104
  2.4542  2.4542  0.2077  0.5646  0.5646  0.8930  0.8020  0.8020  0.7262  0.6351

 Free energy of the ion-electron system (eV)
  ---------------------------------------------------
  alpha Z        PSCENC =       453.10565554
  Ewald energy   TEWEN  =     -4853.25068260
  -Hartree energ DENC   =     -1376.13671528
  -exchange      EXHF   =         0.00000000
  -V(xc)+E(xc)   XCENC  =       232.46458171
  PAW double counting   =      5280.89923983    -5588.18336770
  entropy T*S    EENTRO =         0.02079768
  eigenvalues    EBANDS =      -294.87974108
  atomic energy  EATOM  =      6104.32616516
  Solvation  Ediel_sol  =         0.00000000
  ---------------------------------------------------
  free energy    TOTEN  =       -41.63406674 eV

  energy without entropy =      -41.65486442  energy(sigma->0) =      -41.64099930


--------------------------------------------------------------------------------------------------------




--------------------------------------- Iteration      1(  16)  ---------------------------------------


    POTLOK:  cpu time    0.0145: real time    0.0147
    SETDIJ:  cpu time    0.0094: real time    0.0094
     EDDAV:  cpu time    0.8352: real time    0.8372
       DOS:  cpu time    0.0017: real time    0.0017
    CHARGE:  cpu time    0.0331: real time    0.0332
    MIXING:  cpu time    0.0010: real time    0.0010
    --------------------------------------------
      LOOP:  cpu time    0.8949: real time    0.8972

 eigenvalue-minimisations  :  4340
 total energy-change (2. order) : 0.9346120E-04  (-0.1704245E-02)
 number of electron      46.0000057 magnetization       0.0000000
 augmentation part       11.7118110 magnetization       0.0000000

 Broyden mixing:
  rms(total) = 0.59597E-01    rms(broyden)= 0.59594E-01
  rms(prec ) = 0.87037E-01
  weight for this iteration     100.00

 eigenvalues of (default mixing * dielectric matrix)
  average eigenvalue GAMMA=   1.0720
  2.5045  2.5045  1.8783  0.2077  0.5641  0.5641  0.8085  0.8085  0.6806  0.6806
  0.5910

 Free energy of the ion-electron system (eV)
  ---------------------------------------------------
  alpha Z        PSCENC =       453.10565554
  Ewald energy   TEWEN  =     -4853.25068260
  -Hartree energ DENC   =     -1376.87244932
  -exchange      EXHF   =         0.00000000
  -V(xc)+E(xc)   XCENC  =       232.37165953
  PAW double counting   =      5284.38426962    -5591.17095449
  entropy T*S    EENTRO =         0.02238444
  eigenvalues    EBANDS =      -294.55002116
  atomic energy  EATOM  =      6104.32616516
  Solvation  Ediel_sol  =         0.00000000
  ---------------------------------------------------
  free energy    TOTEN  =       -41.63397328 eV

  energy without entropy =      -41.65635772  energy(sigma->0) =      -41.64143476


--------------------------------------------------------------------------------------------------------




--------------------------------------- Iteration      1(  17)  ---------------------------------------


    POTLOK:  cpu time    0.0141: real time    0.0142
    SETDIJ:  cpu time    0.0092: real time    0.0092
     EDDAV:  cpu time    0.6789: real time    0.6807
       DOS:  cpu time    0.0017: real time    0.0017
    CHARGE:  cpu time    0.0329: real time    0.0330
    MIXING:  cpu time    0.0010: real time    0.0010
    --------------------------------------------
      LOOP:  cpu time    0.7377: real time    0.7398

 eigenvalue-minimisations  :  3432
 total energy-change (2. order) : 0.2378412E-02  (-0.9092939E-03)
 number of electron      46.0000057 magnetization       0.0000000
 augmentation part       11.6828536 magnetization       0.0000000

 Broyden mixing:
  rms(total) = 0.31683E-01    rms(broyden)= 0.31682E-01
  rms(prec ) = 0.43345E-01
  weight for this iteration     100.00

 eigenvalues of (default mixing * dielectric matrix)
  average eigenvalue GAMMA=   1.0785
  2.6149  2.6149  1.9607  0.2077  0.5642  0.5642  0.8826  0.8826  0.6875  0.6875
  0.6374  0.6374

 Free energy of the ion-electron system (eV)
  ---------------------------------------------------
  alpha Z        PSCENC =       453.10565554
  Ewald energy   TEWEN  =     -4853.25068260
  -Hartree energ DENC   =     -1377.69626808
  -exchange      EXHF   =         0.00000000
  -V(xc)+E(xc)   XCENC  =       232.32773327
  PAW double counting   =      5284.86399033    -5592.17286064
  entropy T*S    EENTRO =         0.02225489
  eigenvalues    EBANDS =      -293.15758274
  atomic energy  EATOM  =      6104.32616516
  Solvation  Ediel_sol  =         0.00000000
  ---------------------------------------------------
  free energy    TOTEN  =       -41.63159486 eV

  energy without entropy =      -41.65384975  energy(sigma->0) =      -41.63901316


--------------------------------------------------------------------------------------------------------




--------------------------------------- Iteration      1(  18)  ---------------------------------------


    POTLOK:  cpu time    0.0139: real time    0.0141
    SETDIJ:  cpu time    0.0082: real time    0.0082
     EDDAV:  cpu time    0.8846: real time    0.8867
       DOS:  cpu time    0.0018: real time    0.0019
    CHARGE:  cpu time    0.0328: real time    0.0329
    MIXING:  cpu time    0.0012: real time    0.0012
    --------------------------------------------
      LOOP:  cpu time    0.9426: real time    0.9449

 eigenvalue-minimisations  :  4600
 total energy-change (2. order) : 0.2228032E-03  (-0.1238667E-03)
 number of electron      46.0000057 magnetization       0.0000000
 augmentation part       11.6780677 magnetization       0.0000000

 Broyden mixing:
  rms(total) = 0.18284E-01    rms(broyden)= 0.18284E-01
  rms(prec ) = 0.25712E-01
  weight for this iteration     100.00

 eigenvalues of (default mixing * dielectric matrix)
  average eigenvalue GAMMA=   1.0788
  2.5285  2.4424  2.4424  0.2077  0.5643  0.5643  0.8696  0.8696  0.7618  0.7618
  0.7121  0.7121  0.5873

 Free energy of the ion-electron system (eV)
  ---------------------------------------------------
  alpha Z        PSCENC =       453.10565554
  Ewald energy   TEWEN  =     -4853.25068260
  -Hartree energ DENC   =     -1377.79119343
  -exchange      EXHF   =         0.00000000
  -V(xc)+E(xc)   XCENC  =       232.28593071
  PAW double counting   =      5284.21277362    -5591.66375969
  entropy T*S    EENTRO =         0.02200406
  eigenvalues    EBANDS =      -292.87826543
  atomic energy  EATOM  =      6104.32616516
  Solvation  Ediel_sol  =         0.00000000
  ---------------------------------------------------
  free energy    TOTEN  =       -41.63137206 eV

  energy without entropy =      -41.65337612  energy(sigma->0) =      -41.63870675


--------------------------------------------------------------------------------------------------------




--------------------------------------- Iteration      1(  19)  ---------------------------------------


    POTLOK:  cpu time    0.0129: real time    0.0130
    SETDIJ:  cpu time    0.0075: real time    0.0075
     EDDAV:  cpu time    0.7185: real time    0.7202
       DOS:  cpu time    0.0018: real time    0.0018
    CHARGE:  cpu time    0.0316: real time    0.0317
    MIXING:  cpu time    0.0014: real time    0.0014
    --------------------------------------------
      LOOP:  cpu time    0.7737: real time    0.7756

 eigenvalue-minimisations  :  3664
 total energy-change (2. order) : 0.9688613E-04  (-0.3363848E-04)
 number of electron      46.0000057 magnetization      -0.0000000
 augmentation part       11.6732971 magnetization      -0.0000000

 Broyden mixing:
  rms(total) = 0.11725E-01    rms(broyden)= 0.11725E-01
  rms(prec ) = 0.16497E-01
  weight for this iteration     100.00

 eigenvalues of (default mixing * dielectric matrix)
  average eigenvalue GAMMA=   1.1022
  2.5193  2.5193  2.4625  1.1628  1.1628  0.2077  0.5642  0.5642  0.8347  0.8347
  0.6755  0.6755  0.6401  0.6076

 Free energy of the ion-electron system (eV)
  ---------------------------------------------------
  alpha Z        PSCENC =       453.10565554
  Ewald energy   TEWEN  =     -4853.25068260
  -Hartree energ DENC   =     -1377.83895547
  -exchange      EXHF   =         0.00000000
  -V(xc)+E(xc)   XCENC  =       232.26633619
  PAW double counting   =      5283.91766994    -5591.52718055
  entropy T*S    EENTRO =         0.02191841
  eigenvalues    EBANDS =      -292.65220180
  atomic energy  EATOM  =      6104.32616516
  Solvation  Ediel_sol  =         0.00000000
  ---------------------------------------------------
  free energy    TOTEN  =       -41.63127518 eV

  energy without entropy =      -41.65319358  energy(sigma->0) =      -41.63858131


--------------------------------------------------------------------------------------------------------




--------------------------------------- Iteration      1(  20)  ---------------------------------------


    POTLOK:  cpu time    0.0133: real time    0.0135
    SETDIJ:  cpu time    0.0084: real time    0.0085
     EDDAV:  cpu time    0.8453: real time    0.8473
       DOS:  cpu time    0.0017: real time    0.0017
    CHARGE:  cpu time    0.0314: real time    0.0314
    MIXING:  cpu time    0.0013: real time    0.0013
    --------------------------------------------
      LOOP:  cpu time    0.9015: real time    0.9037

 eigenvalue-minimisations  :  4360
 total energy-change (2. order) : 0.5018927E-04  (-0.4156038E-04)
 number of electron      46.0000057 magnetization       0.0000000
 augmentation part       11.6699262 magnetization       0.0000000

 Broyden mixing:
  rms(total) = 0.32572E-02    rms(broyden)= 0.32564E-02
  rms(prec ) = 0.57844E-02
  weight for this iteration     100.00

 eigenvalues of (default mixing * dielectric matrix)
  average eigenvalue GAMMA=   1.1929
  3.0347  3.0347  2.2255  2.2255  0.2077  0.5642  0.5642  0.8478  0.8478  0.8788
  0.8788  0.6779  0.6779  0.6144  0.6144

 Free energy of the ion-electron system (eV)
  ---------------------------------------------------
  alpha Z        PSCENC =       453.10565554
  Ewald energy   TEWEN  =     -4853.25068260
  -Hartree energ DENC   =     -1377.87993984
  -exchange      EXHF   =         0.00000000
  -V(xc)+E(xc)   XCENC  =       232.22820556
  PAW double counting   =      5283.57823106    -5591.25670147
  entropy T*S    EENTRO =         0.02184366
  eigenvalues    EBANDS =      -292.50400205
  atomic energy  EATOM  =      6104.32616516
  Solvation  Ediel_sol  =         0.00000000
  ---------------------------------------------------
  free energy    TOTEN  =       -41.63122499 eV

  energy without entropy =      -41.65306864  energy(sigma->0) =      -41.63850621


--------------------------------------------------------------------------------------------------------




--------------------------------------- Iteration      1(  21)  ---------------------------------------


    POTLOK:  cpu time    0.0141: real time    0.0143
    SETDIJ:  cpu time    0.0084: real time    0.0084
     EDDAV:  cpu time    0.7413: real time    0.7431
       DOS:  cpu time    0.0018: real time    0.0018
    CHARGE:  cpu time    0.0318: real time    0.0319
    MIXING:  cpu time    0.0016: real time    0.0016
    --------------------------------------------
      LOOP:  cpu time    0.7990: real time    0.8010

 eigenvalue-minimisations  :  3792
 total energy-change (2. order) : 0.2461025E-04  (-0.1674795E-04)
 number of electron      46.0000057 magnetization      -0.0000000
 augmentation part       11.6665664 magnetization      -0.0000000

 Broyden mixing:
  rms(total) = 0.45481E-02    rms(broyden)= 0.45480E-02
  rms(prec ) = 0.52227E-02
  weight for this iteration     100.00

 eigenvalues of (default mixing * dielectric matrix)
  average eigenvalue GAMMA=   1.2212
  2.9921  2.9921  2.5443  2.5443  1.1106  1.1106  0.2077  0.5642  0.5642  0.8327
  0.8327  0.6819  0.6819  0.6435  0.6435  0.5933

 Free energy of the ion-electron system (eV)
  ---------------------------------------------------
  alpha Z        PSCENC =       453.10565554
  Ewald energy   TEWEN  =     -4853.25068260
  -Hartree energ DENC   =     -1377.97442581
  -exchange      EXHF   =         0.00000000
  -V(xc)+E(xc)   XCENC  =       232.21838898
  PAW double counting   =      5283.51788328    -5591.26058770
  entropy T*S    EENTRO =         0.02176154
  eigenvalues    EBANDS =      -292.33535877
  atomic energy  EATOM  =      6104.32616516
  Solvation  Ediel_sol  =         0.00000000
  ---------------------------------------------------
  free energy    TOTEN  =       -41.63120038 eV

  energy without entropy =      -41.65296192  energy(sigma->0) =      -41.63845422


--------------------------------------------------------------------------------------------------------




--------------------------------------- Iteration      1(  22)  ---------------------------------------


    POTLOK:  cpu time    0.0141: real time    0.0143
    SETDIJ:  cpu time    0.0084: real time    0.0084
     EDDAV:  cpu time    0.7630: real time    0.7648
       DOS:  cpu time    0.0017: real time    0.0017
    CHARGE:  cpu time    0.0317: real time    0.0318
    MIXING:  cpu time    0.0024: real time    0.0024
    --------------------------------------------
      LOOP:  cpu time    0.8213: real time    0.8234

 eigenvalue-minimisations  :  3932
 total energy-change (2. order) :-0.3819026E-05  (-0.3381847E-05)
 number of electron      46.0000057 magnetization       0.0000000
 augmentation part       11.6665610 magnetization       0.0000000

 Broyden mixing:
  rms(total) = 0.18325E-02    rms(broyden)= 0.18324E-02
  rms(prec ) = 0.20299E-02
  weight for this iteration     100.00

 eigenvalues of (default mixing * dielectric matrix)
  average eigenvalue GAMMA=   1.2050
  2.9614  2.9614  3.0054  2.2140  1.1818  1.1818  0.2077  0.5642  0.5642  0.8468
  0.8468  0.7162  0.7162  0.6713  0.6713  0.5872  0.5872

 Free energy of the ion-electron system (eV)
  ---------------------------------------------------
  alpha Z        PSCENC =       453.10565554
  Ewald energy   TEWEN  =     -4853.25068260
  -Hartree energ DENC   =     -1378.02899899
  -exchange      EXHF   =         0.00000000
  -V(xc)+E(xc)   XCENC  =       232.23030067
  PAW double counting   =      5283.57403970    -5591.32152735
  entropy T*S    EENTRO =         0.02172367
  eigenvalues    EBANDS =      -292.28788000
  atomic energy  EATOM  =      6104.32616516
  Solvation  Ediel_sol  =         0.00000000
  ---------------------------------------------------
  free energy    TOTEN  =       -41.63120420 eV

  energy without entropy =      -41.65292787  energy(sigma->0) =      -41.63844542


--------------------------------------------------------------------------------------------------------




--------------------------------------- Iteration      1(  23)  ---------------------------------------


    POTLOK:  cpu time    0.0135: real time    0.0137
    SETDIJ:  cpu time    0.0091: real time    0.0091
     EDDAV:  cpu time    0.5059: real time    0.5071
       DOS:  cpu time    0.0016: real time    0.0016
    CHARGE:  cpu time    0.0323: real time    0.0324
    MIXING:  cpu time    0.0017: real time    0.0017
    --------------------------------------------
      LOOP:  cpu time    0.5640: real time    0.5656

 eigenvalue-minimisations  :  2344
 total energy-change (2. order) :-0.1274021E-05  (-0.2950890E-06)
 number of electron      46.0000057 magnetization       0.0000000
 augmentation part       11.6664761 magnetization       0.0000000

 Broyden mixing:
  rms(total) = 0.11139E-02    rms(broyden)= 0.11139E-02
  rms(prec ) = 0.14455E-02
  weight for this iteration     100.00

 eigenvalues of (default mixing * dielectric matrix)
  average eigenvalue GAMMA=   1.1839
  3.0936  2.9122  2.9122  2.0412  1.1550  1.1550  0.2077  0.5642  0.5642  0.8506
  0.8506  0.8988  0.8988  0.6792  0.6792  0.6440  0.5959  0.6070

 Free energy of the ion-electron system (eV)
  ---------------------------------------------------
  alpha Z        PSCENC =       453.10565554
  Ewald energy   TEWEN  =     -4853.25068260
  -Hartree energ DENC   =     -1378.03650753
  -exchange      EXHF   =         0.00000000
  -V(xc)+E(xc)   XCENC  =       232.23301400
  PAW double counting   =      5283.58712091    -5591.34293939
  entropy T*S    EENTRO =         0.02172941
  eigenvalues    EBANDS =      -292.27476097
  atomic energy  EATOM  =      6104.32616516
  Solvation  Ediel_sol  =         0.00000000
  ---------------------------------------------------
  free energy    TOTEN  =       -41.63120547 eV

  energy without entropy =      -41.65293488  energy(sigma->0) =      -41.63844861


--------------------------------------------------------------------------------------------------------




--------------------------------------- Iteration      1(  24)  ---------------------------------------


    POTLOK:  cpu time    0.0144: real time    0.0145
    SETDIJ:  cpu time    0.0083: real time    0.0083
     EDDAV:  cpu time    0.4059: real time    0.4069
       DOS:  cpu time    0.0018: real time    0.0018
    --------------------------------------------
      LOOP:  cpu time    0.4304: real time    0.4315

 eigenvalue-minimisations  :  1664
 total energy-change (2. order) :-0.1035696E-06  (-0.9397599E-07)
 number of electron      46.0000057 magnetization       0.0000000
 augmentation part       11.6664761 magnetization       0.0000000

 Free energy of the ion-electron system (eV)
  ---------------------------------------------------
  alpha Z        PSCENC =       453.10565554
  Ewald energy   TEWEN  =     -4853.25068260
  -Hartree energ DENC   =     -1378.02791679
  -exchange      EXHF   =         0.00000000
  -V(xc)+E(xc)   XCENC  =       232.23412135
  PAW double counting   =      5283.60601419    -5591.35997821
  entropy T*S    EENTRO =         0.02174295
  eigenvalues    EBANDS =      -292.28632717
  atomic energy  EATOM  =      6104.32616516
  Solvation  Ediel_sol  =         0.00000000
  ---------------------------------------------------
  free energy    TOTEN  =       -41.63120557 eV

  energy without entropy =      -41.65294852  energy(sigma->0) =      -41.63845322


--------------------------------------------------------------------------------------------------------




 average (electrostatic) potential at core
  the test charge radii are     1.1829  0.7215
  (the norm of the test charge is              1.0000)
       1 -37.4185       2 -37.4185       3 -71.1895       4 -71.1895
 
 
 
 E-fermi :   4.8287     XC(G=0): -11.0340     alpha+bet :-12.2018


 spin component 1

 k-point     1 :       0.0000    0.0000    0.0000
  band No.  band energies     occupation 
      1     -36.2784      1.00000
      2     -33.2174      1.00000
      3     -15.3141      1.00000
      4     -14.9409      1.00000
      5     -14.9408      1.00000
      6     -13.8706      1.00000
      7     -13.8262      1.00000
      8     -12.8813      1.00000
      9     -12.6498      1.00000
     10     -12.6498      1.00000
     11       1.0316      1.00000
     12       1.0833      1.00000
     13       1.0833      1.00000
     14       1.1720      1.00000
     15       1.2084      1.00000
     16       1.2084      1.00000
     17       4.0929      1.00000
     18       4.4718      1.00000
     19       4.6058      1.00356
     20       4.6954      1.03390
     21       4.6954      1.03391
     22       4.8346      0.45032
     23       4.9014      0.03120
     24       4.9014      0.03118
     25       5.3368     -0.00000
     26       7.2088     -0.00000
     27       7.2091     -0.00000
     28       7.3111     -0.00000

 k-point     2 :       0.2500    0.0000    0.0000
  band No.  band energies     occupation 
      1     -36.2589      1.00000
      2     -33.1940      1.00000
      3     -15.7580      1.00000
      4     -15.2295      1.00000
      5     -14.8849      1.00000
      6     -14.6423      1.00000
      7     -13.0311      1.00000
      8     -12.9174      1.00000
      9     -12.5945      1.00000
     10     -11.9406      1.00000
     11       0.0898      1.00000
     12       0.3059      1.00000
     13       0.5502      1.00000
     14       0.6632      1.00000
     15       0.9248      1.00000
     16       1.0766      1.00000
     17       4.4265      1.00000
     18       4.4565      1.00000
     19       4.5642      1.00059
     20       4.6860      1.03073
     21       4.7030      1.03530
     22       4.7371      1.01402
     23       4.7746      0.89173
     24       5.9051     -0.00000
     25       6.7744     -0.00000
     26       6.9211     -0.00000
     27       7.6927      0.00000
     28       8.4718      0.00000

 k-point     3 :       0.5000    0.0000    0.0000
  band No.  band energies     occupation 
      1     -36.2393      1.00000
      2     -33.1705      1.00000
      3     -16.2529      1.00000
      4     -15.1397      1.00000
      5     -15.1352      1.00000
      6     -14.8277      1.00000
      7     -12.9591      1.00000
      8     -12.5454      1.00000
      9     -12.5381      1.00000
     10     -11.5064      1.00000
     11      -0.5930      1.00000
     12      -0.4556      1.00000
     13       0.1157      1.00000
     14       0.1381      1.00000
     15       0.8063      1.00000
     16       0.9668      1.00000
     17       4.4215      1.00000
     18       4.4452      1.00000
     19       4.5285      1.00009
     20       4.6173      1.00544
     21       4.6685      1.02299
     22       4.7104      1.03518
     23       4.7574      0.96439
     24       6.7731     -0.00000
     25       7.8585      0.00000
     26       7.9359      0.00000
     27       8.3349      0.00000
     28       8.5530      0.00000

 k-point     4 :       0.0000    0.3333    0.0000
  band No.  band energies     occupation 
      1     -36.2766      1.00000
      2     -33.2187      1.00000
      3     -15.6688      1.00000
      4     -14.9281      1.00000
      5     -14.9280      1.00000
      6     -14.4962      1.00000
      7     -13.2236      1.00000
      8     -12.6675      1.00000
      9     -12.6674      1.00000
     10     -12.0800      1.00000
     11       0.0446      1.00000
     12       0.2186      1.00000
     13       1.0197      1.00000
     14       1.0197      1.00000
     15       1.1386      1.00000
     16       1.1386      1.00000
     17       4.2935      1.00000
     18       4.6015      1.00302
     19       4.6379      1.01064
     20       4.6380      1.01066
     21       4.6551      1.01702
     22       4.7291      1.02474
     23       4.8799      0.12356
     24       4.8799      0.12356
     25       6.3532     -0.00000
     26       6.5164     -0.00000
     27       8.2480      0.00000
     28       8.2506      0.00000

 k-point     5 :       0.2500    0.3333    0.0000
  band No.  band energies     occupation 
      1     -36.2576      1.00000
      2     -33.1940      1.00000
      3     -15.9092      1.00000
      4     -15.7916      1.00000
      5     -14.8773      1.00000
      6     -13.9367      1.00000
      7     -13.6318      1.00000
      8     -12.6018      1.00000
      9     -11.9676      1.00000
     10     -11.8389      1.00000
     11      -0.3387      1.00000
     12      -0.1482      1.00000
     13       0.3382      1.00000
     14       0.4626      1.00000
     15       0.4884      1.00000
     16       0.5722      1.00000
     17       4.4439      1.00000
     18       4.4721      1.00000
     19       4.5784      1.00114
     20       4.6344      1.00956
     21       4.6471      1.01384
     22       4.7089      1.03534
     23       4.7124      1.03482
     24       6.2382     -0.00000
     25       7.1100     -0.00000
[...]
 -4.022  -0.355  -0.000   0.000   0.000   0.000  -0.000  -0.000
  0.000  -0.000 -15.669  -0.005  -0.007   7.376   0.005   0.006
 -0.000   0.000  -0.005 -15.666   0.009   0.005   7.373  -0.008
 -0.000   0.000  -0.007   0.009 -15.662   0.006  -0.008   7.369
  0.000   0.000   7.376   0.005   0.006   4.937  -0.004  -0.005
 -0.000  -0.000   0.005   7.373  -0.008  -0.004   4.940   0.007
 -0.000  -0.000   0.006  -0.008   7.369  -0.005   0.007   4.943
 -0.005   0.001  -0.000   0.000   0.000  -0.000   0.000   0.000
 -0.004   0.000  -0.000   0.000   0.000  -0.000   0.000   0.000
  0.000  -0.000  -0.000  -0.000   0.000  -0.000  -0.000   0.000
  0.007  -0.001   0.000  -0.000  -0.000   0.000  -0.000  -0.000
  0.003  -0.000  -0.000  -0.000  -0.000  -0.000  -0.000  -0.000
  0.008  -0.001  -0.000   0.000   0.000   0.000  -0.000  -0.000
  0.007  -0.001  -0.000   0.000   0.000   0.000  -0.000  -0.000
 -0.000   0.000   0.000   0.000  -0.000   0.000   0.000  -0.000
 -0.012   0.001   0.000  -0.000  -0.000  -0.000   0.000   0.000
 -0.005   0.001   0.000  -0.000  -0.000   0.000   0.000   0.000
 -0.000   0.000   0.001  -0.003  -0.001  -0.001  -0.001   0.002
 -0.000   0.000   0.002  -0.001  -0.005  -0.002   0.001  -0.000
 -0.000   0.000   0.002  -0.001   0.001   0.000   0.001  -0.000
 -0.000   0.000   0.001  -0.003  -0.001  -0.001  -0.001   0.001
  0.000  -0.000   0.001   0.002   0.001  -0.000  -0.002   0.001
  0.000  -0.000  -0.003   0.001   0.002  -0.002  -0.001  -0.002
  0.000  -0.000   0.002   0.000   0.001  -0.001  -0.000  -0.001
 -0.000   0.000   0.001  -0.003  -0.001  -0.001  -0.001   0.002
 -0.000   0.000   0.002  -0.001  -0.005  -0.002   0.001  -0.000
 -0.000   0.000   0.002  -0.001   0.001   0.000   0.001  -0.000
 -0.000   0.000   0.001  -0.003  -0.001  -0.001  -0.001   0.001
  0.000  -0.000   0.001   0.002   0.001  -0.000  -0.002   0.001
  0.000  -0.000  -0.003   0.001   0.002  -0.002  -0.001  -0.002
  0.000  -0.000   0.002   0.000   0.001  -0.001  -0.000  -0.001
 pseudopotential strength for first ion, spin component:           2
-15.725   0.725   0.000  -0.000  -0.000   0.000  -0.000  -0.000
  0.725  -3.405  -0.000   0.000   0.000   0.000  -0.000  -0.000
  0.000  -0.000 -17.548  -0.005  -0.006   7.758   0.006   0.007
 -0.000   0.000  -0.005 -17.545   0.008   0.006   7.754  -0.010
 -0.000   0.000  -0.006   0.008 -17.542   0.007  -0.010   7.750
  0.000   0.000   7.758   0.006   0.007   5.166  -0.006  -0.007
 -0.000  -0.000   0.006   7.754  -0.010  -0.006   5.171   0.010
 -0.000  -0.000   0.007  -0.010   7.750  -0.007   0.010   5.175
 -0.004  -0.000  -0.000   0.000   0.000  -0.000   0.000   0.000
 -0.003  -0.000  -0.000   0.000   0.000  -0.000   0.000   0.000
  0.000  -0.000  -0.000  -0.000   0.000  -0.000  -0.000   0.000
  0.005   0.000   0.000  -0.000  -0.000   0.000  -0.000  -0.000
  0.002   0.000  -0.000  -0.000  -0.000  -0.000  -0.000  -0.000
  0.007   0.000  -0.000   0.000   0.000   0.000  -0.000  -0.000
  0.005   0.000  -0.000   0.000   0.000   0.000  -0.000  -0.000
 -0.000   0.000   0.000   0.000  -0.000   0.000   0.000  -0.000
 -0.009  -0.001   0.000  -0.000  -0.000  -0.000   0.000   0.000
 -0.004  -0.000   0.000  -0.000  -0.000   0.000   0.000   0.000
 -0.000   0.000   0.002  -0.019  -0.003  -0.002   0.010   0.003
 -0.000   0.000   0.003  -0.004  -0.025  -0.003   0.003   0.014
 -0.000   0.000   0.010  -0.002  -0.001  -0.006   0.002  -0.000
 -0.000   0.000   0.002  -0.017  -0.003  -0.002   0.009   0.003
  0.000  -0.000  -0.001   0.003   0.011  -0.000  -0.004  -0.005
  0.000  -0.000  -0.022   0.002   0.003   0.010  -0.002  -0.003
  0.000  -0.000   0.001  -0.000   0.001  -0.002   0.000  -0.001
 -0.000   0.000   0.002  -0.018  -0.003  -0.002   0.010   0.003
 -0.000   0.000   0.003  -0.004  -0.024  -0.003   0.003   0.014
 -0.000   0.000   0.010  -0.002  -0.001  -0.005   0.002  -0.000
 -0.000   0.000   0.002  -0.016  -0.003  -0.002   0.009   0.003
  0.000  -0.000  -0.001   0.003   0.010  -0.000  -0.004  -0.005
  0.000  -0.000  -0.021   0.002   0.003   0.010  -0.002  -0.003
  0.000  -0.000   0.001  -0.000   0.001  -0.002   0.000  -0.001
 total augmentation occupancy for first ion, spin component:           1
  1.992  -0.038   0.000   0.000   0.000   0.000  -0.000   0.000   0.000   0.000   0.000  -0.000  -0.000  -0.001  -0.000   0.000
 -0.038   0.600  -0.000  -0.000   0.000   0.000   0.000  -0.000   0.000   0.000   0.000  -0.001  -0.000   0.000   0.000  -0.000
 -0.000  -0.000   2.012  -0.000  -0.000  -0.020  -0.000  -0.001   0.000   0.000   0.000   0.000   0.000  -0.000   0.000   0.000
  0.000  -0.000  -0.000   2.012   0.000  -0.000  -0.019   0.001   0.000   0.000   0.000   0.000   0.000   0.000   0.000   0.000
  0.000  -0.000  -0.000   0.000   2.013  -0.001   0.001  -0.019   0.000   0.000  -0.000   0.000   0.000   0.000   0.000   0.000
  0.000   0.000  -0.020  -0.000  -0.001   0.020   0.000   0.000   0.000   0.000   0.000   0.000   0.000   0.000  -0.000   0.000
  0.000  -0.000  -0.000  -0.019   0.001   0.000   0.020  -0.000   0.000   0.000  -0.000  -0.000  -0.000   0.000   0.000   0.000
  0.000  -0.000  -0.001   0.001  -0.019   0.000  -0.000   0.020   0.000   0.000   0.000   0.000   0.000  -0.000   0.000   0.000
  0.000   0.000   0.000   0.000   0.000   0.000  -0.000   0.000   0.234  -0.006  -0.013  -0.078  -0.007   0.064  -0.001  -0.002
  0.000   0.000  -0.000   0.000   0.000   0.000   0.000   0.000  -0.006   0.285   0.005  -0.003  -0.084  -0.001   0.084   0.001
  0.000   0.000   0.000   0.000   0.000  -0.000   0.000   0.000  -0.013   0.005   0.172  -0.009   0.007  -0.002   0.001   0.041
 -0.000  -0.001   0.000  -0.000   0.000   0.000   0.000   0.000  -0.078  -0.003  -0.009   0.289  -0.006  -0.030  -0.001  -0.002
 -0.000  -0.000   0.000   0.000   0.000   0.000  -0.000   0.000  -0.007  -0.084   0.007  -0.006   0.226  -0.001  -0.031   0.001
 -0.001   0.000   0.000  -0.000   0.000   0.000   0.000   0.000   0.064  -0.001  -0.002  -0.030  -0.001   0.018  -0.000  -0.000
 -0.000   0.000   0.000   0.000   0.000   0.000   0.000   0.000  -0.001   0.084   0.001  -0.001  -0.031  -0.000   0.026   0.000
  0.000  -0.000  -0.000   0.000  -0.000  -0.000   0.000   0.000  -0.002   0.001   0.041  -0.002   0.001  -0.000   0.000   0.011
  0.001  -0.000  -0.000   0.000   0.000   0.000   0.000   0.000  -0.030  -0.001  -0.002   0.085  -0.001  -0.011  -0.000  -0.000
  0.000  -0.000   0.000   0.000  -0.000   0.000  -0.000   0.000  -0.001  -0.031   0.001  -0.001   0.062  -0.000  -0.011   0.000
 -0.000   0.000   0.001  -0.118  -0.001  -0.000   0.081   0.000   0.000   0.000  -0.000   0.000   0.000   0.000   0.000  -0.000
 -0.000   0.000   0.001  -0.002  -0.145   0.000   0.001   0.099   0.000   0.000   0.000   0.000   0.000  -0.000   0.000   0.000
  0.000   0.000   0.064  -0.000  -0.001  -0.044  -0.000   0.001   0.000   0.000  -0.000   0.000   0.000   0.000   0.000   0.000
  0.000   0.000   0.001  -0.106  -0.001  -0.000   0.072   0.000   0.000   0.000   0.000  -0.000   0.000   0.000  -0.000   0.000
  0.000   0.000  -0.001   0.001   0.065   0.001   0.001  -0.045   0.000   0.000   0.000   0.000   0.000   0.000   0.000   0.000
 -0.000   0.000  -0.144   0.001   0.001   0.099  -0.000   0.000  -0.000   0.000   0.000   0.000   0.000  -0.000   0.000   0.000
  0.000   0.000  -0.000  -0.000  -0.000   0.001   0.000   0.001   0.000  -0.000   0.000   0.000   0.000  -0.000  -0.000   0.000
  0.000   0.000  -0.001   0.121   0.002   0.000  -0.075  -0.000   0.000   0.000   0.000   0.000   0.000  -0.000   0.000   0.000
  0.000   0.000  -0.002   0.002   0.149   0.000  -0.000  -0.092  -0.000  -0.000   0.000   0.000   0.000   0.000  -0.000   0.000
  0.000   0.000  -0.066   0.001   0.001   0.041   0.000  -0.000   0.000   0.000   0.000   0.000   0.000   0.000   0.000   0.000
  0.000   0.000  -0.001   0.108   0.002   0.000  -0.067  -0.000   0.000   0.000   0.000  -0.000  -0.000   0.000  -0.000   0.000
  0.000  -0.000   0.001  -0.001  -0.067  -0.000  -0.000   0.041   0.000   0.000   0.000   0.000   0.000   0.000   0.000   0.000
  0.000   0.000   0.147  -0.001  -0.002  -0.092   0.000   0.000   0.000   0.000   0.000   0.000   0.000   0.000   0.000   0.000
  0.000   0.000  -0.000   0.000  -0.000  -0.000  -0.000  -0.000   0.000   0.000   0.000   0.000   0.000   0.000   0.000   0.000
 total augmentation occupancy for first ion, spin component:           2
 -0.042  -0.159   0.000   0.000   0.000   0.000   0.000  -0.000  -0.000  -0.000   0.000   0.001   0.000  -0.000  -0.000   0.000
 -0.159   0.125   0.000  -0.000   0.000   0.000   0.000   0.000   0.002   0.001   0.000  -0.002  -0.001   0.001   0.000   0.000
  0.000   0.000  -0.008   0.000   0.000  -0.044   0.000   0.000   0.000   0.000   0.000  -0.000   0.000   0.000  -0.000   0.000
 -0.000  -0.000   0.000  -0.008  -0.000   0.000  -0.044  -0.000   0.000   0.000   0.000   0.000   0.000   0.000   0.000   0.000
  0.000   0.000   0.000  -0.000  -0.008   0.000  -0.000  -0.044  -0.000   0.000   0.000   0.000  -0.000   0.000   0.000   0.000
  0.000   0.000  -0.044   0.000   0.000   0.003   0.000   0.000   0.000   0.000   0.000   0.000   0.000   0.000   0.000   0.000
  0.000   0.000   0.000  -0.044  -0.000   0.000   0.003  -0.000  -0.000   0.000   0.000   0.000   0.000   0.000   0.000   0.000
 -0.000   0.000   0.000  -0.000  -0.044   0.000  -0.000   0.003   0.000   0.000   0.000   0.000   0.000   0.000   0.000  -0.000
 -0.000   0.002   0.000   0.000   0.000  -0.000   0.000   0.000   0.045  -0.009  -0.021   0.002  -0.012   0.011  -0.002  -0.004
 -0.000   0.001   0.000  -0.000   0.000   0.000   0.000  -0.000  -0.009   0.038   0.009  -0.005  -0.009  -0.002   0.011   0.002
  0.000   0.000   0.000   0.000   0.000   0.000   0.000   0.000  -0.021   0.009   0.036  -0.015   0.012  -0.004   0.002   0.008
  0.001  -0.002   0.000  -0.000   0.000   0.000  -0.000   0.000   0.002  -0.005  -0.015   0.044  -0.009  -0.001  -0.001  -0.003
  0.000  -0.001  -0.000   0.000  -0.000   0.000   0.000   0.000  -0.012  -0.009   0.012  -0.009   0.032  -0.002  -0.003   0.002
 -0.000   0.001   0.000   0.000   0.000  -0.000  -0.000   0.000   0.011  -0.002  -0.004  -0.001  -0.002   0.003  -0.000  -0.001
 -0.000   0.000   0.000   0.000   0.000   0.000   0.000   0.000  -0.002   0.011   0.002  -0.001  -0.003  -0.000   0.003   0.000
  0.000   0.000   0.000   0.000   0.000  -0.000   0.000  -0.000  -0.004   0.002   0.008  -0.003   0.002  -0.001   0.000   0.002
  0.000  -0.001   0.000  -0.000   0.000  -0.000  -0.000  -0.000  -0.001  -0.001  -0.003   0.012  -0.002  -0.001  -0.000  -0.000
  0.000  -0.000   0.000  -0.000   0.000   0.000   0.000  -0.000  -0.002  -0.003   0.002  -0.002   0.009  -0.000  -0.001   0.000
 -0.000   0.000  -0.000  -0.010   0.000  -0.000   0.022   0.000   0.000   0.000   0.000   0.000  -0.000   0.000   0.000  -0.000
  0.000  -0.000   0.001   0.001  -0.013   0.001   0.001   0.026   0.000  -0.000   0.000   0.000   0.000   0.000  -0.000   0.000
 -0.000   0.000   0.007  -0.001   0.002  -0.011  -0.001   0.002   0.000  -0.000   0.000   0.000   0.000   0.000   0.000  -0.000
 -0.000   0.000  -0.000  -0.009   0.000  -0.000   0.019   0.000  -0.000   0.000   0.000   0.000   0.000  -0.000   0.000   0.000
  0.000   0.000   0.002   0.003   0.005   0.002   0.002  -0.013   0.000  -0.000   0.000   0.000   0.000   0.000  -0.000   0.000
  0.000   0.000  -0.012  -0.001   0.001   0.027  -0.001   0.001   0.000   0.000   0.000   0.000   0.000   0.000   0.000   0.000
  0.000   0.000   0.003  -0.000   0.002   0.003   0.000   0.002   0.000   0.000   0.000   0.000  -0.000   0.000   0.000   0.000
  0.000  -0.000   0.000  -0.003  -0.000   0.000  -0.009  -0.000   0.000   0.000   0.000   0.000   0.000  -0.000   0.000   0.000
  0.000   0.000  -0.001  -0.002  -0.003  -0.001  -0.001  -0.011   0.000  -0.000   0.000   0.000   0.000   0.000  -0.000   0.000
  0.000   0.000   0.000   0.001  -0.002   0.004   0.001  -0.002   0.000   0.000   0.000   0.000   0.000   0.000   0.000   0.000
 -0.000   0.000   0.000  -0.003  -0.000   0.000  -0.008  -0.000   0.000   0.000   0.000   0.000   0.000   0.000   0.000   0.000
  0.000   0.000  -0.002  -0.003   0.003  -0.002  -0.002   0.006  -0.000   0.000   0.000  -0.000   0.000   0.000   0.000   0.000
  0.000   0.000  -0.004   0.001  -0.001  -0.011   0.001  -0.001   0.000  -0.000   0.000   0.000   0.000   0.000   0.000   0.000
  0.000   0.000  -0.003   0.000  -0.002  -0.003  -0.000  -0.001   0.000  -0.000   0.000  -0.000   0.000   0.000   0.000   0.000


------------------------ aborting loop because EDIFF is reached ----------------------------------------


 


 total charge     
 
# of ion       s       p       d       f       tot
--------------------------------------------------
    1        2.082   5.888   0.615   6.722  15.307
    2        2.082   5.888   0.615   6.722  15.307
    3        1.557   3.407   0.000   0.000   4.964
    4        1.557   3.407   0.000   0.000   4.964
--------------------------------------------------
tot          7.279  18.589   1.230  13.443  40.542

 


 magnetization (x)
 
# of ion       s       p       d       f       tot
--------------------------------------------------
    1       -0.007  -0.012   0.103   6.614   6.699
    2        0.007   0.012  -0.103  -6.614  -6.699
    3        0.002   0.037   0.000   0.000   0.039
    4       -0.002  -0.037   0.000   0.000  -0.039
--------------------------------------------------
tot          0.000  -0.000   0.000   0.000   0.000

 
    CHARGE:  cpu time    0.0326: real time    0.0328
    FORLOC:  cpu time    0.0006: real time    0.0006
    FORNL :  cpu time    0.1547: real time    0.1551
    STRESS:  cpu time    0.2281: real time    0.2286
    FORCOR:  cpu time    0.0128: real time    0.0128
    FORHAR:  cpu time    0.0016: real time    0.0016
    MIXING:  cpu time    0.0014: real time    0.0014
    OFIELD:  cpu time    0.0000: real time    0.0000

  FORCE on cell =-STRESS in cart. coord.  units (eV):
  Direction    XX          YY          ZZ          XY          YZ          ZX
  --------------------------------------------------------------------------------------
  Alpha Z   453.10566   453.10566   453.10566
  Ewald   -1617.75261 -1617.75125 -1617.75302     0.00351     0.00252    -0.00245
  Hartree   459.23925   459.39802   459.31625     0.14115     0.11444    -0.19558
  E(xc)    -244.15854  -244.14657  -244.15257     0.01039     0.00848    -0.01467
  Local     422.63838   422.58289   422.61575    -0.05519    -0.04344     0.06998
  n-local  -225.79953  -227.26971  -226.53639     0.38772    -1.03974    -0.54795
  augment    96.58761    96.33944    96.46332    -0.21476    -0.17532     0.30376
  Kinetic   657.41648   655.65565   656.58396     0.54855    -1.26208    -0.74739
  Fock        0.00000     0.00000     0.00000     0.00000     0.00000     0.00000
  -------------------------------------------------------------------------------------
  Total      -0.31698    -0.46082    -0.38842    -0.12582    -0.10252     0.17668
  in kB      -7.74452   -11.25886    -9.49006    -3.07400    -2.50472     4.31675
  external pressure =       -9.50 kB  Pullay stress =        0.00 kB


 VOLUME and BASIS-vectors are now :
 -----------------------------------------------------------------------------
  energy-cutoff  :      500.00
  volume of cell :       65.58
      direct lattice vectors                 reciprocal lattice vectors
    -1.796252600  1.037116700  2.933334000    -0.139173204  0.080355564  0.227274382
     3.592654100 -2.074162400  2.933334000     0.139173204 -0.080355564  0.113634631
     1.796384500  3.111279100  0.000000000     0.139173204  0.241055652 -0.000004300

  length of vectors
     3.592573285  5.080724505  3.592638990     0.278352011  0.196822323  0.278346921


 FORCES acting on ions
    electron-ion (+dipol)            ewald-force                    non-local-force                 convergence-correction
 -----------------------------------------------------------------------------------------------
   -.288E-05 0.190E-05 -.193E-05   0.280E-04 -.185E-04 0.187E-04   0.185E-21 0.371E-21 0.635E-21   0.407E-09 -.270E-09 0.272E-09
   -.288E-05 0.190E-05 -.193E-05   0.280E-04 -.185E-04 0.187E-04   0.304E-21 -.364E-21 -.635E-21   0.407E-09 -.270E-09 0.272E-09
   -.166E-03 0.110E-03 -.111E-03   -.280E-04 0.185E-04 -.187E-04   0.122E-20 0.874E-21 -.847E-21   -.796E-08 0.524E-08 -.531E-08
   -.166E-03 0.110E-03 -.111E-03   -.280E-04 0.185E-04 -.187E-04   -.191E-20 0.000E+00 0.847E-21   -.796E-08 0.524E-08 -.531E-08
 -----------------------------------------------------------------------------------------------
   -.339E-03 0.224E-03 -.227E-03   0.987E-14 0.110E-13 0.335E-14   -.199E-21 0.880E-21 0.000E+00   -.151E-07 0.995E-08 -.101E-07
 
 
 POSITION                                       TOTAL-FORCE (eV/Angst)
 -----------------------------------------------------------------------------------
      0.00000      0.00000      0.00000        -0.000000      0.000000     -0.000000
      1.79639      1.03712      2.93333        -0.000000     -0.000000     -0.000000
      1.79646      3.11131      4.40000         0.000000      0.000000      0.000000
      0.00007      2.07420      1.46667        -0.000000     -0.000000     -0.000000
 -----------------------------------------------------------------------------------
    total drift:                               -0.000339      0.000224     -0.000227


--------------------------------------------------------------------------------------------------------



  FREE ENERGIE OF THE ION-ELECTRON SYSTEM (eV)
  ---------------------------------------------------
  free  energy   TOTEN  =       -41.63120557 eV

  energy  without entropy=      -41.65294852  energy(sigma->0) =      -41.63845322
 


--------------------------------------------------------------------------------------------------------


    POTLOK:  cpu time    0.0229: real time    0.0230


--------------------------------------------------------------------------------------------------------


     LOOP+:  cpu time   19.2071: real time   19.2730
    4ORBIT:  cpu time    0.0000: real time    0.0000
 


 total charge     
 
# of ion       s       p       d       f       tot
--------------------------------------------------
    1        2.082   5.888   0.615   6.722  15.307
    2        2.082   5.888   0.615   6.722  15.307
    3        1.557   3.407   0.000   0.000   4.964
    4        1.557   3.407   0.000   0.000   4.964
--------------------------------------------------
tot          7.279  18.589   1.230  13.443  40.542

 


 magnetization (x)
 
# of ion       s       p       d       f       tot
--------------------------------------------------
    1       -0.007  -0.012   0.103   6.614   6.699
    2        0.007   0.012  -0.103  -6.614  -6.699
    3        0.002   0.037   0.000   0.000   0.039
    4       -0.002  -0.037   0.000   0.000  -0.039
--------------------------------------------------
tot          0.000  -0.000   0.000   0.000   0.000

 

 total amount of memory used by VASP MPI-rank0    40654. kBytes
=======================================================================

   base      :      30000. kBytes
   nonl-proj :       4607. kBytes
   fftplans  :        481. kBytes
   grid      :       1160. kBytes
   one-center:         98. kBytes
   wavefun   :       4308. kBytes
 
  
  
 General timing and accounting informations for this job:
 ========================================================
  
                  Total CPU time used (sec):       20.548
                            User time (sec):       20.355
                          System time (sec):        0.193
                         Elapsed time (sec):       21.564
  
                   Maximum memory used (kb):       64944.
                   Average memory used (kb):           0.
  
                          Minor page faults:        15987
                          Major page faults:            0
                 Voluntary context switches:         1450
