unknown system                          
   1.00000000000000     
     0.000000    2.840052    0.000000
     0.000000    0.000000   -2.840052
    -2.840052    0.000000    0.000000
   Fe
     2
Direct
  0.500000  0.500000  0.500000
  0.000000  0.000000  0.000000
 
   48   48   48
 0.23162296594E+07 0.23835914951E+05 0.76508621204E+04 0.16812099231E+04 0.37428040126E+03
 0.14846048453E+03 0.92218727226E+02 0.59882919684E+02 0.36724494596E+02 0.21373967393E+02
 0.12000084880E+02 0.65816355805E+01 0.35562251151E+01 0.19036274646E+01 0.10129799281E+01
 0.53733580297E+00 0.28447099823E+00 0.15059357576E+00 0.79681598552E-01 0.42275518452E-01
 0.22488450963E-01 0.12151253470E-01 0.68046226649E-02 0.43247306530E-02 0.35680132869E-02
 0.43247306535E-02 0.68046226651E-02 0.12151253470E-01 0.22488450963E-01 0.42275518452E-01
 0.79681598552E-01 0.15059357576E+00 0.28447099823E+00 0.53733580297E+00 0.10129799281E+01
 0.19036274646E+01 0.35562251151E+01 0.65816355805E+01 0.12000084880E+02 0.21373967393E+02
 0.36724494596E+02 0.59882919684E+02 0.92218727226E+02 0.14846048453E+03 0.37428040126E+03
 0.16812099231E+04 0.76508621204E+04 0.23835914951E+05 0.23835914951E+05 0.15267691806E+05
 0.54966990494E+04 0.12959986750E+04 0.32137059965E+03 0.14005990729E+03 0.89089111553E+02
 0.57955606758E+02 0.35555651641E+02 0.20718067660E+02 0.11651423644E+02 0.64022088739E+01
 0.34655251419E+01 0.18581942867E+01 0.99037329418E+00 0.52611154340E+00 0.27887841739E+00
 0.14780209744E+00 0.78289040179E-01 0.41575806337E-01 0.22137955201E-01 0.11971086331E-01
 0.67106405154E-02 0.42673125284E-02 0.35232491937E-02 0.42673125290E-02 0.67106405154E-02
 0.11971086331E-01 0.22137955201E-01 0.41575806337E-01 0.78289040179E-01 0.14780209744E+00
 0.27887841739E+00 0.52611154340E+00 0.99037329418E+00 0.18581942867E+01 0.34655251419E+01
 0.64022088739E+01 0.11651423644E+02 0.20718067660E+02 0.35555651641E+02 0.57955606758E+02
 0.89089111553E+02 0.14005990729E+03 0.32137059965E+03 0.12959986750E+04 0.54966990494E+04
 0.15267691806E+05 0.76508621204E+04 0.54966990494E+04 0.22127510177E+04 0.64931300005E+03
 0.22162633780E+03 0.12070287509E+03 0.80513299551E+02 0.52541092010E+02 0.32277711192E+02
 0.18878268968E+02 0.10670718953E+02 0.58954916623E+01 0.32086007772E+01 0.17289977973E+01
 0.92587927084E+00 0.49392776717E+00 0.26281281840E+00 0.13975814758E+00 0.74272159447E-01
 0.39547805330E-01 0.21122700251E-01 0.11445985419E-01 0.64405233185E-02 0.41002106847E-02
 0.33966687534E-02 0.41002106848E-02 0.64405233186E-02 0.11445985419E-01 0.21122700251E-01
 0.39547805330E-01 0.74272159447E-01 0.13975814758E+00 0.26281281841E+00 0.49392776717E+00
 0.92587927084E+00 0.17289977973E+01 0.32086007772E+01 0.58954916623E+01 0.10670718953E+02
 0.18878268968E+02 0.32277711192E+02 0.52541092010E+02 0.80513299551E+02 0.12070287509E+03
 0.22162633780E+03 0.64931300005E+03 0.22127510177E+04 0.54966990494E+04 0.16812099231E+04
 0.12959986750E+04 0.64931300005E+03 0.28007102830E+03 0.14846047071E+03 0.98992467864E+02
 0.68264776937E+02 0.44629154169E+02 0.27505627258E+02 0.16195795032E+02 0.92328107773E+01
 0.51470589521E+01 0.28256717262E+01 0.15354243281E+01 0.82831823142E+00 0.44489684416E+00
 0.23825081103E+00 0.12739205840E+00 0.68068701323E-01 0.36403521021E-01 0.19543662072E-01
 0.10626187996E-01 0.60171265373E-02 0.38369770987E-02 0.31969778627E-02 0.38369770988E-02
 0.60171265375E-02 0.10626187996E-01 0.19543662072E-01 0.36403521021E-01 0.68068701323E-01
 0.12739205840E+00 0.23825081103E+00 0.44489684416E+00 0.82831823142E+00 0.15354243281E+01
 0.28256717262E+01 0.51470589521E+01 0.92328107773E+01 0.16195795032E+02 0.27505627258E+02
 0.44629154169E+02 0.68264776937E+02 0.98992467864E+02 0.14846047071E+03 0.28007102830E+03
 0.64931300005E+03 0.12959986750E+04 0.37428040126E+03 0.32137059965E+03 0.22162633780E+03
 0.14846047071E+03 0.10665921503E+03 0.77881349696E+02 0.54286765480E+02 0.35555665185E+02
 0.22052436514E+02 0.13117202213E+02 0.75671615723E+01 0.42702768915E+01 0.23722602033E+01
 0.13032250946E+01 0.71033666251E+00 0.38509799326E+00 0.20799849413E+00 0.11204239230E+00
 0.60315812741E-01 0.32449728693E-01 0.17546607668E-01 0.95855425336E-02 0.54784195815E-02
 0.35021119228E-02 0.29430011588E-02 0.35021119229E-02 0.54784195816E-02 0.95855425336E-02
 0.17546607668E-01 0.32449728693E-01 0.60315812741E-01 0.11204239230E+00 0.20799849413E+00
 0.38509799326E+00 0.71033666251E+00 0.13032250946E+01 0.23722602033E+01 0.42702768915E+01
 0.75671615723E+01 0.13117202213E+02 0.22052436514E+02 0.35555665185E+02 0.54286765480E+02
 0.77881349696E+02 0.10665921503E+03 0.14846047071E+03 0.22162633780E+03 0.32137059965E+03
 0.14846048453E+03 0.14005990729E+03 0.12070287509E+03 0.98992467864E+02 0.77881349696E+02
 0.57955597155E+02 0.40477661017E+02 0.26644878206E+02 0.16696946966E+02 0.10067706963E+02
 0.58954837422E+01 0.33774316907E+01 0.19036224954E+01 0.10599698433E+01 0.58499493317E+00
 0.32076758465E+00 0.17511004345E+00 0.95214703927E-01 0.51721691797E-01 0.28049426327E-01
 0.15296217820E-01 0.84184276277E-02 0.48600140730E-02 0.31278771922E-02 0.26465460003E-02
 0.31278771924E-02 0.48600140730E-02 0.84184276277E-02 0.15296217820E-01 0.28049426327E-01
 0.51721691797E-01 0.95214703927E-01 0.17511004345E+00 0.32076758465E+00 0.58499493317E+00
 0.10599698433E+01 0.19036224954E+01 0.33774316907E+01 0.58954837422E+01 0.10067706963E+02
 0.16696946966E+02 0.26644878206E+02 0.40477661017E+02 0.57955597155E+02 0.77881349696E+02
 0.98992467864E+02 0.12070287509E+03 0.14005990729E+03 0.92218727226E+02 0.89089111553E+02
 0.80513299551E+02 0.68264776937E+02 0.54286765480E+02 0.40477661017E+02 0.28396185377E+02
 0.18878254989E+02 0.12000098275E+02 0.73575995955E+01 0.43846714566E+01 0.25559861580E+01
 0.14647080014E+01 0.82833712533E+00 0.46383732871E+00 0.25771382372E+00 0.14239253286E+00
 0.78315758501E-01 0.42973538050E-01 0.23549954184E-01 0.12957566647E-01 0.72162518572E-02
 0.42049008111E-02 0.27486428796E-02 0.23280449509E-02 0.27486428799E-02 0.42049008112E-02
 0.72162518571E-02 0.12957566647E-01 0.23549954184E-01 0.42973538050E-01 0.78315758501E-01
 0.14239253286E+00 0.25771382372E+00 0.46383732871E+00 0.82833712533E+00 0.14647080014E+01
 0.25559861580E+01 0.43846714566E+01 0.73575995955E+01 0.12000098275E+02 0.18878254989E+02
 0.28396185377E+02 0.40477661017E+02 0.54286765480E+02 0.68264776937E+02 0.80513299551E+02
 0.89089111553E+02 0.59882919684E+02 0.57955606758E+02 0.52541092010E+02 0.44629154169E+02
 0.35555665185E+02 0.26644878206E+02 0.18878254989E+02 0.12732547773E+02 0.82362185538E+01
 0.51470442355E+01 0.31276516937E+01 0.18581900415E+01 0.10843779869E+01 0.62385672424E+00
 0.35493801805E+00 0.20016751174E+00 0.11206822131E+00 0.62455018434E-01 0.34656583669E-01
 0.19235429906E-01 0.10690767232E-01 0.60500421168E-02 0.35614436304E-02 0.23825846202E-02
 0.20137989791E-02 0.23825846202E-02 0.35614436305E-02 0.60500421168E-02 0.10690767232E-01
 0.19235429906E-01 0.34656583669E-01 0.62455018434E-01 0.11206822131E+00 0.20016751174E+00
 0.35493801805E+00 0.62385672424E+00 0.10843779869E+01 0.18581900415E+01 0.31276516937E+01
 0.51470442355E+01 0.82362185538E+01 0.12732547773E+02 0.18878254989E+02 0.26644878206E+02
 0.35555665185E+02 0.44629154169E+02 0.52541092010E+02 0.57955606758E+02 0.36724494596E+02
 0.35555651641E+02 0.32277711192E+02 0.27505627258E+02 0.22052436514E+02 0.16696946966E+02
 0.12000098275E+02 0.82362185538E+01 0.54328732320E+01 0.34655598930E+01 0.21497579073E+01
 0.13032353922E+01 0.77529284440E+00 0.45426852801E+00 0.26287235920E+00 0.15061628304E+00
 0.85593104609E-01 0.48361663165E-01 0.27206826430E-01 0.15297431078E-01 0.86309415889E-02
 0.49614549323E-02 0.29861742836E-02 0.20357717696E-02 0.17447442078E-02 0.20357717699E-02
 0.29861742836E-02 0.49614549322E-02 0.86309415889E-02 0.15297431078E-01 0.27206826430E-01
 0.48361663165E-01 0.85593104610E-01 0.15061628304E+00 0.26287235920E+00 0.45426852801E+00
 0.77529284440E+00 0.13032353922E+01 0.21497579073E+01 0.34655598930E+01 0.54328732320E+01
 0.82362185538E+01 0.12000098275E+02 0.16696946966E+02 0.22052436514E+02 0.27505627258E+02
 0.32277711192E+02 0.35555651641E+02 0.21373967393E+02 0.20718067660E+02 0.18878268968E+02
 0.16195795032E+02 0.13117202213E+02 0.10067706963E+02 0.73575995955E+01 0.51470442355E+01
 0.34655598930E+01 0.22579566055E+01 0.14306929652E+01 0.88552455203E+00 0.53734474074E+00
 0.32081954255E+00 0.18900563331E+00 0.11008501568E+00 0.63580345286E-01 0.36454791591E-01
 0.20834130786E-01 0.11886462166E-01 0.68414148634E-02 0.40076235854E-02 0.24927487808E-02
 0.17358559699E-02 0.15234678351E-02 0.17358559692E-02 0.24927487808E-02 0.40076235854E-02
 0.68414148634E-02 0.11886462166E-01 0.20834130786E-01 0.36454791590E-01 0.63580345286E-01
 0.11008501568E+00 0.18900563331E+00 0.32081954255E+00 0.53734474074E+00 0.88552455203E+00
 0.14306929652E+01 0.22579566055E+01 0.34655598930E+01 0.51470442355E+01 0.73575995955E+01
 0.10067706963E+02 0.13117202213E+02 0.16195795032E+02 0.18878268968E+02 0.20718067660E+02
 0.12000084880E+02 0.11651423644E+02 0.10670718953E+02 0.92328107773E+01 0.75671615723E+01
 0.58954837422E+01 0.43846714566E+01 0.31276516937E+01 0.21497579073E+01 0.14306929652E+01
 0.92594524567E+00 0.58500647057E+00 0.36227110334E+00 0.22048015708E+00 0.13225035996E+00
 0.78400474166E-01 0.46026243787E-01 0.26844128793E-01 0.15593106943E-01 0.90789419170E-02
 0.53364421015E-02 0.32333755700E-02 0.20796266691E-02 0.15187622626E-02 0.13448707822E-02
 0.15187622626E-02 0.20796266690E-02 0.32333755700E-02 0.53364421015E-02 0.90789419169E-02
 0.15593106943E-01 0.26844128792E-01 0.46026243786E-01 0.78400474166E-01 0.13225035996E+00
 0.22048015708E+00 0.36227110334E+00 0.58500647057E+00 0.92594524567E+00 0.14306929652E+01
 0.21497579073E+01 0.31276516937E+01 0.43846714566E+01 0.58954837422E+01 0.75671615723E+01
 0.92328107773E+01 0.10670718953E+02 0.11651423644E+02 0.65816355805E+01 0.64022088739E+01
 0.58954916623E+01 0.51470589521E+01 0.42702768915E+01 0.33774316907E+01 0.25559861580E+01
 0.18581900415E+01 0.13032353922E+01 0.88552455203E+00 0.58500647057E+00 0.37736295744E+00
 0.23833436632E+00 0.14786051224E+00 0.90354022325E-01 0.54526851504E-01 0.32589626545E-01
 0.19353224976E-01 0.11473832325E-01 0.68410180433E-02 0.41539799321E-02 0.26222691243E-02
 0.17810614419E-02 0.13647546651E-02 0.12399232934E-02 0.13647546651E-02 0.17810614420E-02
 0.26222691242E-02 0.41539799321E-02 0.68410180433E-02 0.11473832325E-01 0.19353224976E-01
 0.32589626546E-01 0.54526851504E-01 0.90354022325E-01 0.14786051224E+00 0.23833436632E+00
 0.37736295744E+00 0.58500647057E+00 0.88552455203E+00 0.13032353922E+01 0.18581900415E+01
 0.25559861580E+01 0.33774316907E+01 0.42702768915E+01 0.51470589521E+01 0.58954916623E+01
 0.64022088739E+01 0.35562251152E+01 0.34655251419E+01 0.32086007772E+01 0.28256717262E+01
 0.23722602033E+01 0.19036224954E+01 0.14647080014E+01 0.10843779869E+01 0.77529284441E+00
 0.53734474074E+00 0.36227110334E+00 0.23833436632E+00 0.15350212349E+00 0.97065484327E-01
 0.60435943752E-01 0.37158099303E-01 0.22639369962E-01 0.13729841744E-01 0.83475237343E-02
 0.51396647076E-02 0.32605804967E-02 0.21813494819E-02 0.15879346384E-02 0.12927401870E-02
 0.12052532793E-02 0.12927401871E-02 0.15879346383E-02 0.21813494819E-02 0.32605804967E-02
 0.51396647076E-02 0.83475237343E-02 0.13729841743E-01 0.22639369962E-01 0.37158099303E-01
 0.60435943752E-01 0.97065484328E-01 0.15350212349E+00 0.23833436632E+00 0.36227110334E+00
 0.53734474074E+00 0.77529284441E+00 0.10843779869E+01 0.14647080014E+01 0.19036224954E+01
 0.23722602033E+01 0.28256717262E+01 0.32086007772E+01 0.34655251419E+01 0.19036274646E+01
 0.18581942867E+01 0.17289977973E+01 0.15354243281E+01 0.13032250946E+01 0.10599698433E+01
 0.82833712533E+00 0.62385672424E+00 0.45426852801E+00 0.32081954255E+00 0.22048015708E+00
 0.14786051224E+00 0.97065484323E-01 0.62557470534E-01 0.39699960041E-01 0.24898603570E-01
 0.15501745610E-01 0.96474990308E-02 0.60597796572E-02 0.39047541576E-02 0.26331618618E-02
 0.19031727515E-02 0.14989330595E-02 0.13006747523E-02 0.12399232908E-02 0.13006747528E-02
 0.14989330595E-02 0.19031727515E-02 0.26331618618E-02 0.39047541576E-02 0.60597796572E-02
 0.96474990307E-02 0.15501745609E-01 0.24898603570E-01 0.39699960041E-01 0.62557470534E-01
 0.97065484323E-01 0.14786051224E+00 0.22048015708E+00 0.32081954255E+00 0.45426852801E+00
 0.62385672424E+00 0.82833712533E+00 0.10599698433E+01 0.13032250946E+01 0.15354243281E+01
 0.17289977973E+01 0.18581942867E+01 0.10129799281E+01 0.99037329418E+00 0.92587927084E+00
 0.82831823142E+00 0.71033666251E+00 0.58499493317E+00 0.46383732871E+00 0.35493801805E+00
 0.26287235920E+00 0.18900563331E+00 0.13225035997E+00 0.90354022326E-01 0.60435943753E-01
 0.39699960039E-01 0.25705163342E-01 0.16479835358E-01 0.10532912355E-01 0.67763819359E-02
 0.44590251329E-02 0.30565920100E-02 0.22302415415E-02 0.17578076680E-02 0.15039014495E-02
 0.13802317898E-02 0.13448707811E-02 0.13802317900E-02 0.15039014494E-02 0.17578076680E-02
 0.22302415415E-02 0.30565920100E-02 0.44590251329E-02 0.67763819359E-02 0.10532912357E-01
 0.16479835358E-01 0.25705163342E-01 0.39699960039E-01 0.60435943753E-01 0.90354022326E-01
 0.13225035997E+00 0.18900563331E+00 0.26287235920E+00 0.35493801805E+00 0.46383732871E+00
 0.58499493317E+00 0.71033666251E+00 0.82831823142E+00 0.92587927084E+00 0.99037329418E+00
 0.53733580299E+00 0.52611154340E+00 0.49392776717E+00 0.44489684416E+00 0.38509799326E+00
 0.32076758465E+00 0.25771382373E+00 0.20016751174E+00 0.15061628303E+00 0.11008501568E+00
 0.78400474166E-01 0.54526851507E-01 0.37158099309E-01 0.24898603570E-01 0.16479835360E-01
 0.10847477009E-01 0.71697038683E-02 0.48340551618E-02 0.33834081624E-02 0.25138136613E-02
 0.20146875346E-02 0.17443585706E-02 0.16049309509E-02 0.15422042360E-02 0.15234678058E-02
 0.15422042367E-02 0.16049309509E-02 0.17443585707E-02 0.20146875345E-02 0.25138136613E-02
 0.33834081624E-02 0.48340551617E-02 0.71697038693E-02 0.10847477009E-01 0.16479835360E-01
 0.24898603570E-01 0.37158099309E-01 0.54526851507E-01 0.78400474166E-01 0.11008501568E+00
 0.15061628303E+00 0.20016751174E+00 0.25771382373E+00 0.32076758465E+00 0.38509799326E+00
 0.44489684416E+00 0.49392776717E+00 0.52611154340E+00 0.28447099822E+00 0.27887841739E+00
 0.26281281840E+00 0.23825081103E+00 0.20799849413E+00 0.17511004345E+00 0.14239253286E+00
 0.11206822131E+00 0.85593104613E-01 0.63580345290E-01 0.46026243784E-01 0.32589626548E-01
 0.22639369961E-01 0.15501745609E-01 0.10532912361E-01 0.71697038672E-02 0.49666814761E-02
 0.35616888392E-02 0.27078371135E-02 0.22195217284E-02 0.19574564722E-02 0.18261209497E-02
 0.17693998806E-02 0.17486726704E-02 0.17447442034E-02 0.17486726704E-02 0.17693998806E-02
 0.18261209497E-02 0.19574564721E-02 0.22195217285E-02 0.27078371135E-02 0.35616888391E-02
 0.49666814756E-02 0.71697038672E-02 0.10532912361E-01 0.15501745609E-01 0.22639369961E-01
 0.32589626548E-01 0.46026243784E-01 0.63580345290E-01 0.85593104612E-01 0.11206822131E+00
 0.14239253286E+00 0.17511004345E+00 0.20799849413E+00 0.23825081103E+00 0.26281281840E+00
 0.27887841739E+00 0.15059357576E+00 0.14780209744E+00 0.13975814758E+00 0.12739205840E+00
 0.11204239230E+00 0.95214703929E-01 0.78315758503E-01 0.62455018433E-01 0.48361663160E-01
 0.36454791589E-01 0.26844128794E-01 0.19353224975E-01 0.13729841745E-01 0.96474990302E-02
 0.67763819369E-02 0.48340551619E-02 0.35616888401E-02 0.27769354319E-02 0.23317162701E-02
 0.20986512698E-02 0.19960689279E-02 0.19721733042E-02 0.19851150214E-02 0.20053814868E-02
 0.20137989718E-02 0.20053814871E-02 0.19851150214E-02 0.19721733042E-02 0.19960689279E-02
 0.20986512699E-02 0.23317162701E-02 0.27769354319E-02 0.35616888416E-02 0.48340551619E-02
 0.67763819370E-02 0.96474990303E-02 0.13729841745E-01 0.19353224975E-01 0.26844128794E-01
 0.36454791589E-01 0.48361663162E-01 0.62455018433E-01 0.78315758503E-01 0.95214703929E-01
 0.11204239230E+00 0.12739205840E+00 0.13975814758E+00 0.14780209744E+00 0.79681598560E-01
 0.78289040184E-01 0.74272159443E-01 0.68068701323E-01 0.60315812741E-01 0.51721691793E-01
 0.42973538048E-01 0.34656583669E-01 0.27206826430E-01 0.20834130783E-01 0.15593106943E-01
 0.11473832328E-01 0.83475237379E-02 0.60597796586E-02 0.44590251350E-02 0.33834081627E-02
 0.27078371169E-02 0.23317162699E-02 0.21477797983E-02 0.20901531795E-02 0.21165553938E-02
 0.21836346038E-02 0.22563942361E-02 0.23087088207E-02 0.23280449426E-02 0.23087088207E-02
 0.22563942361E-02 0.21836346038E-02 0.21165553938E-02 0.20901531795E-02 0.21477797983E-02
 0.23317162700E-02 0.27078371162E-02 0.33834081628E-02 0.44590251350E-02 0.60597796587E-02
 0.83475237379E-02 0.11473832328E-01 0.15593106943E-01 0.20834130783E-01 0.27206826429E-01
 0.34656583669E-01 0.42973538048E-01 0.51721691793E-01 0.60315812741E-01 0.68068701323E-01
 0.74272159443E-01 0.78289040184E-01 0.42275518451E-01 0.41575806337E-01 0.39547805331E-01
 0.36403521022E-01 0.32449728694E-01 0.28049426327E-01 0.23549954188E-01 0.19235429907E-01
 0.15297431075E-01 0.11886462167E-01 0.90789419176E-02 0.68410180443E-02 0.51396647088E-02
 0.39047541578E-02 0.30565920070E-02 0.25138136583E-02 0.22195217258E-02 0.20986512691E-02
 0.20901531803E-02 0.21688605795E-02 0.22939574146E-02 0.24302817343E-02 0.25443226403E-02
 0.26210799085E-02 0.26465459862E-02 0.26210799086E-02 0.25443226403E-02 0.24302817343E-02
 0.22939574146E-02 0.21688605795E-02 0.20901531803E-02 0.20986512691E-02 0.22195217242E-02
 0.25138136584E-02 0.30565920070E-02 0.39047541578E-02 0.51396647088E-02 0.68410180443E-02
 0.90789419176E-02 0.11886462167E-01 0.15297431075E-01 0.19235429908E-01 0.23549954188E-01
 0.28049426327E-01 0.32449728694E-01 0.36403521022E-01 0.39547805331E-01 0.41575806337E-01
 0.22488450947E-01 0.22137955203E-01 0.21122700253E-01 0.19543662070E-01 0.17546607670E-01
 0.15296217819E-01 0.12957566637E-01 0.10690767231E-01 0.86309415923E-02 0.68414148669E-02
 0.53364421028E-02 0.41539799307E-02 0.32605804920E-02 0.26331618623E-02 0.22302415427E-02
 0.20146875330E-02 0.19574564757E-02 0.19960689306E-02 0.21165554012E-02 0.22939574176E-02
 0.24923141382E-02 0.26735216836E-02 0.28186248366E-02 0.29103626511E-02 0.29430011493E-02
 0.29103626509E-02 0.28186248368E-02 0.26735216836E-02 0.24923141382E-02 0.22939574176E-02
 0.21165554012E-02 0.19960689305E-02 0.19574564778E-02 0.20146875330E-02 0.22302415427E-02
 0.26331618623E-02 0.32605804920E-02 0.41539799306E-02 0.53364421028E-02 0.68414148669E-02
 0.86309415925E-02 0.10690767231E-01 0.12957566637E-01 0.15296217818E-01 0.17546607670E-01
 0.19543662070E-01 0.21122700253E-01 0.22137955203E-01 0.12151253470E-01 0.11971086331E-01
 0.11445985419E-01 0.10626187995E-01 0.95855425312E-02 0.84184276286E-02 0.72162518566E-02
 0.60500421166E-02 0.49614549378E-02 0.40076235816E-02 0.32333755704E-02 0.26222691230E-02
 0.21813494796E-02 0.19031727518E-02 0.17578076668E-02 0.17443585750E-02 0.18261209552E-02
 0.19721733006E-02 0.21836345989E-02 0.24302817348E-02 0.26735216831E-02 0.28869562018E-02
 0.30536988568E-02 0.31602798690E-02 0.31969778445E-02 0.31602798686E-02 0.30536988569E-02
 0.28869562017E-02 0.26735216831E-02 0.24302817348E-02 0.21836345989E-02 0.19721733006E-02
 0.18261209531E-02 0.17443585749E-02 0.17578076668E-02 0.19031727519E-02 0.21813494796E-02
 0.26222691230E-02 0.32333755704E-02 0.40076235815E-02 0.49614549376E-02 0.60500421167E-02
 0.72162518566E-02 0.84184276286E-02 0.95855425312E-02 0.10626187995E-01 0.11445985419E-01
 0.11971086331E-01 0.68046226688E-02 0.67106405164E-02 0.64405233199E-02 0.60171265385E-02
 0.54784195822E-02 0.48600140720E-02 0.42049008163E-02 0.35614436294E-02 0.29861742813E-02
 0.24927487820E-02 0.20796266676E-02 0.17810614408E-02 0.15879346369E-02 0.14989330601E-02
 0.15039014498E-02 0.16049309517E-02 0.17693998822E-02 0.19851150205E-02 0.22563942300E-02
 0.25443226398E-02 0.28186248382E-02 0.30536988569E-02 0.32386031958E-02 0.33551130982E-02
 0.33966687652E-02 0.33551130982E-02 0.32386031960E-02 0.30536988569E-02 0.28186248382E-02
 0.25443226399E-02 0.22563942300E-02 0.19851150205E-02 0.17693998773E-02 0.16049309517E-02
 0.15039014498E-02 0.14989330601E-02 0.15879346369E-02 0.17810614408E-02 0.20796266677E-02
 0.24927487820E-02 0.29861742801E-02 0.35614436295E-02 0.42049008163E-02 0.48600140720E-02
 0.54784195821E-02 0.60171265385E-02 0.64405233199E-02 0.67106405163E-02 0.43247306560E-02
 0.42673125294E-02 0.41002106860E-02 0.38369770987E-02 0.35021119197E-02 0.31278771916E-02
 0.27486428789E-02 0.23825846206E-02 0.20357717692E-02 0.17358559691E-02 0.15187622627E-02
 0.13647546672E-02 0.12927401825E-02 0.13006747550E-02 0.13802317885E-02 0.15422042402E-02
 0.17486726666E-02 0.20053814848E-02 0.23087088177E-02 0.26210799082E-02 0.29103626506E-02
 0.31602798670E-02 0.33551130991E-02 0.34803363269E-02 0.35232491864E-02 0.34803363260E-02
 0.33551130991E-02 0.31602798670E-02 0.29103626507E-02 0.26210799081E-02 0.23087088176E-02
 0.20053814848E-02 0.17486726755E-02 0.15422042402E-02 0.13802317885E-02 0.13006747550E-02
 0.12927401825E-02 0.13647546671E-02 0.15187622627E-02 0.17358559691E-02 0.20357717685E-02
 0.23825846206E-02 0.27486428789E-02 0.31278771916E-02 0.35021119196E-02 0.38369770987E-02
 0.41002106859E-02 0.42673125294E-02 0.35680133306E-02 0.35232491864E-02 0.33966687616E-02
 0.31969778528E-02 0.29430011615E-02 0.26465459976E-02 0.23280449503E-02 0.20137989702E-02
 0.17447441992E-02 0.15234678276E-02 0.13448707867E-02 0.12399232989E-02 0.12052532708E-02
 0.12399232986E-02 0.13448707892E-02 0.15234678275E-02 0.17447441933E-02 0.20137989695E-02
 0.23280449455E-02 0.26465459976E-02 0.29430011614E-02 0.31969778533E-02 0.33966687593E-02
 0.35232491828E-02 0.35680134315E-02 0.35232491828E-02 0.33966687593E-02 0.31969778531E-02
 0.29430011614E-02 0.26465459976E-02 0.23280449455E-02 0.20137989695E-02 0.17447441934E-02
 0.15234678275E-02 0.13448707893E-02 0.12399232986E-02 0.12052532708E-02 0.12399232988E-02
 0.13448707867E-02 0.15234678276E-02 0.17447441991E-02 0.20137989703E-02 0.23280449503E-02
 0.26465459977E-02 0.29430011613E-02 0.31969778528E-02 0.33966687616E-02 0.35232491867E-02
 0.43247306561E-02 0.42673125294E-02 0.41002106860E-02 0.38369770987E-02 0.35021119197E-02
 0.31278771916E-02 0.27486428789E-02 0.23825846206E-02 0.20357717686E-02 0.17358559691E-02
 0.15187622627E-02 0.13647546672E-02 0.12927401825E-02 0.13006747550E-02 0.13802317885E-02
 0.15422042402E-02 0.17486726754E-02 0.20053814848E-02 0.23087088177E-02 0.26210799082E-02
 0.29103626506E-02 0.31602798667E-02 0.33551130991E-02 0.34803363278E-02 0.35232491864E-02
 0.34803363287E-02 0.33551131000E-02 0.31602798670E-02 0.29103626506E-02 0.26210799082E-02
 0.23087088177E-02 0.20053814848E-02 0.17486726666E-02 0.15422042402E-02 0.13802317885E-02
 0.13006747550E-02 0.12927401825E-02 0.13647546671E-02 0.15187622627E-02 0.17358559691E-02
 0.20357717691E-02 0.23825846206E-02 0.27486428789E-02 0.31278771916E-02 0.35021119196E-02
 0.38369770987E-02 0.41002106860E-02 0.42673125294E-02 0.68046226687E-02 0.67106405164E-02
 0.64405233198E-02 0.60171265385E-02 0.54784195822E-02 0.48600140720E-02 0.42049008163E-02
 0.35614436294E-02 0.29861742802E-02 0.24927487820E-02 0.20796266676E-02 0.17810614408E-02
 0.15879346369E-02 0.14989330601E-02 0.15039014497E-02 0.16049309517E-02 0.17693998773E-02
 0.19851150206E-02 0.22563942300E-02 0.25443226399E-02 0.28186248382E-02 0.30536988570E-02
 0.32386031960E-02 0.33551130991E-02 0.33966687656E-02 0.33551130978E-02 0.32386031960E-02
 0.30536988570E-02 0.28186248382E-02 0.25443226399E-02 0.22563942301E-02 0.19851150205E-02
 0.17693998822E-02 0.16049309517E-02 0.15039014498E-02 0.14989330601E-02 0.15879346369E-02
 0.17810614408E-02 0.20796266677E-02 0.24927487820E-02 0.29861742813E-02 0.35614436295E-02
 0.42049008163E-02 0.48600140720E-02 0.54784195821E-02 0.60171265385E-02 0.64405233198E-02
 0.67106405164E-02 0.12151253470E-01 0.11971086331E-01 0.11445985419E-01 0.10626187995E-01
 0.95855425312E-02 0.84184276286E-02 0.72162518566E-02 0.60500421166E-02 0.49614549377E-02
 0.40076235815E-02 0.32333755704E-02 0.26222691230E-02 0.21813494796E-02 0.19031727518E-02
 0.17578076668E-02 0.17443585749E-02 0.18261209532E-02 0.19721733006E-02 0.21836345989E-02
 0.24302817348E-02 0.26735216831E-02 0.28869562017E-02 0.30536988568E-02 0.31602798690E-02
 0.31969778443E-02 0.31602798688E-02 0.30536988568E-02 0.28869562017E-02 0.26735216831E-02
 0.24302817348E-02 0.21836345989E-02 0.19721733006E-02 0.18261209552E-02 0.17443585750E-02
 0.17578076668E-02 0.19031727519E-02 0.21813494796E-02 0.26222691230E-02 0.32333755704E-02
 0.40076235816E-02 0.49614549378E-02 0.60500421167E-02 0.72162518566E-02 0.84184276286E-02
 0.95855425312E-02 0.10626187995E-01 0.11445985419E-01 0.11971086331E-01 0.22488450947E-01
 0.22137955203E-01 0.21122700253E-01 0.19543662070E-01 0.17546607670E-01 0.15296217819E-01
 0.12957566637E-01 0.10690767231E-01 0.86309415926E-02 0.68414148669E-02 0.53364421028E-02
 0.41539799307E-02 0.32605804920E-02 0.26331618623E-02 0.22302415427E-02 0.20146875330E-02
 0.19574564778E-02 0.19960689306E-02 0.21165554012E-02 0.22939574177E-02 0.24923141382E-02
 0.26735216836E-02 0.28186248366E-02 0.29103626510E-02 0.29430011495E-02 0.29103626510E-02
 0.28186248368E-02 0.26735216836E-02 0.24923141382E-02 0.22939574176E-02 0.21165554012E-02
 0.19960689306E-02 0.19574564757E-02 0.20146875331E-02 0.22302415427E-02 0.26331618623E-02
 0.32605804920E-02 0.41539799306E-02 0.53364421028E-02 0.68414148669E-02 0.86309415923E-02
 0.10690767231E-01 0.12957566637E-01 0.15296217818E-01 0.17546607670E-01 0.19543662070E-01
 0.21122700253E-01 0.22137955203E-01 0.42275518451E-01 0.41575806337E-01 0.39547805331E-01
 0.36403521022E-01 0.32449728694E-01 0.28049426327E-01 0.23549954188E-01 0.19235429907E-01
 0.15297431075E-01 0.11886462167E-01 0.90789419176E-02 0.68410180443E-02 0.51396647088E-02
 0.39047541578E-02 0.30565920070E-02 0.25138136584E-02 0.22195217242E-02 0.20986512691E-02
 0.20901531803E-02 0.21688605795E-02 0.22939574146E-02 0.24302817344E-02 0.25443226402E-02
 0.26210799085E-02 0.26465459863E-02 0.26210799085E-02 0.25443226403E-02 0.24302817344E-02
 0.22939574146E-02 0.21688605795E-02 0.20901531803E-02 0.20986512691E-02 0.22195217258E-02
 0.25138136583E-02 0.30565920070E-02 0.39047541578E-02 0.51396647088E-02 0.68410180443E-02
 0.90789419176E-02 0.11886462167E-01 0.15297431075E-01 0.19235429908E-01 0.23549954188E-01
 0.28049426327E-01 0.32449728694E-01 0.36403521022E-01 0.39547805331E-01 0.41575806337E-01
 0.79681598560E-01 0.78289040184E-01 0.74272159443E-01 0.68068701323E-01 0.60315812741E-01
 0.51721691793E-01 0.42973538048E-01 0.34656583669E-01 0.27206826429E-01 0.20834130783E-01
 0.15593106943E-01 0.11473832328E-01 0.83475237380E-02 0.60597796586E-02 0.44590251351E-02
 0.33834081628E-02 0.27078371162E-02 0.23317162700E-02 0.21477797983E-02 0.20901531795E-02
 0.21165553939E-02 0.21836346038E-02 0.22563942361E-02 0.23087088207E-02 0.23280449426E-02
 0.23087088208E-02 0.22563942361E-02 0.21836346038E-02 0.21165553938E-02 0.20901531795E-02
 0.21477797983E-02 0.23317162700E-02 0.27078371169E-02 0.33834081628E-02 0.44590251350E-02
 0.60597796587E-02 0.83475237380E-02 0.11473832328E-01 0.15593106943E-01 0.20834130783E-01
 0.27206826429E-01 0.34656583669E-01 0.42973538048E-01 0.51721691793E-01 0.60315812741E-01
 0.68068701323E-01 0.74272159443E-01 0.78289040184E-01 0.15059357576E+00 0.14780209744E+00
 0.13975814758E+00 0.12739205840E+00 0.11204239230E+00 0.95214703929E-01 0.78315758503E-01
 0.62455018433E-01 0.48361663162E-01 0.36454791589E-01 0.26844128794E-01 0.19353224975E-01
 0.13729841745E-01 0.96474990302E-02 0.67763819369E-02 0.48340551619E-02 0.35616888417E-02
 0.27769354319E-02 0.23317162702E-02 0.20986512699E-02 0.19960689279E-02 0.19721733043E-02
 0.19851150215E-02 0.20053814867E-02 0.20137989721E-02 0.20053814871E-02 0.19851150215E-02
 0.19721733043E-02 0.19960689279E-02 0.20986512699E-02 0.23317162702E-02 0.27769354319E-02
 0.35616888401E-02 0.48340551619E-02 0.67763819370E-02 0.96474990303E-02 0.13729841745E-01
 0.19353224975E-01 0.26844128794E-01 0.36454791589E-01 0.48361663160E-01 0.62455018433E-01
 0.78315758503E-01 0.95214703929E-01 0.11204239230E+00 0.12739205840E+00 0.13975814758E+00
 0.14780209744E+00 0.28447099822E+00 0.27887841739E+00 0.26281281840E+00 0.23825081103E+00
 0.20799849413E+00 0.17511004345E+00 0.14239253286E+00 0.11206822131E+00 0.85593104612E-01
 0.63580345290E-01 0.46026243784E-01 0.32589626548E-01 0.22639369961E-01 0.15501745609E-01
 0.10532912361E-01 0.71697038672E-02 0.49666814756E-02 0.35616888392E-02 0.27078371135E-02
 0.22195217285E-02 0.19574564722E-02 0.18261209498E-02 0.17693998806E-02 0.17486726705E-02
 0.17447442032E-02 0.17486726703E-02 0.17693998807E-02 0.18261209498E-02 0.19574564722E-02
 0.22195217285E-02 0.27078371135E-02 0.35616888392E-02 0.49666814761E-02 0.71697038672E-02
 0.10532912361E-01 0.15501745609E-01 0.22639369961E-01 0.32589626548E-01 0.46026243784E-01
 0.63580345290E-01 0.85593104613E-01 0.11206822131E+00 0.14239253286E+00 0.17511004345E+00
 0.20799849413E+00 0.23825081103E+00 0.26281281840E+00 0.27887841739E+00 0.53733580299E+00
 0.52611154340E+00 0.49392776717E+00 0.44489684416E+00 0.38509799326E+00 0.32076758465E+00
 0.25771382373E+00 0.20016751174E+00 0.15061628303E+00 0.11008501568E+00 0.78400474166E-01
 0.54526851507E-01 0.37158099309E-01 0.24898603570E-01 0.16479835360E-01 0.10847477009E-01
 0.71697038693E-02 0.48340551618E-02 0.33834081624E-02 0.25138136613E-02 0.20146875346E-02
 0.17443585707E-02 0.16049309509E-02 0.15422042360E-02 0.15234678059E-02 0.15422042367E-02
 0.16049309509E-02 0.17443585707E-02 0.20146875346E-02 0.25138136613E-02 0.33834081624E-02
 0.48340551617E-02 0.71697038684E-02 0.10847477009E-01 0.16479835360E-01 0.24898603570E-01
 0.37158099309E-01 0.54526851507E-01 0.78400474166E-01 0.11008501568E+00 0.15061628303E+00
 0.20016751174E+00 0.25771382373E+00 0.32076758465E+00 0.38509799326E+00 0.44489684416E+00