       N       E                     dE             d eps       ncg     rms          rms(c)
DAV:   1     0.781970500594E+03    0.78197E+03   -0.22180E+04 10176   0.227E+03
DAV:   2     0.166519674691E+03   -0.61545E+03   -0.47875E+03 10536   0.340E+02
DAV:   3    -0.650779109797E+01   -0.17303E+03   -0.16640E+03  9016   0.193E+02
DAV:   4    -0.275426573678E+02   -0.21035E+02   -0.19871E+02 12840   0.606E+01
DAV:   5    -0.295626068936E+02   -0.20199E+01   -0.19608E+01 15552   0.201E+01    0.224E+01
DAV:   6    -0.441888223001E+02   -0.14626E+02   -0.57377E+01 10692   0.704E+01    0.302E+01
DAV:   7    -0.426170758544E+02    0.15717E+01   -0.88399E+00 10980   0.184E+01    0.107E+01
DAV:   8    -0.410266392486E+02    0.15904E+01   -0.33174E+00 11796   0.140E+01    0.343E+00
DAV:   9    -0.410830884530E+02   -0.56449E-01   -0.16989E+00 11972   0.105E+01    0.391E+00
DAV:  10    -0.410562742454E+02    0.26814E-01   -0.31911E-01 13084   0.384E+00    0.128E+00
DAV:  11    -0.411209671912E+02   -0.64693E-01   -0.54177E-02 15160   0.118E+00    0.638E-01
DAV:  12    -0.411573329077E+02   -0.36366E-01   -0.39436E-02 11652   0.967E-01    0.577E-01
DAV:  13    -0.411579999384E+02   -0.66703E-03   -0.14356E-02 12404   0.734E-01    0.185E-01
DAV:  14    -0.411564697101E+02    0.15302E-02   -0.12445E-02 12792   0.351E-01    0.141E-01
DAV:  15    -0.411559825300E+02    0.48718E-03   -0.13235E-03 14024   0.160E-01    0.116E-01
DAV:  16    -0.411555847455E+02    0.39778E-03   -0.80741E-04 13644   0.195E-01    0.403E-02
DAV:  17    -0.411559972763E+02   -0.41253E-03   -0.19202E-04 13652   0.652E-02    0.916E-03
DAV:  18    -0.411561144189E+02   -0.11714E-03   -0.33647E-05 15064   0.271E-02    0.346E-03
DAV:  19    -0.411560931791E+02    0.21240E-04   -0.57339E-06 13472   0.843E-03    0.172E-03
DAV:  20    -0.411561045050E+02   -0.11326E-04   -0.11026E-06 10888   0.349E-03    0.109E-03
DAV:  21    -0.411560990301E+02    0.54749E-05   -0.10731E-07  7200   0.195E-03    0.896E-04
DAV:  22    -0.411560950228E+02    0.40073E-05   -0.39809E-08  4980   0.177E-03    0.326E-04
DAV:  23    -0.411560945227E+02    0.50014E-06   -0.16882E-08  4872   0.710E-04    0.291E-04
DAV:  24    -0.411560945314E+02   -0.87275E-08   -0.99571E-09  4776   0.909E-04
   1 F= -.41156095E+02 E0= -.41156095E+02  d E =0.000000E+00  mag=    29.7450
