       N       E                     dE             d eps       ncg     rms          rms(c)
DAV:   1     0.502651046250E+04    0.50265E+04   -0.18196E+05 11472   0.253E+03
DAV:   2     0.636827010862E+03   -0.43897E+04   -0.40252E+04 11424   0.685E+02
DAV:   3    -0.226247651493E+03   -0.86307E+03   -0.74621E+03 11832   0.281E+02
DAV:   4    -0.293709786109E+03   -0.67462E+02   -0.66614E+02 12936   0.754E+01
DAV:   5    -0.294517239454E+03   -0.80745E+00   -0.80472E+00 12768   0.926E+00    0.809E+01
DAV:   6    -0.235277041793E+03    0.59240E+02   -0.25283E+02 14856   0.811E+01    0.912E+01
DAV:   7    -0.212052998661E+03    0.23224E+02   -0.11417E+02 12276   0.636E+01    0.437E+01
DAV:   8    -0.218325618404E+03   -0.62726E+01   -0.21416E+01 12096   0.173E+01    0.265E+01
DAV:   9    -0.222504069394E+03   -0.41785E+01   -0.81952E+00 12588   0.170E+01    0.270E+01
DAV:  10    -0.222171481316E+03    0.33259E+00   -0.24513E+00 12600   0.690E+00    0.186E+01
DAV:  11    -0.221609557147E+03    0.56192E+00   -0.22703E-01 14280   0.281E+00    0.122E+01
DAV:  12    -0.221407459159E+03    0.20210E+00   -0.19539E-01 15240   0.240E+00    0.842E+00
DAV:  13    -0.221406680863E+03    0.77830E-03   -0.11235E-01 13920   0.225E+00    0.467E+00
DAV:  14    -0.221451146269E+03   -0.44465E-01   -0.15351E-01 14976   0.199E+00    0.181E+00
DAV:  15    -0.221469325005E+03   -0.18179E-01   -0.62594E-02 12600   0.675E-01    0.144E+00
DAV:  16    -0.221464188520E+03    0.51365E-02   -0.91138E-03 14424   0.710E-01    0.381E-01
DAV:  17    -0.221464806667E+03   -0.61815E-03   -0.48410E-03 12444   0.182E-01    0.195E-01
DAV:  18    -0.221465044264E+03   -0.23760E-03   -0.25344E-04 14040   0.828E-02    0.865E-02
DAV:  19    -0.221465101454E+03   -0.57190E-04   -0.10223E-04 13740   0.426E-02    0.176E-02
DAV:  20    -0.221465110065E+03   -0.86101E-05   -0.21746E-05 12456   0.145E-02    0.886E-03
DAV:  21    -0.221465108237E+03    0.18275E-05   -0.23377E-06 12660   0.848E-03    0.113E-02
DAV:  22    -0.221465109331E+03   -0.10942E-05   -0.10698E-06 10728   0.536E-03    0.519E-03
DAV:  23    -0.221465109313E+03    0.18081E-07   -0.29786E-07  9924   0.315E-03
   1 F= -.22146511E+03 E0= -.22146511E+03  d E =0.000000E+00  mag=    42.3372
