 vasp.5.4.4.18Apr17-6-g9f103f2a35 (build Apr 28 2018 00:24:27) complex          
  
 executed on             LinuxIFC date 2021.09.06  03:33:40
 running on   24 total cores
 distrk:  each k-point on   24 cores,    1 groups
 distr:  one band on NCORES_PER_BAND=   4 cores,    6 groups


--------------------------------------------------------------------------------------------------------


 INCAR:
 POTCAR:    PAW_PBE Fe_pv 02Aug2007               
 POTCAR:    PAW_PBE O 08Apr2002                   
 POTCAR:    PAW_PBE Fe_pv 02Aug2007               
   VRHFIN =Fe:  3pd7s1                                                          
   LEXCH  = PE                                                                  
   EATOM  =  2457.4239 eV,  180.6156 Ry                                         
                                                                                
   TITEL  = PAW_PBE Fe_pv 02Aug2007                                             
   LULTRA =        F    use ultrasoft PP ?                                      
   IUNSCR =        1    unscreen: 0-lin 1-nonlin 2-no                           
   RPACOR =    1.750    partial core radius                                     
   POMASS =   55.847; ZVAL   =   14.000    mass and valenz                      
   RCORE  =    2.200    outmost cutoff radius                                   
   RWIGS  =    2.200; RWIGS  =    1.164    wigner-seitz radius (au A)           
   ENMAX  =  293.238; ENMIN  =  219.928 eV                                      
   ICORE  =        3    local potential                                         
   LCOR   =        T    correct aug charges                                     
   LPAW   =        T    paw PP                                                  
   EAUG   =  578.342                                                            
   DEXC   =    0.000                                                            
   RMAX   =    2.249    core radius for proj-oper                               
   RAUG   =    1.300    factor for augmentation sphere                          
   RDEP   =    2.296    radius for radial grids                                 
   RDEPT  =    1.766    core radius for aug-charge                              
                                                                                
   Atomic configuration                                                         
    8 entries                                                                   
     n  l   j            E        occ.                                          
     1  0  0.50     -6993.8440   2.0000                                         
     2  0  0.50      -814.6047   2.0000                                         
     2  1  1.50      -693.3689   6.0000                                         
     3  0  0.50       -89.4732   2.0000                                         
     3  1  1.50       -55.6373   6.0000                                         
     3  2  2.50        -3.8151   7.0000                                         
     4  0  0.50        -4.2551   1.0000                                         
     4  3  2.50        -1.3606   0.0000                                         
   Description                                                                  
     l       E           TYP  RCUT    TYP  RCUT                                 
     1    -55.6372668     23  2.000                                             
     1     -5.4423304     23  2.000                                             
     2     -3.8151096     23  2.200                                             
     2     -5.1756922     23  2.200                                             
     0     -4.2550951     23  2.200                                             
     0     27.2116520     23  2.200                                             
     3     -1.3605826     23  2.200                                             
  local pseudopotential read in
  partial core-charges read in
  partial kinetic energy density read in
  atomic valenz-charges read in
  non local Contribution for L=           1  read in
    real space projection operators read in
  non local Contribution for L=           1  read in
    real space projection operators read in
  non local Contribution for L=           2  read in
    real space projection operators read in
  non local Contribution for L=           2  read in
    real space projection operators read in
  non local Contribution for L=           0  read in
    real space projection operators read in
  non local Contribution for L=           0  read in
    real space projection operators read in
    PAW grid and wavefunctions read in
 
   number of l-projection  operators is LMAX  =           6
   number of lm-projection operators is LMMAX =          18
 
 POTCAR:    PAW_PBE O 08Apr2002                   
   VRHFIN =O: s2p4                                                              
   LEXCH  = PE                                                                  
   EATOM  =   432.3788 eV,   31.7789 Ry                                         
                                                                                
   TITEL  = PAW_PBE O 08Apr2002                                                 
   LULTRA =        F    use ultrasoft PP ?                                      
   IUNSCR =        1    unscreen: 0-lin 1-nonlin 2-no                           
   RPACOR =    1.200    partial core radius                                     
   POMASS =   16.000; ZVAL   =    6.000    mass and valenz                      
   RCORE  =    1.520    outmost cutoff radius                                   
   RWIGS  =    1.550; RWIGS  =    0.820    wigner-seitz radius (au A)           
   ENMAX  =  400.000; ENMIN  =  300.000 eV                                      
   ICORE  =        2    local potential                                         
   LCOR   =        T    correct aug charges                                     
   LPAW   =        T    paw PP                                                  
   EAUG   =  605.392                                                            
   DEXC   =    0.000                                                            
   RMAX   =    1.553    core radius for proj-oper                               
   RAUG   =    1.300    factor for augmentation sphere                          
   RDEP   =    1.550    radius for radial grids                                 
   RDEPT  =    1.329    core radius for aug-charge                              
                                                                                
   Atomic configuration                                                         
    4 entries                                                                   
     n  l   j            E        occ.                                          
     1  0  0.50      -514.6923   2.0000                                         
     2  0  0.50       -23.9615   2.0000                                         
     2  1  0.50        -9.0305   4.0000                                         
     3  2  1.50        -9.5241   0.0000                                         
   Description                                                                  
     l       E           TYP  RCUT    TYP  RCUT                                 
     0    -23.9615318     23  1.200                                             
     0     -9.5240782     23  1.200                                             
     1     -9.0304911     23  1.520                                             
     1      8.1634956     23  1.520                                             
     2     -9.5240782      7  1.500                                             
  local pseudopotential read in
  partial core-charges read in
  partial kinetic energy density read in
  kinetic energy density of atom read in
  atomic valenz-charges read in
  non local Contribution for L=           0  read in
    real space projection operators read in
  non local Contribution for L=           0  read in
    real space projection operators read in
  non local Contribution for L=           1  read in
    real space projection operators read in
  non local Contribution for L=           1  read in
    real space projection operators read in
    PAW grid and wavefunctions read in
 
   number of l-projection  operators is LMAX  =           4
   number of lm-projection operators is LMMAX =           8
 
 Optimization of the real space projectors (new method)

 maximal supplied QI-value         = 17.01
 optimisation between [QCUT,QGAM] = [ 14.80, 29.59] = [ 61.31,245.24] Ry 
 Optimized for a Real-space Cutoff    1.28 Angstroem

   l    n(q)    QCUT    max X(q) W(low)/X(q) W(high)/X(q)  e(spline) 
   1     11    14.797     4.267    0.88E-04    0.66E-05    0.67E-06
   1     11    14.797     5.750    0.13E-03    0.95E-05    0.11E-05
   2     10    14.797    53.656    0.14E-03    0.60E-05    0.42E-06
   2     10    14.797    49.521    0.14E-03    0.62E-05    0.43E-06
   0     11    14.797    31.246    0.38E-04    0.62E-05    0.53E-06
   0     11    14.797    12.201    0.31E-04    0.51E-05    0.44E-06
 Optimization of the real space projectors (new method)

 maximal supplied QI-value         = 24.76
 optimisation between [QCUT,QGAM] = [ 14.61, 29.46] = [ 59.74,243.02] Ry 
 Optimized for a Real-space Cutoff    0.98 Angstroem

   l    n(q)    QCUT    max X(q) W(low)/X(q) W(high)/X(q)  e(spline) 
   0      9    14.606    20.381    0.81E-04    0.15E-03    0.12E-06
   0      9    14.606    15.268    0.91E-04    0.16E-03    0.13E-06
   1      8    14.606     5.964    0.18E-03    0.30E-04    0.14E-06
   1      8    14.606     5.382    0.16E-03    0.19E-04    0.12E-06
  PAW_PBE Fe_pv 02Aug2007               :
 energy of atom  1       EATOM=-2457.4239
 kinetic energy error for atom=    0.0011 (will be added to EATOM!!)
  PAW_PBE O 08Apr2002                   :
 energy of atom  2       EATOM= -432.3788
 kinetic energy error for atom=    0.0032 (will be added to EATOM!!)
 
 
 POSCAR: Fe12 O18                                
  positions in direct lattice
  No initial velocities read in
 exchange correlation table for  LEXCH =        8
   RHO(1)=    0.500       N(1)  =     2000
   RHO(2)=  100.500       N(2)  =     4000
 


--------------------------------------------------------------------------------------------------------


 ion  position               nearest neighbor table
   1  0.000  0.000  0.355-  17 1.94  23 1.94  28 1.94  25 2.12  19 2.12  13 2.12
   2  0.000  0.000  0.645-  16 1.94  22 1.94  29 1.94  26 2.12  20 2.12  14 2.12
   3  0.333  0.667  0.022-  30 1.94  24 1.94  18 1.94  27 2.12  21 2.12  15 2.12
   4  0.667  0.333  0.689-  14 1.94  20 1.94  26 1.94  22 2.12  29 2.12  16 2.12
   5  0.333  0.667  0.311-  13 1.94  19 1.94  25 1.94  23 2.12  28 2.12  17 2.12
   6  0.667  0.333  0.978-  27 1.94  21 1.94  15 1.94  30 2.12  24 2.12  18 2.12
   7  0.000  0.000  0.145-  24 1.94  18 1.94  30 1.94  25 2.12  19 2.12  13 2.12
   8  0.000  0.000  0.855-  21 1.94  15 1.94  27 1.94  26 2.12  20 2.12  14 2.12
   9  0.333  0.667  0.811-  20 1.94  14 1.94  26 1.94  27 2.12  21 2.12  15 2.12
  10  0.333  0.667  0.522-  29 1.94  16 1.94  22 1.94  23 2.12  28 2.12  17 2.12
  11  0.667  0.333  0.478-  28 1.94  17 1.94  23 1.94  22 2.12  29 2.12  16 2.12
  12  0.667  0.333  0.189-  19 1.94  13 1.94  25 1.94  30 2.12  24 2.12  18 2.12
  13  0.306  0.000  0.250-   5 1.94  12 1.94   7 2.12   1 2.12
  14  0.694  0.000  0.750-   4 1.94   9 1.94   8 2.12   2 2.12
  15  0.640  0.667  0.917-   6 1.94   8 1.94   9 2.12   3 2.12
  16  0.973  0.333  0.583-  10 1.94   2 1.94   4 2.12  11 2.12
  17  0.027  0.667  0.417-  11 1.94   1 1.94   5 2.12  10 2.12
  18  0.360  0.333  0.083-   3 1.94   7 1.94  12 2.12   6 2.12
  19  0.000  0.306  0.250-  12 1.94   5 1.94   7 2.12   1 2.12
  20  0.000  0.694  0.750-   9 1.94   4 1.94   8 2.12   2 2.12
  21  0.333  0.973  0.917-   6 1.94   8 1.94   9 2.12   3 2.12
  22  0.667  0.640  0.583-  10 1.94   2 1.94   4 2.12  11 2.12
  23  0.333  0.360  0.417-  11 1.94   1 1.94   5 2.12  10 2.12
  24  0.667  0.027  0.083-   3 1.94   7 1.94  12 2.12   6 2.12
  25  0.694  0.694  0.250-  12 1.94   5 1.94   7 2.12   1 2.12
  26  0.306  0.306  0.750-   9 1.94   4 1.94   8 2.12   2 2.12
  27  0.027  0.360  0.917-   6 1.94   8 1.94   9 2.12   3 2.12
  28  0.640  0.973  0.417-  11 1.94   1 1.94   5 2.12  10 2.12
  29  0.360  0.027  0.583-  10 1.94   2 1.94   4 2.12  11 2.12
  30  0.973  0.640  0.083-   3 1.94   7 1.94  12 2.12   6 2.12
 
  LATTYP: Found a hexagonal cell.
 ALAT       =     5.0350995578
 C/A-ratio  =     2.7324385232
  
  Lattice vectors:
  
 A1 = (   5.0351000000,   0.0000000000,   0.0000000000)
 A2 = (  -2.5175500000,   4.3605240000,   0.0000000000)
 A3 = (   0.0000000000,   0.0000000000,  13.7581000000)


Analysis of symmetry for initial positions (statically):
=====================================================================
 Subroutine PRICEL returns following result:
 
  LATTYP: Found a trigonal (rhomboedric) cell.
 ALAT       =     5.4297801492
 COS(alpha) =     0.5700456062
  
  Lattice vectors:
  
 A1 = (  -2.5175449649,  -1.4535109070,  -4.5860425054)
 A2 = (  -0.0000025175,   2.9070174535,  -4.5860287473)
 A3 = (   2.5175474825,  -1.4535065465,  -4.5860287473)
 
   3 primitive cells build up your supercell.
 

 Routine SETGRP: Setting up the symmetry group for a 
 hexagonal supercell.


 Subroutine GETGRP returns: Found 12 space group operations
 (whereof  6 operations were pure point group operations)
 out of a pool of 24 trial point group operations.


The static configuration has the point symmetry S_6 .
 The point group associated with its full space group is D_3d.


Analysis of symmetry for dynamics (positions and initial velocities):
=====================================================================
 Subroutine PRICEL returns following result:
 
  LATTYP: Found a trigonal (rhomboedric) cell.
 ALAT       =     5.4297801492
 COS(alpha) =     0.5700456062
  
  Lattice vectors:
  
 A1 = (  -2.5175449649,  -1.4535109070,  -4.5860425054)
 A2 = (  -0.0000025175,   2.9070174535,  -4.5860287473)
 A3 = (   2.5175474825,  -1.4535065465,  -4.5860287473)
 
   3 primitive cells build up your supercell.
 

 Routine SETGRP: Setting up the symmetry group for a 
 hexagonal supercell.


 Subroutine GETGRP returns: Found 12 space group operations
 (whereof  6 operations were pure point group operations)
 out of a pool of 24 trial point group operations.


The dynamic configuration has the point symmetry S_6 .
 The point group associated with its full space group is D_3d.


Analysis of structural, dynamic, and magnetic symmetry:
=====================================================================
 Subroutine PRICEL returns following result:
 
  LATTYP: Found a trigonal (rhomboedric) cell.
 ALAT       =     5.4297801492
 COS(alpha) =     0.5700456062
  
  Lattice vectors:
  
 A1 = (  -2.5175449649,  -1.4535109070,  -4.5860425054)
 A2 = (  -0.0000025175,   2.9070174535,  -4.5860287473)
 A3 = (   2.5175474825,  -1.4535065465,  -4.5860287473)
 
   3 primitive cells build up your supercell.
 

 Routine SETGRP: Setting up the symmetry group for a 
 hexagonal supercell.


 Subroutine GETGRP returns: Found 12 space group operations
 (whereof  6 operations were pure point group operations)
 out of a pool of 24 trial point group operations.


The magnetic configuration has the point symmetry S_6 .
 The point group associated with its full space group is D_3d.


 Subroutine INISYM returns: Found 12 space group operations
 (whereof  6 operations are pure point group operations),
 and found     3 'primitive' translations

 
 
 KPOINTS: pymatgen with grid density = 2464 / numb

Automatic generation of k-mesh.
Space group operators:
 irot       det(A)        alpha          n_x          n_y          n_z        tau_x        tau_y        tau_z
    1     1.000000     0.000000     1.000000     0.000000     0.000000     0.000000     0.000000     0.000000
    2    -1.000000     0.000000     1.000000     0.000000     0.000000     0.000000     0.000000     0.000000
    3     1.000000   120.000000     0.000000     0.000000    -1.000000     0.000000     0.000000     0.000000
    4    -1.000000   120.000000     0.000000     0.000000    -1.000000     0.000000     0.000000     0.000000
    5     1.000000   120.000000     0.000000     0.000000     1.000000     0.000000     0.000000     0.000000
    6    -1.000000   120.000000     0.000000     0.000000     1.000000     0.000000     0.000000     0.000000
    7     1.000000   180.000000     1.000000     0.000000     0.000000     0.000001    -0.000000    -0.500000
    8    -1.000000   180.000000     1.000000     0.000000     0.000000     0.000001    -0.000000    -0.500000
    9     1.000000   180.000000     0.500000    -0.866025     0.000000     0.000000     0.000000    -0.500000
   10    -1.000000   180.000000     0.500000    -0.866025     0.000000     0.000000     0.000000    -0.500000
   11     1.000000   180.000000    -0.500000    -0.866025     0.000000     0.000000     0.000000    -0.500000
   12    -1.000000   180.000000    -0.500000    -0.866025     0.000000     0.000000     0.000000    -0.500000
 
 Subroutine IBZKPT returns following result:
 ===========================================
 
 Found     14 irreducible k-points:
 
 Following reciprocal coordinates:
            Coordinates               Weight
  0.000000  0.000000  0.000000      1.000000
  0.166667  0.000000  0.000000      6.000000
  0.333333  0.000000  0.000000      6.000000
  0.500000  0.000000  0.000000      3.000000
  0.166667  0.166667  0.000000      6.000000
  0.333333  0.166667  0.000000     12.000000
  0.333333  0.333333  0.000000      2.000000
  0.000000  0.000000  0.500000      1.000000
  0.166667  0.000000  0.500000      6.000000
  0.333333  0.000000  0.500000      6.000000
  0.500000  0.000000  0.500000      3.000000
  0.166667  0.166667  0.500000      6.000000
  0.333333  0.166667  0.500000     12.000000
  0.333333  0.333333  0.500000      2.000000
 
 Following cartesian coordinates:
            Coordinates               Weight
  0.000000  0.000000  0.000000      1.000000
  0.033101  0.019111  0.000000      6.000000
  0.066202  0.038222  0.000000      6.000000
  0.099303  0.057333  0.000000      3.000000
  0.033101  0.057333  0.000000      6.000000
  0.066202  0.076443  0.000000     12.000000
  0.066202  0.114665  0.000000      2.000000
  0.000000  0.000000  0.036342      1.000000
  0.033101  0.019111  0.036342      6.000000
  0.066202  0.038222  0.036342      6.000000
  0.099303  0.057333  0.036342      3.000000
  0.033101  0.057333  0.036342      6.000000
  0.066202  0.076443  0.036342     12.000000
  0.066202  0.114665  0.036342      2.000000
 
 TETIRR: Found     71 inequivalent tetrahedra from      432


--------------------------------------------------------------------------------------------------------




 Dimension of arrays:
   k-points           NKPTS =     14   k-points in BZ     NKDIM =     14   number of bands    NBANDS=    204
   number of dos      NEDOS =    301   number of ions     NIONS =     30
   non local maximal  LDIM  =      6   non local SUM 2l+1 LMDIM =     18
   total plane-waves  NPLWV = 322560
   max r-space proj   IRMAX =   9436   max aug-charges    IRDMAX=  31822
   dimension x,y,z NGX =    48 NGY =   48 NGZ =  140
   dimension x,y,z NGXF=    96 NGYF=   96 NGZF=  280
   support grid    NGXF=    96 NGYF=   96 NGZF=  280
   ions per type =              12  18
   NGX,Y,Z   is equivalent  to a cutoff of  15.85, 15.85, 16.92 a.u.
   NGXF,Y,Z  is equivalent  to a cutoff of  31.70, 31.70, 33.83 a.u.

 SYSTEM =  unknown system                          
 POSCAR =  Fe12 O18                                

 Startparameter for this run:
   NWRITE =      2    write-flag & timer
   PREC   = accura    normal or accurate (medium, high low for compatibility)
   ISTART =      0    job   : 0-new  1-cont  2-samecut
   ICHARG =      2    charge: 1-file 2-atom 10-const
   ISPIN  =      2    spin polarized calculation?
   LNONCOLLINEAR =      F non collinear calculations
   LSORBIT =      F    spin-orbit coupling
   INIWAV =      1    electr: 0-lowe 1-rand  2-diag
   LASPH  =      F    aspherical Exc in radial PAW
   METAGGA=      F    non-selfconsistent MetaGGA calc.

 Electronic Relaxation 1
   ENCUT  =  840.0 eV  61.74 Ry    7.86 a.u.  11.90 11.90 32.51*2*pi/ulx,y,z
   ENINI  =  840.0     initial cutoff
   ENAUG  =  605.4 eV  augmentation charge cutoff
   NELM   =    100;   NELMIN=  2; NELMDL= -5     # of ELM steps 
   EDIFF  = 0.1E-06   stopping-criterion for ELM
   LREAL  =      T    real-space projection
   NLSPLINE    = F    spline interpolate recip. space projectors
   LCOMPAT=      F    compatible to vasp.4.4
   GGA_COMPAT  = T    GGA compatible to vasp.4.4-vasp.4.6
   LMAXPAW     = -100 max onsite density
   LMAXMIX     =    2 max onsite mixed and CHGCAR
   VOSKOWN=      0    Vosko Wilk Nusair interpolation
   ROPT   =   -0.00025  -0.00025
 Ionic relaxation
   EDIFFG = 0.1E-05   stopping-criterion for IOM
   NSW    =      0    number of steps for IOM
   NBLOCK =      1;   KBLOCK =      1    inner block; outer block 
   IBRION =     -1    ionic relax: 0-MD 1-quasi-New 2-CG
   NFREE  =      0    steps in history (QN), initial steepest desc. (CG)
   ISIF   =      3    stress and relaxation
   IWAVPR =     10    prediction:  0-non 1-charg 2-wave 3-comb
   ISYM   =      2    0-nonsym 1-usesym 2-fastsym
   LCORR  =      T    Harris-Foulkes like correction to forces

   POTIM  = 0.5000    time-step for ionic-motion
   TEIN   =    0.0    initial temperature
   TEBEG  =    0.0;   TEEND  =   0.0 temperature during run
   SMASS  =  -3.00    Nose mass-parameter (am)
   estimated Nose-frequenzy (Omega)   =  0.10E-29 period in steps =****** mass=  -0.579E-27a.u.
   SCALEE = 1.0000    scale energy and forces
   NPACO  =    256;   APACO  = 16.0  distance and # of slots for P.C.
   PSTRESS=    0.0 pullay stress

  Mass of Ions in am
   POMASS =  55.85 16.00
  Ionic Valenz
   ZVAL   =  14.00  6.00
  Atomic Wigner-Seitz radii
   RWIGS  =  -1.00 -1.00
  virtual crystal weights 
   VCA    =   1.00  1.00
   NELECT =     276.0000    total number of electrons
   NUPDOWN=      -1.0000    fix difference up-down

 DOS related values:
   EMIN   =  10.00;   EMAX   =-10.00  energy-range for DOS
   EFERMI =   0.00
   ISMEAR =    -5;   SIGMA  =   0.05  broadening in eV -4-tet -1-fermi 0-gaus

 Electronic relaxation 2 (details)
   IALGO  =     38    algorithm
   LDIAG  =      T    sub-space diagonalisation (order eigenvalues)
   LSUBROT=      F    optimize rotation matrix (better conditioning)
   TURBO    =      0    0=normal 1=particle mesh
   IRESTART =      0    0=no restart 2=restart with 2 vectors
   NREBOOT  =      0    no. of reboots
   NMIN     =      0    reboot dimension
   EREF     =   0.00    reference energy to select bands
   IMIX   =      4    mixing-type and parameters
     AMIX     =   0.40;   BMIX     =  1.00
     AMIX_MAG =   1.60;   BMIX_MAG =  1.00
     AMIN     =   0.10
     WC   =   100.;   INIMIX=   1;  MIXPRE=   1;  MAXMIX= -45

 Intra band minimization:
   WEIMIN = 0.0000     energy-eigenvalue tresh-hold
   EBREAK =  0.12E-09  absolut break condition
   DEPER  =   0.30     relativ break condition  

   TIME   =   0.40     timestep for ELM

  volume/ion in A,a.u.               =      10.07        67.95
  Fermi-wavevector in a.u.,A,eV,Ry     =   1.588581  3.001983 34.335534  2.523591
  Thomas-Fermi vector in A             =   2.687563
 
 Write flags
   LWAVE        =      F    write WAVECAR
   LDOWNSAMPLE  =      F    k-point downsampling of WAVECAR
   LCHARG       =      F    write CHGCAR
   LVTOT        =      F    write LOCPOT, total local potential
   LVHAR        =      F    write LOCPOT, Hartree potential only
   LELF         =      F    write electronic localiz. function (ELF)
   LORBIT       =     11    0 simple, 1 ext, 2 COOP (PROOUT), +10 PAW based schemes


 Dipole corrections
   LMONO  =      F    monopole corrections only (constant potential shift)
   LDIPOL =      F    correct potential (dipole corrections)
   IDIPOL =      0    1-x, 2-y, 3-z, 4-all directions 
   EPSILON=  1.0000000 bulk dielectric constant

 Exchange correlation treatment:
   GGA     =    --    GGA type
   LEXCH   =     8    internal setting for exchange type
   VOSKOWN=      0    Vosko Wilk Nusair interpolation
   LHFCALC =     F    Hartree Fock is set to
   LHFONE  =     F    Hartree Fock one center treatment
   AEXX    =    0.0000 exact exchange contribution

 Linear response parameters
   LEPSILON=     F    determine dielectric tensor
   LRPA    =     F    only Hartree local field effects (RPA)
   LNABLA  =     F    use nabla operator in PAW spheres
   LVEL    =     F    velocity operator in full k-point grid
   LINTERFAST=   F  fast interpolation
   KINTER  =     0    interpolate to denser k-point grid
   CSHIFT  =0.1000    complex shift for real part using Kramers Kronig
   OMEGAMAX=  -1.0    maximum frequency
   DEG_THRESHOLD= 0.2000000E-02 threshold for treating states as degnerate
   RTIME   =   -0.100 relaxation time in fs
  (WPLASMAI=    0.000 imaginary part of plasma frequency in eV, 0.658/RTIME)
   DFIELD  = 0.0000000 0.0000000 0.0000000 field for delta impulse in time
 
 Orbital magnetization related:
   ORBITALMAG=     F  switch on orbital magnetization
   LCHIMAG   =     F  perturbation theory with respect to B field
   DQ        =  0.001000  dq finite difference perturbation B field
   LLRAUG    =     F  two centre corrections for induced B field



--------------------------------------------------------------------------------------------------------


 Static calculation
 charge density and potential will be updated during run
 spin polarized calculation
 Variant of blocked Davidson
 Davidson routine will perform the subspace rotation
 perform sub-space diagonalisation
    after iterative eigenvector-optimisation
 modified Broyden-mixing scheme, WC =      100.0
 initial mixing is a Kerker type mixing with AMIX =  0.4000 and BMIX =      1.0000
 Hartree-type preconditioning will be used
 using additional bands           66
 real space projection scheme for non local part
 use partial core corrections
 calculate Harris-corrections to forces 
   (improved forces if not selfconsistent)
 use gradient corrections 
 use of overlap-Matrix (Vanderbilt PP)
 Fermi weights with tetrahedron method with Bloechl corrections


--------------------------------------------------------------------------------------------------------


  energy-cutoff  :      840.00
  volume of cell :      302.07
      direct lattice vectors                 reciprocal lattice vectors
     5.035100000  0.000000000  0.000000000     0.198605787  0.114665118  0.000000000
    -2.517550000  4.360524000  0.000000000     0.000000000  0.229330236  0.000000000
     0.000000000  0.000000000 13.758100000     0.000000000  0.000000000  0.072684455

  length of vectors
     5.035100000  5.035099558 13.758100000     0.229330216  0.229330236  0.072684455


 
 k-points in units of 2pi/SCALE and weight: pymatgen with grid density = 2464 / numb
   0.00000000  0.00000000  0.00000000       0.014
   0.03310096  0.01911085  0.00000000       0.083
   0.06620193  0.03822171  0.00000000       0.083
   0.09930289  0.05733256  0.00000000       0.042
   0.03310096  0.05733256  0.00000000       0.083
   0.06620193  0.07644341  0.00000000       0.167
   0.06620193  0.11466512  0.00000000       0.028
   0.00000000  0.00000000  0.03634223       0.014
   0.03310096  0.01911085  0.03634223       0.083
   0.06620193  0.03822171  0.03634223       0.083
   0.09930289  0.05733256  0.03634223       0.042
   0.03310096  0.05733256  0.03634223       0.083
   0.06620193  0.07644341  0.03634223       0.167
   0.06620193  0.11466512  0.03634223       0.028
 
 k-points in reciprocal lattice and weights: pymatgen with grid density = 2464 / numb
   0.00000000  0.00000000  0.00000000       0.014
   0.16666667  0.00000000  0.00000000       0.083
   0.33333333  0.00000000  0.00000000       0.083
   0.50000000  0.00000000  0.00000000       0.042
   0.16666667  0.16666667  0.00000000       0.083
   0.33333333  0.16666667  0.00000000       0.167
   0.33333333  0.33333333  0.00000000       0.028
   0.00000000  0.00000000  0.50000000       0.014
   0.16666667  0.00000000  0.50000000       0.083
   0.33333333  0.00000000  0.50000000       0.083
   0.50000000  0.00000000  0.50000000       0.042
   0.16666667  0.16666667  0.50000000       0.083
   0.33333333  0.16666667  0.50000000       0.167
   0.33333333  0.33333333  0.50000000       0.028
 
 position of ions in fractional coordinates (direct lattice) 
   0.00000000  0.00000000  0.35532000
   0.00000000  0.00000000  0.64468000
   0.33333300  0.66666700  0.02198700
   0.66666700  0.33333300  0.68865300
   0.33333300  0.66666700  0.31134700
   0.66666700  0.33333300  0.97801300
   0.00000000  0.00000000  0.14468000
   0.00000000  0.00000000  0.85532000
   0.33333300  0.66666700  0.81134700
   0.33333300  0.66666700  0.52198700
   0.66666700  0.33333300  0.47801300
   0.66666700  0.33333300  0.18865300
   0.30618000  0.00000000  0.25000000
   0.69382000  0.00000000  0.75000000
   0.63951300  0.66666700  0.91666700
   0.97284700  0.33333300  0.58333300
   0.02715300  0.66666700  0.41666700
   0.36048700  0.33333300  0.08333300
   0.00000000  0.30618000  0.25000000
   0.00000000  0.69382000  0.75000000
   0.33333300  0.97284700  0.91666700
   0.66666700  0.63951300  0.58333300
   0.33333300  0.36048700  0.41666700
   0.66666700  0.02715300  0.08333300
   0.69382000  0.69382000  0.25000000
   0.30618000  0.30618000  0.75000000
   0.02715300  0.36048700  0.91666700
   0.63951300  0.97284700  0.41666700
   0.36048700  0.02715300  0.58333300
   0.97284700  0.63951300  0.08333300
 
 position of ions in cartesian coordinates  (Angst):
   0.00000000  0.00000000  4.88852809
   0.00000000  0.00000000  8.86957191
  -0.00000252  2.90701745  0.30249934
   2.51755252  1.45350655  9.47455684
  -0.00000252  2.90701745  4.28354316
   2.51755252  1.45350655 13.45560066
   0.00000000  0.00000000  1.99052191
   0.00000000  0.00000000 11.76757809
  -0.00000252  2.90701745 11.16259316
  -0.00000252  2.90701745  7.18154934
   2.51755252  1.45350655  6.57655066
   2.51755252  1.45350655  2.59550684
   1.54164692  0.00000000  3.43952500
   3.49345308  0.00000000 10.31857500
   1.54164440  2.90701745 12.61159625
   4.05919944  1.45350655  8.02555375
  -1.54164944  2.90701745  5.73254625
   0.97590560  1.45350655  1.14650375
  -0.77082346  1.33510524  3.43952500
  -1.74672654  3.02541876 10.31857500
  -0.77082598  4.24212269 12.61159625
   1.74672906  2.78861178  8.02555375
   0.77082094  1.57191222  5.73254625
   3.28837598  0.11840131  1.14650375
   1.74672654  3.02541876  3.43952500
   0.77082346  1.33510524 10.31857500
  -0.77082598  1.57191222 12.61159625
   0.77082094  4.24212269  5.73254625
   1.74672906  0.11840131  8.02555375
   3.28837598  2.78861178  1.14650375
 


--------------------------------------------------------------------------------------------------------


 k-point  1 :   0.0000 0.0000 0.0000  plane waves:   16703
 k-point  2 :   0.1667 0.0000 0.0000  plane waves:   16683
 k-point  3 :   0.3333 0.0000 0.0000  plane waves:   16690
 k-point  4 :   0.5000 0.0000 0.0000  plane waves:   16740
 k-point  5 :   0.1667 0.1667 0.0000  plane waves:   16686
 k-point  6 :   0.3333 0.1667 0.0000  plane waves:   16725
 k-point  7 :   0.3333 0.3333 0.0000  plane waves:   16746
 k-point  8 :   0.0000 0.0000 0.5000  plane waves:   16602
 k-point  9 :   0.1667 0.0000 0.5000  plane waves:   16668
 k-point 10 :   0.3333 0.0000 0.5000  plane waves:   16702
 k-point 11 :   0.5000 0.0000 0.5000  plane waves:   16708
 k-point 12 :   0.1667 0.1667 0.5000  plane waves:   16672
 k-point 13 :   0.3333 0.1667 0.5000  plane waves:   16718
 k-point 14 :   0.3333 0.3333 0.5000  plane waves:   16710

 maximum and minimum number of plane-waves per node :      4202     4126

 maximum number of plane-waves:     16746
 maximum index in each direction: 
   IXMAX=   11   IYMAX=   11   IZMAX=   32
   IXMIN=  -12   IYMIN=  -12   IZMIN=  -33


 real space projection operators:
  total allocation   :      19906.31 KBytes
  max/ min on nodes  :       5024.94       4898.12


 parallel 3D FFT for wavefunctions:
    minimum data exchange during FFTs selected (reduces bandwidth)
 parallel 3D FFT for charge:
    minimum data exchange during FFTs selected (reduces bandwidth)


 total amount of memory used by VASP MPI-rank0   127605. kBytes
=======================================================================

   base      :      30000. kBytes
   nonlr-proj:      10974. kBytes
   fftplans  :       6010. kBytes
   grid      :      15120. kBytes
   one-center:        248. kBytes
   wavefun   :      65253. kBytes
 
     INWAV:  cpu time    0.0000: real time    0.0001
 Broyden mixing: mesh for mixing (old mesh)
   NGX = 23   NGY = 23   NGZ = 65
  (NGX  = 96   NGY  = 96   NGZ  =280)
  gives a total of  34385 points

 initial charge density was supplied:
 charge density of overlapping atoms calculated
 number of electron     276.0000000 magnetization      70.8000000
 keeping initial charge density in first step


--------------------------------------------------------------------------------------------------------


 Maximum index for non-local projection operator         2303
 Maximum index for augmentation-charges         1397 (set IRDMAX)


--------------------------------------------------------------------------------------------------------


 First call to EWALD:  gamma=   0.264
 Maximum number of real-space cells 4x 4x 2
 Maximum number of reciprocal cells 2x 2x 5

    FEWALD:  cpu time    0.0017: real time    0.0017


--------------------------------------- Iteration      1(   1)  ---------------------------------------


    POTLOK:  cpu time    0.1298: real time    0.1303
    SETDIJ:  cpu time    0.0150: real time    0.0150
     EDDAV:  cpu time   18.2498: real time   18.3031
 BZINTS: Fermi energy: 32.724207;276.000000 electrons
         Band energy:2009.853829;  BLOECHL correction: -0.102283
       DOS:  cpu time    0.0429: real time    0.0430
    --------------------------------------------
      LOOP:  cpu time   18.4375: real time   18.4914

 eigenvalue-minimisations  : 11472
 total energy-change (2. order) : 0.5026510E+04  (-0.1819561E+05)
 number of electron     276.0000000 magnetization      70.8000000
 augmentation part      276.0000000 magnetization      70.8000000

 Free energy of the ion-electron system (eV)
  ---------------------------------------------------
  alpha Z        PSCENC =      1362.55286497
  Ewald energy   TEWEN  =    -25513.06237826
  -Hartree energ DENC   =    -10371.14386019
  -exchange      EXHF   =         0.00000000
  -V(xc)+E(xc)   XCENC  =      1375.27778109
  PAW double counting   =     30224.59406688   -31333.39571732
  entropy T*S    EENTRO =         0.00000000
  eigenvalues    EBANDS =      2009.85382878
  atomic energy  EATOM  =     37271.83387656
  Solvation  Ediel_sol  =         0.00000000
  ---------------------------------------------------
  free energy    TOTEN  =      5026.51046250 eV

  energy without entropy =     5026.51046250  energy(sigma->0) =     5026.51046250


--------------------------------------------------------------------------------------------------------




--------------------------------------- Iteration      1(   2)  ---------------------------------------


     EDDAV:  cpu time   18.7146: real time   18.7628
 BZINTS: Fermi energy: 12.174902;276.000000 electrons
         Band energy:***********;  BLOECHL correction: -0.021552
       DOS:  cpu time    0.0448: real time    0.0449
    --------------------------------------------
      LOOP:  cpu time   18.7593: real time   18.8077

 eigenvalue-minimisations  : 11424
 total energy-change (2. order) :-0.4389683E+04  (-0.4025160E+04)
 number of electron     276.0000000 magnetization      70.8000000
 augmentation part      276.0000000 magnetization      70.8000000

 Free energy of the ion-electron system (eV)
  ---------------------------------------------------
  alpha Z        PSCENC =      1362.55286497
  Ewald energy   TEWEN  =    -25513.06237826
  -Hartree energ DENC   =    -10371.14386019
  -exchange      EXHF   =         0.00000000
  -V(xc)+E(xc)   XCENC  =      1375.27778109
  PAW double counting   =     30224.59406688   -31333.39571732
  entropy T*S    EENTRO =         0.00000000
  eigenvalues    EBANDS =     -2379.82962286
  atomic energy  EATOM  =     37271.83387656
  Solvation  Ediel_sol  =         0.00000000
  ---------------------------------------------------
  free energy    TOTEN  =       636.82701086 eV

  energy without entropy =      636.82701086  energy(sigma->0) =      636.82701086


--------------------------------------------------------------------------------------------------------




--------------------------------------- Iteration      1(   3)  ---------------------------------------


     EDDAV:  cpu time   18.8714: real time   18.9195
 BZINTS: Fermi energy:  8.708660;276.000000 electrons
         Band energy:***********;  BLOECHL correction:  0.000000
       DOS:  cpu time    0.0062: real time    0.0062
    --------------------------------------------
      LOOP:  cpu time   18.8776: real time   18.9257

 eigenvalue-minimisations  : 11832
 total energy-change (2. order) :-0.8630747E+03  (-0.7462117E+03)
 number of electron     276.0000000 magnetization      70.8000000
 augmentation part      276.0000000 magnetization      70.8000000

 Free energy of the ion-electron system (eV)
  ---------------------------------------------------
  alpha Z        PSCENC =      1362.55286497
  Ewald energy   TEWEN  =    -25513.06237826
  -Hartree energ DENC   =    -10371.14386019
  -exchange      EXHF   =         0.00000000
  -V(xc)+E(xc)   XCENC  =      1375.27778109
  PAW double counting   =     30224.59406688   -31333.39571732
  entropy T*S    EENTRO =         0.00000000
  eigenvalues    EBANDS =     -3242.90428522
  atomic energy  EATOM  =     37271.83387656
  Solvation  Ediel_sol  =         0.00000000
  ---------------------------------------------------
  free energy    TOTEN  =      -226.24765149 eV

  energy without entropy =     -226.24765149  energy(sigma->0) =     -226.24765149


--------------------------------------------------------------------------------------------------------




--------------------------------------- Iteration      1(   4)  ---------------------------------------


     EDDAV:  cpu time   21.7043: real time   21.7601
 BZINTS: Fermi energy:  8.291076;276.000000 electrons
         Band energy:***********;  BLOECHL correction:  0.000000
       DOS:  cpu time    0.0074: real time    0.0074
    --------------------------------------------
      LOOP:  cpu time   21.7117: real time   21.7675

 eigenvalue-minimisations  : 12936
 total energy-change (2. order) :-0.6746213E+02  (-0.6661381E+02)
 number of electron     276.0000000 magnetization      70.8000000
 augmentation part      276.0000000 magnetization      70.8000000

 Free energy of the ion-electron system (eV)
  ---------------------------------------------------
  alpha Z        PSCENC =      1362.55286497
  Ewald energy   TEWEN  =    -25513.06237826
  -Hartree energ DENC   =    -10371.14386019
  -exchange      EXHF   =         0.00000000
  -V(xc)+E(xc)   XCENC  =      1375.27778109
  PAW double counting   =     30224.59406688   -31333.39571732
  entropy T*S    EENTRO =         0.00000000
  eigenvalues    EBANDS =     -3310.36641984
  atomic energy  EATOM  =     37271.83387656
  Solvation  Ediel_sol  =         0.00000000
  ---------------------------------------------------
  free energy    TOTEN  =      -293.70978611 eV

  energy without entropy =     -293.70978611  energy(sigma->0) =     -293.70978611


--------------------------------------------------------------------------------------------------------




--------------------------------------- Iteration      1(   5)  ---------------------------------------


     EDDAV:  cpu time   21.4678: real time   21.5223
 BZINTS: Fermi energy:  8.321569;276.000000 electrons
         Band energy:***********;  BLOECHL correction:  0.000000
       DOS:  cpu time    0.0077: real time    0.0077
    CHARGE:  cpu time    0.8756: real time    0.8778
    MIXING:  cpu time    0.0029: real time    0.0030
    --------------------------------------------
      LOOP:  cpu time   22.3540: real time   22.4109

 eigenvalue-minimisations  : 12768
 total energy-change (2. order) :-0.8074533E+00  (-0.8047245E+00)
 number of electron     275.9999984 magnetization      67.8179403
 augmentation part      108.0145163 magnetization      47.0435318

 Broyden mixing:
  rms(total) = 0.80929E+01    rms(broyden)= 0.80929E+01
  rms(prec ) = 0.88390E+01
  weight for this iteration     100.00

 Free energy of the ion-electron system (eV)
  ---------------------------------------------------
  alpha Z        PSCENC =      1362.55286497
  Ewald energy   TEWEN  =    -25513.06237826
  -Hartree energ DENC   =    -10371.14386019
  -exchange      EXHF   =         0.00000000
  -V(xc)+E(xc)   XCENC  =      1375.27778109
  PAW double counting   =     30224.59406688   -31333.39571732
  entropy T*S    EENTRO =         0.00000000
  eigenvalues    EBANDS =     -3311.17387318
  atomic energy  EATOM  =     37271.83387656
  Solvation  Ediel_sol  =         0.00000000
  ---------------------------------------------------
  free energy    TOTEN  =      -294.51723945 eV

  energy without entropy =     -294.51723945  energy(sigma->0) =     -294.51723945


--------------------------------------------------------------------------------------------------------




--------------------------------------- Iteration      1(   6)  ---------------------------------------


    POTLOK:  cpu time    0.1318: real time    0.1327
    SETDIJ:  cpu time    0.0159: real time    0.0160
     EDDAV:  cpu time   24.2123: real time   24.2756
 BZINTS: Fermi energy:  5.534702;276.000000 electrons
         Band energy:***********;  BLOECHL correction: -0.054659
       DOS:  cpu time    0.0517: real time    0.0518
    CHARGE:  cpu time    0.8979: real time    0.9005
    MIXING:  cpu time    0.0028: real time    0.0029
    --------------------------------------------
      LOOP:  cpu time   25.3124: real time   25.3795

 eigenvalue-minimisations  : 14856
 total energy-change (2. order) : 0.5924020E+02  (-0.2528294E+02)
 number of electron     275.9999976 magnetization      62.9805534
 augmentation part      120.7079714 magnetization      54.4126011

 Broyden mixing:
  rms(total) = 0.91194E+01    rms(broyden)= 0.91194E+01
  rms(prec ) = 0.97680E+01
  weight for this iteration     100.00

 eigenvalues of (default mixing * dielectric matrix)
  average eigenvalue GAMMA=   0.3187
  0.3187

 Free energy of the ion-electron system (eV)
  ---------------------------------------------------
  alpha Z        PSCENC =      1362.55286497
  Ewald energy   TEWEN  =    -25513.06237826
  -Hartree energ DENC   =     -9965.68429086
  -exchange      EXHF   =         0.00000000
  -V(xc)+E(xc)   XCENC  =      1376.63726433
  PAW double counting   =     31436.87513513   -32503.77269202
  entropy T*S    EENTRO =         0.00000000
  eigenvalues    EBANDS =     -3700.65682164
  atomic energy  EATOM  =     37271.83387656
  Solvation  Ediel_sol  =         0.00000000
  ---------------------------------------------------
  free energy    TOTEN  =      -235.27704179 eV

  energy without entropy =     -235.27704179  energy(sigma->0) =     -235.27704179


--------------------------------------------------------------------------------------------------------




--------------------------------------- Iteration      1(   7)  ---------------------------------------


    POTLOK:  cpu time    0.1302: real time    0.1307
    SETDIJ:  cpu time    0.0160: real time    0.0160
     EDDAV:  cpu time   20.6463: real time   20.6994
 BZINTS: Fermi energy:  7.079259;276.000000 electrons
         Band energy:***********;  BLOECHL correction: -0.036370
       DOS:  cpu time    0.0484: real time    0.0486
    CHARGE:  cpu time    0.8962: real time    0.8985
    MIXING:  cpu time    0.0028: real time    0.0028
    --------------------------------------------
      LOOP:  cpu time   21.7398: real time   21.7959

 eigenvalue-minimisations  : 12276
 total energy-change (2. order) : 0.2322404E+02  (-0.1141735E+02)
 number of electron     275.9999982 magnetization      58.7859670
 augmentation part      109.3460286 magnetization      40.3315648

 Broyden mixing:
  rms(total) = 0.43710E+01    rms(broyden)= 0.43710E+01
  rms(prec ) = 0.45308E+01
  weight for this iteration     100.00

 eigenvalues of (default mixing * dielectric matrix)
  average eigenvalue GAMMA=   0.6787
  1.0271  0.3304

 Free energy of the ion-electron system (eV)
  ---------------------------------------------------
  alpha Z        PSCENC =      1362.55286497
  Ewald energy   TEWEN  =    -25513.06237826
  -Hartree energ DENC   =    -10207.54647368
  -exchange      EXHF   =         0.00000000
  -V(xc)+E(xc)   XCENC  =      1372.38596233
  PAW double counting   =     32869.57201932   -33998.01709234
  entropy T*S    EENTRO =         0.00000000
  eigenvalues    EBANDS =     -3369.77177756
  atomic energy  EATOM  =     37271.83387656
  Solvation  Ediel_sol  =         0.00000000
  ---------------------------------------------------
  free energy    TOTEN  =      -212.05299866 eV

  energy without entropy =     -212.05299866  energy(sigma->0) =     -212.05299866


--------------------------------------------------------------------------------------------------------




--------------------------------------- Iteration      1(   8)  ---------------------------------------


    POTLOK:  cpu time    0.1315: real time    0.1320
    SETDIJ:  cpu time    0.0161: real time    0.0161
     EDDAV:  cpu time   20.5242: real time   20.5800
 BZINTS: Fermi energy:  6.445645;276.000000 electrons
         Band energy:***********;  BLOECHL correction: -0.034154
       DOS:  cpu time    0.0492: real time    0.0493
    CHARGE:  cpu time    0.8947: real time    0.8970
    MIXING:  cpu time    0.0032: real time    0.0032
    --------------------------------------------
      LOOP:  cpu time   21.6189: real time   21.6776

 eigenvalue-minimisations  : 12096
 total energy-change (2. order) :-0.6272620E+01  (-0.2141590E+01)
 number of electron     275.9999982 magnetization      51.9508222
 augmentation part      111.2665383 magnetization      35.0311324

 Broyden mixing:
  rms(total) = 0.26528E+01    rms(broyden)= 0.26528E+01
  rms(prec ) = 0.27130E+01
  weight for this iteration     100.00

 eigenvalues of (default mixing * dielectric matrix)
  average eigenvalue GAMMA=   1.0722
  2.2531  0.5798  0.3835

 Free energy of the ion-electron system (eV)
  ---------------------------------------------------
  alpha Z        PSCENC =      1362.55286497
  Ewald energy   TEWEN  =    -25513.06237826
  -Hartree energ DENC   =    -10072.36372856
  -exchange      EXHF   =         0.00000000
  -V(xc)+E(xc)   XCENC  =      1366.37732664
  PAW double counting   =     34228.14240234   -35368.31826522
  entropy T*S    EENTRO =         0.00000000
  eigenvalues    EBANDS =     -3493.48771688
  atomic energy  EATOM  =     37271.83387656
  Solvation  Ediel_sol  =         0.00000000
  ---------------------------------------------------
  free energy    TOTEN  =      -218.32561840 eV

  energy without entropy =     -218.32561840  energy(sigma->0) =     -218.32561840


--------------------------------------------------------------------------------------------------------




--------------------------------------- Iteration      1(   9)  ---------------------------------------


    POTLOK:  cpu time    0.1313: real time    0.1322
    SETDIJ:  cpu time    0.0160: real time    0.0161
     EDDAV:  cpu time   21.0330: real time   21.0891
 BZINTS: Fermi energy:  5.881679;276.000000 electrons
         Band energy:***********;  BLOECHL correction: -0.038321
       DOS:  cpu time    0.0517: real time    0.0518
    CHARGE:  cpu time    0.8970: real time    0.8993
    MIXING:  cpu time    0.0031: real time    0.0031
    --------------------------------------------
      LOOP:  cpu time   22.1321: real time   22.1915

 eigenvalue-minimisations  : 12588
 total energy-change (2. order) :-0.4178451E+01  (-0.8195237E+00)
 number of electron     275.9999980 magnetization      50.9233144
 augmentation part      114.1251835 magnetization      37.7901821

 Broyden mixing:
  rms(total) = 0.27045E+01    rms(broyden)= 0.27044E+01
  rms(prec ) = 0.28336E+01
  weight for this iteration     100.00

 eigenvalues of (default mixing * dielectric matrix)
  average eigenvalue GAMMA=   1.1014
  2.8499  0.8033  0.3762  0.3762

 Free energy of the ion-electron system (eV)
  ---------------------------------------------------
  alpha Z        PSCENC =      1362.55286497
  Ewald energy   TEWEN  =    -25513.06237826
  -Hartree energ DENC   =     -9933.68833521
  -exchange      EXHF   =         0.00000000
  -V(xc)+E(xc)   XCENC  =      1362.36915054
  PAW double counting   =     36512.73937229   -37681.72220090
  entropy T*S    EENTRO =         0.00000000
  eigenvalues    EBANDS =     -3603.52641938
  atomic energy  EATOM  =     37271.83387656
  Solvation  Ediel_sol  =         0.00000000
  ---------------------------------------------------
  free energy    TOTEN  =      -222.50406939 eV

  energy without entropy =     -222.50406939  energy(sigma->0) =     -222.50406939


--------------------------------------------------------------------------------------------------------




--------------------------------------- Iteration      1(  10)  ---------------------------------------


    POTLOK:  cpu time    0.1319: real time    0.1328
    SETDIJ:  cpu time    0.0165: real time    0.0165
     EDDAV:  cpu time   21.2046: real time   21.2605
 BZINTS: Fermi energy:  5.958915;276.000000 electrons
         Band energy:***********;  BLOECHL correction: -0.037088
       DOS:  cpu time    0.0516: real time    0.0517
    CHARGE:  cpu time    0.8914: real time    0.8942
    MIXING:  cpu time    0.0033: real time    0.0033
    --------------------------------------------
      LOOP:  cpu time   22.2993: real time   22.3590

 eigenvalue-minimisations  : 12600
 total energy-change (2. order) : 0.3325881E+00  (-0.2451316E+00)
 number of electron     275.9999980 magnetization      50.6193978
 augmentation part      113.4163511 magnetization      37.3054939

 Broyden mixing:
  rms(total) = 0.18572E+01    rms(broyden)= 0.18572E+01
  rms(prec ) = 0.19676E+01
  weight for this iteration     100.00

 eigenvalues of (default mixing * dielectric matrix)
  average eigenvalue GAMMA=   1.0181
  2.6175  0.3741  0.7702  0.6643  0.6643

 Free energy of the ion-electron system (eV)
  ---------------------------------------------------
  alpha Z        PSCENC =      1362.55286497
  Ewald energy   TEWEN  =    -25513.06237826
  -Hartree energ DENC   =     -9949.18680312
  -exchange      EXHF   =         0.00000000
  -V(xc)+E(xc)   XCENC  =      1360.91972919
  PAW double counting   =     36550.21024523   -37722.55841196
  entropy T*S    EENTRO =         0.00000000
  eigenvalues    EBANDS =     -3582.88060392
  atomic energy  EATOM  =     37271.83387656
  Solvation  Ediel_sol  =         0.00000000
  ---------------------------------------------------
  free energy    TOTEN  =      -222.17148132 eV

  energy without entropy =     -222.17148132  energy(sigma->0) =     -222.17148132


--------------------------------------------------------------------------------------------------------




--------------------------------------- Iteration      1(  11)  ---------------------------------------


    POTLOK:  cpu time    0.1319: real time    0.1328
    SETDIJ:  cpu time    0.0161: real time    0.0161
     EDDAV:  cpu time   23.1549: real time   23.2149
 BZINTS: Fermi energy:  6.019934;276.000000 electrons
         Band energy:***********;  BLOECHL correction: -0.033982
       DOS:  cpu time    0.0495: real time    0.0496
    CHARGE:  cpu time    0.8792: real time    0.8814
    MIXING:  cpu time    0.0032: real time    0.0032
    --------------------------------------------
      LOOP:  cpu time   24.2348: real time   24.2981

 eigenvalue-minimisations  : 14280
 total energy-change (2. order) : 0.5619242E+00  (-0.2270296E-01)
 number of electron     275.9999980 magnetization      49.3119228
 augmentation part      112.9984258 magnetization      35.6145347

 Broyden mixing:
  rms(total) = 0.12173E+01    rms(broyden)= 0.12173E+01
  rms(prec ) = 0.12905E+01
  weight for this iteration     100.00

 eigenvalues of (default mixing * dielectric matrix)
  average eigenvalue GAMMA=   1.0451
  2.5822  0.9711  0.9711  0.3792  0.7999  0.5673

 Free energy of the ion-electron system (eV)
  ---------------------------------------------------
  alpha Z        PSCENC =      1362.55286497
  Ewald energy   TEWEN  =    -25513.06237826
  -Hartree energ DENC   =     -9960.26971052
  -exchange      EXHF   =         0.00000000
  -V(xc)+E(xc)   XCENC  =      1360.24845037
  PAW double counting   =     36381.19089464   -37551.54276595
  entropy T*S    EENTRO =         0.00000000
  eigenvalues    EBANDS =     -3572.56078897
  atomic energy  EATOM  =     37271.83387656
  Solvation  Ediel_sol  =         0.00000000
  ---------------------------------------------------
  free energy    TOTEN  =      -221.60955715 eV

  energy without entropy =     -221.60955715  energy(sigma->0) =     -221.60955715


--------------------------------------------------------------------------------------------------------




--------------------------------------- Iteration      1(  12)  ---------------------------------------


    POTLOK:  cpu time    0.1289: real time    0.1293
    SETDIJ:  cpu time    0.0159: real time    0.0160
     EDDAV:  cpu time   24.3993: real time   24.4618
 BZINTS: Fermi energy:  6.079537;276.000000 electrons
         Band energy:***********;  BLOECHL correction: -0.033296
       DOS:  cpu time    0.0515: real time    0.0517
    CHARGE:  cpu time    0.8897: real time    0.8920
    MIXING:  cpu time    0.0038: real time    0.0038
    --------------------------------------------
      LOOP:  cpu time   25.4892: real time   25.5545

 eigenvalue-minimisations  : 15240
 total energy-change (2. order) : 0.2020980E+00  (-0.1953857E-01)
 number of electron     275.9999981 magnetization      46.8741842
 augmentation part      112.6784140 magnetization      33.0742087

 Broyden mixing:
  rms(total) = 0.84247E+00    rms(broyden)= 0.84247E+00
  rms(prec ) = 0.88337E+00
  weight for this iteration     100.00

 eigenvalues of (default mixing * dielectric matrix)
  average eigenvalue GAMMA=   1.0975
  2.1410  1.6624  1.4766  0.3778  0.7519  0.6362  0.6362

 Free energy of the ion-electron system (eV)
  ---------------------------------------------------
  alpha Z        PSCENC =      1362.55286497
  Ewald energy   TEWEN  =    -25513.06237826
  -Hartree energ DENC   =     -9973.23893994
  -exchange      EXHF   =         0.00000000
  -V(xc)+E(xc)   XCENC  =      1359.60287007
  PAW double counting   =     36266.06407806   -37435.36461063
  entropy T*S    EENTRO =         0.00000000
  eigenvalues    EBANDS =     -3559.79522000
  atomic energy  EATOM  =     37271.83387656
  Solvation  Ediel_sol  =         0.00000000
  ---------------------------------------------------
  free energy    TOTEN  =      -221.40745916 eV

  energy without entropy =     -221.40745916  energy(sigma->0) =     -221.40745916


--------------------------------------------------------------------------------------------------------




--------------------------------------- Iteration      1(  13)  ---------------------------------------


    POTLOK:  cpu time    0.1308: real time    0.1313
    SETDIJ:  cpu time    0.0160: real time    0.0160
     EDDAV:  cpu time   22.7280: real time   22.7859
 BZINTS: Fermi energy:  6.138931;276.000000 electrons
         Band energy:***********;  BLOECHL correction: -0.034419
       DOS:  cpu time    0.0518: real time    0.0519
    CHARGE:  cpu time    0.8800: real time    0.8823
    MIXING:  cpu time    0.0038: real time    0.0038
    --------------------------------------------
      LOOP:  cpu time   23.8105: real time   23.8713

 eigenvalue-minimisations  : 13920
 total energy-change (2. order) : 0.7782960E-03  (-0.1123473E-01)
 number of electron     275.9999981 magnetization      43.9863158
 augmentation part      112.4081276 magnetization      30.4340445

 Broyden mixing:
  rms(total) = 0.46663E+00    rms(broyden)= 0.46663E+00
  rms(prec ) = 0.48986E+00
  weight for this iteration     100.00

 eigenvalues of (default mixing * dielectric matrix)
  average eigenvalue GAMMA=   1.3939
  3.4334  3.4334  0.3781  0.9286  0.9286  0.7247  0.7247  0.5999

 Free energy of the ion-electron system (eV)
  ---------------------------------------------------
  alpha Z        PSCENC =      1362.55286497
  Ewald energy   TEWEN  =    -25513.06237826
  -Hartree energ DENC   =     -9991.22233840
  -exchange      EXHF   =         0.00000000
  -V(xc)+E(xc)   XCENC  =      1358.78212309
  PAW double counting   =     36037.58453006   -37203.85442695
  entropy T*S    EENTRO =         0.00000000
  eigenvalues    EBANDS =     -3544.02093194
  atomic energy  EATOM  =     37271.83387656
  Solvation  Ediel_sol  =         0.00000000
  ---------------------------------------------------
  free energy    TOTEN  =      -221.40668086 eV

  energy without entropy =     -221.40668086  energy(sigma->0) =     -221.40668086


--------------------------------------------------------------------------------------------------------




--------------------------------------- Iteration      1(  14)  ---------------------------------------


    POTLOK:  cpu time    0.1273: real time    0.1277
    SETDIJ:  cpu time    0.0158: real time    0.0159
     EDDAV:  cpu time   24.0425: real time   24.1050
 BZINTS: Fermi energy:  6.171202;276.000000 electrons
         Band energy:***********;  BLOECHL correction: -0.032764
       DOS:  cpu time    0.0503: real time    0.0504
    CHARGE:  cpu time    0.8926: real time    0.8966
    MIXING:  cpu time    0.0037: real time    0.0037
    --------------------------------------------
      LOOP:  cpu time   25.1323: real time   25.1993

 eigenvalue-minimisations  : 14976
 total energy-change (2. order) :-0.4446541E-01  (-0.1535054E-01)
 number of electron     275.9999981 magnetization      43.0759451
 augmentation part      112.2246170 magnetization      29.9070983

 Broyden mixing:
  rms(total) = 0.18074E+00    rms(broyden)= 0.18073E+00
  rms(prec ) = 0.18831E+00
  weight for this iteration     100.00

 eigenvalues of (default mixing * dielectric matrix)
  average eigenvalue GAMMA=   1.5046
  5.3504  2.7811  1.2199  0.3781  0.8395  0.8395  0.8837  0.6247  0.6247

 Free energy of the ion-electron system (eV)
  ---------------------------------------------------
  alpha Z        PSCENC =      1362.55286497
  Ewald energy   TEWEN  =    -25513.06237826
  -Hartree energ DENC   =    -10003.84280930
  -exchange      EXHF   =         0.00000000
  -V(xc)+E(xc)   XCENC  =      1357.69249251
  PAW double counting   =     35837.58906320   -37000.83957203
  entropy T*S    EENTRO =         0.00000000
  eigenvalues    EBANDS =     -3533.37468393
  atomic energy  EATOM  =     37271.83387656
  Solvation  Ediel_sol  =         0.00000000
  ---------------------------------------------------
  free energy    TOTEN  =      -221.45114627 eV

  energy without entropy =     -221.45114627  energy(sigma->0) =     -221.45114627


--------------------------------------------------------------------------------------------------------




--------------------------------------- Iteration      1(  15)  ---------------------------------------


    POTLOK:  cpu time    0.1309: real time    0.1313
    SETDIJ:  cpu time    0.0161: real time    0.0161
     EDDAV:  cpu time   20.9706: real time   21.0288
 BZINTS: Fermi energy:  6.157061;276.000000 electrons
         Band energy:***********;  BLOECHL correction: -0.032956
       DOS:  cpu time    0.0518: real time    0.0519
    CHARGE:  cpu time    0.8920: real time    0.8948
    MIXING:  cpu time    0.0043: real time    0.0043
    --------------------------------------------
      LOOP:  cpu time   22.0656: real time   22.1272

 eigenvalue-minimisations  : 12600
 total energy-change (2. order) :-0.1817874E-01  (-0.6259418E-02)
 number of electron     275.9999981 magnetization      42.6371742
 augmentation part      112.2767434 magnetization      29.6429068

 Broyden mixing:
  rms(total) = 0.14404E+00    rms(broyden)= 0.14404E+00
  rms(prec ) = 0.15259E+00
  weight for this iteration     100.00

 eigenvalues of (default mixing * dielectric matrix)
  average eigenvalue GAMMA=   1.5469
  6.1294  2.8507  1.3594  1.0686  0.3781  0.8500  0.8500  0.6935  0.6935  0.5955

 Free energy of the ion-electron system (eV)
  ---------------------------------------------------
  alpha Z        PSCENC =      1362.55286497
  Ewald energy   TEWEN  =    -25513.06237826
  -Hartree energ DENC   =    -10002.52963310
  -exchange      EXHF   =         0.00000000
  -V(xc)+E(xc)   XCENC  =      1357.20133896
  PAW double counting   =     35824.30115814   -36987.17986916
  entropy T*S    EENTRO =         0.00000000
  eigenvalues    EBANDS =     -3534.58668311
  atomic energy  EATOM  =     37271.83387656
  Solvation  Ediel_sol  =         0.00000000
  ---------------------------------------------------
  free energy    TOTEN  =      -221.46932500 eV

  energy without entropy =     -221.46932500  energy(sigma->0) =     -221.46932500


--------------------------------------------------------------------------------------------------------




--------------------------------------- Iteration      1(  16)  ---------------------------------------


    POTLOK:  cpu time    0.1347: real time    0.1353
    SETDIJ:  cpu time    0.0163: real time    0.0164
     EDDAV:  cpu time   23.5754: real time   23.6366
 BZINTS: Fermi energy:  6.178403;276.000000 electrons
         Band energy:***********;  BLOECHL correction: -0.032837
       DOS:  cpu time    0.0492: real time    0.0493
    CHARGE:  cpu time    0.8890: real time    0.8915
    MIXING:  cpu time    0.0041: real time    0.0041
    --------------------------------------------
      LOOP:  cpu time   24.6687: real time   24.7332

 eigenvalue-minimisations  : 14424
 total energy-change (2. order) : 0.5136485E-02  (-0.9113818E-03)
 number of electron     275.9999981 magnetization      42.4954581
 augmentation part      112.1858648 magnetization      29.5015197

 Broyden mixing:
  rms(total) = 0.38117E-01    rms(broyden)= 0.38116E-01
  rms(prec ) = 0.39870E-01
  weight for this iteration     100.00

 eigenvalues of (default mixing * dielectric matrix)
  average eigenvalue GAMMA=   1.5372
  6.3149  2.7833  1.3185  1.3185  1.1134  0.3781  0.8103  0.8103  0.7268  0.7268
  0.6089

 Free energy of the ion-electron system (eV)
  ---------------------------------------------------
  alpha Z        PSCENC =      1362.55286497
  Ewald energy   TEWEN  =    -25513.06237826
  -Hartree energ DENC   =    -10007.18500334
  -exchange      EXHF   =         0.00000000
  -V(xc)+E(xc)   XCENC  =      1357.08998098
  PAW double counting   =     35782.32217431   -36945.10058641
  entropy T*S    EENTRO =         0.00000000
  eigenvalues    EBANDS =     -3529.91511733
  atomic energy  EATOM  =     37271.83387656
  Solvation  Ediel_sol  =         0.00000000
  ---------------------------------------------------
  free energy    TOTEN  =      -221.46418852 eV

  energy without entropy =     -221.46418852  energy(sigma->0) =     -221.46418852


--------------------------------------------------------------------------------------------------------




--------------------------------------- Iteration      1(  17)  ---------------------------------------


    POTLOK:  cpu time    0.1280: real time    0.1286
    SETDIJ:  cpu time    0.0157: real time    0.0157
     EDDAV:  cpu time   20.7815: real time   20.8439
 BZINTS: Fermi energy:  6.179588;276.000000 electrons
         Band energy:***********;  BLOECHL correction: -0.032783
       DOS:  cpu time    0.0516: real time    0.0517
    CHARGE:  cpu time    0.8954: real time    0.8978
    MIXING:  cpu time    0.0045: real time    0.0045
    --------------------------------------------
      LOOP:  cpu time   21.8767: real time   21.9422

 eigenvalue-minimisations  : 12444
 total energy-change (2. order) :-0.6181470E-03  (-0.4840970E-03)
 number of electron     275.9999981 magnetization      42.3963455
 augmentation part      112.1806338 magnetization      29.4157699

 Broyden mixing:
  rms(total) = 0.19488E-01    rms(broyden)= 0.19487E-01
  rms(prec ) = 0.20087E-01
  weight for this iteration     100.00

 eigenvalues of (default mixing * dielectric matrix)
  average eigenvalue GAMMA=   1.5616
  6.5216  2.7655  2.4519  1.0711  1.0711  0.3781  0.8913  0.8913  0.7200  0.7200
  0.6042  0.6534

 Free energy of the ion-electron system (eV)
  ---------------------------------------------------
  alpha Z        PSCENC =      1362.55286497
  Ewald energy   TEWEN  =    -25513.06237826
  -Hartree energ DENC   =    -10006.90557380
  -exchange      EXHF   =         0.00000000
  -V(xc)+E(xc)   XCENC  =      1357.02093674
  PAW double counting   =     35802.09418461   -36965.43024875
  entropy T*S    EENTRO =         0.00000000
  eigenvalues    EBANDS =     -3529.56846874
  atomic energy  EATOM  =     37271.83387656
  Solvation  Ediel_sol  =         0.00000000
  ---------------------------------------------------
  free energy    TOTEN  =      -221.46480667 eV

  energy without entropy =     -221.46480667  energy(sigma->0) =     -221.46480667


--------------------------------------------------------------------------------------------------------




--------------------------------------- Iteration      1(  18)  ---------------------------------------


    POTLOK:  cpu time    0.1314: real time    0.1319
    SETDIJ:  cpu time    0.0161: real time    0.0162
     EDDAV:  cpu time   22.8674: real time   22.9282
 BZINTS: Fermi energy:  6.180068;276.000000 electrons
         Band energy:***********;  BLOECHL correction: -0.032907
       DOS:  cpu time    0.0474: real time    0.0475
    CHARGE:  cpu time    0.8915: real time    0.8938
    MIXING:  cpu time    0.0049: real time    0.0049
    --------------------------------------------
      LOOP:  cpu time   23.9588: real time   24.0224

 eigenvalue-minimisations  : 14040
 total energy-change (2. order) :-0.2375975E-03  (-0.2534383E-04)
 number of electron     275.9999981 magnetization      42.3448424
 augmentation part      112.1756782 magnetization      29.3821902

 Broyden mixing:
  rms(total) = 0.86496E-02    rms(broyden)= 0.86494E-02
  rms(prec ) = 0.89983E-02
  weight for this iteration     100.00

 eigenvalues of (default mixing * dielectric matrix)
  average eigenvalue GAMMA=   1.5330
  6.6543  2.8438  2.4455  1.1482  1.1482  0.9569  0.9569  0.3781  0.7415  0.7415
  0.6875  0.6129  0.6129

 Free energy of the ion-electron system (eV)
  ---------------------------------------------------
  alpha Z        PSCENC =      1362.55286497
  Ewald energy   TEWEN  =    -25513.06237826
  -Hartree energ DENC   =    -10007.20764165
  -exchange      EXHF   =         0.00000000
  -V(xc)+E(xc)   XCENC  =      1356.97177835
  PAW double counting   =     35799.89919224   -36963.27762282
  entropy T*S    EENTRO =         0.00000000
  eigenvalues    EBANDS =     -3529.17511366
  atomic energy  EATOM  =     37271.83387656
  Solvation  Ediel_sol  =         0.00000000
  ---------------------------------------------------
  free energy    TOTEN  =      -221.46504426 eV

  energy without entropy =     -221.46504426  energy(sigma->0) =     -221.46504426


--------------------------------------------------------------------------------------------------------




--------------------------------------- Iteration      1(  19)  ---------------------------------------


    POTLOK:  cpu time    0.1324: real time    0.1330
    SETDIJ:  cpu time    0.0162: real time    0.0162
     EDDAV:  cpu time   22.4559: real time   22.5142
 BZINTS: Fermi energy:  6.181042;276.000000 electrons
         Band energy:***********;  BLOECHL correction: -0.032966
       DOS:  cpu time    0.0516: real time    0.0517
    CHARGE:  cpu time    0.8946: real time    0.8968
    MIXING:  cpu time    0.0044: real time    0.0044
    --------------------------------------------
      LOOP:  cpu time   23.5550: real time   23.6164

 eigenvalue-minimisations  : 13740
 total energy-change (2. order) :-0.5719031E-04  (-0.1022265E-04)
 number of electron     275.9999981 magnetization      42.3362260
 augmentation part      112.1714919 magnetization      29.3820213

 Broyden mixing:
  rms(total) = 0.17567E-02    rms(broyden)= 0.17564E-02
  rms(prec ) = 0.18731E-02
  weight for this iteration     100.00

 eigenvalues of (default mixing * dielectric matrix)
  average eigenvalue GAMMA=   1.5152
  6.7181  2.8556  2.4225  1.2982  1.2982  0.9876  0.9876  0.3781  0.7764  0.7764
  0.7428  0.7428  0.6142  0.6142

 Free energy of the ion-electron system (eV)
  ---------------------------------------------------
  alpha Z        PSCENC =      1362.55286497
  Ewald energy   TEWEN  =    -25513.06237826
  -Hartree energ DENC   =    -10007.55695911
  -exchange      EXHF   =         0.00000000
  -V(xc)+E(xc)   XCENC  =      1356.95165914
  PAW double counting   =     35795.36723167   -36958.69006816
  entropy T*S    EENTRO =         0.00000000
  eigenvalues    EBANDS =     -3528.86132827
  atomic energy  EATOM  =     37271.83387656
  Solvation  Ediel_sol  =         0.00000000
  ---------------------------------------------------
  free energy    TOTEN  =      -221.46510145 eV

  energy without entropy =     -221.46510145  energy(sigma->0) =     -221.46510145


--------------------------------------------------------------------------------------------------------




--------------------------------------- Iteration      1(  20)  ---------------------------------------


    POTLOK:  cpu time    0.1307: real time    0.1311
    SETDIJ:  cpu time    0.0161: real time    0.0161
     EDDAV:  cpu time   21.0633: real time   21.1177
 BZINTS: Fermi energy:  6.181412;276.000000 electrons
         Band energy:***********;  BLOECHL correction: -0.032973
       DOS:  cpu time    0.0486: real time    0.0487
    CHARGE:  cpu time    0.8942: real time    0.8965
    MIXING:  cpu time    0.0053: real time    0.0053
    --------------------------------------------
      LOOP:  cpu time   22.1582: real time   22.2154

 eigenvalue-minimisations  : 12456
 total energy-change (2. order) :-0.8610106E-05  (-0.2174609E-05)
 number of electron     275.9999981 magnetization      42.3326740
 augmentation part      112.1707489 magnetization      29.3799903

 Broyden mixing:
  rms(total) = 0.88590E-03    rms(broyden)= 0.88585E-03
  rms(prec ) = 0.90625E-03
  weight for this iteration     100.00

 eigenvalues of (default mixing * dielectric matrix)
  average eigenvalue GAMMA=   1.5130
  6.7508  2.9661  2.4015  1.8791  1.0848  1.0848  1.0054  1.0054  0.3781  0.7391
  0.7391  0.6048  0.7014  0.6772  0.6772

 Free energy of the ion-electron system (eV)
  ---------------------------------------------------
  alpha Z        PSCENC =      1362.55286497
  Ewald energy   TEWEN  =    -25513.06237826
  -Hartree energ DENC   =    -10007.64238147
  -exchange      EXHF   =         0.00000000
  -V(xc)+E(xc)   XCENC  =      1356.94843679
  PAW double counting   =     35795.24103581   -36958.57034722
  entropy T*S    EENTRO =         0.00000000
  eigenvalues    EBANDS =     -3528.76621724
  atomic energy  EATOM  =     37271.83387656
  Solvation  Ediel_sol  =         0.00000000
  ---------------------------------------------------
  free energy    TOTEN  =      -221.46511006 eV

  energy without entropy =     -221.46511006  energy(sigma->0) =     -221.46511006


--------------------------------------------------------------------------------------------------------




--------------------------------------- Iteration      1(  21)  ---------------------------------------


    POTLOK:  cpu time    0.1312: real time    0.1316
    SETDIJ:  cpu time    0.0161: real time    0.0162
     EDDAV:  cpu time   21.1112: real time   21.1655
 BZINTS: Fermi energy:  6.181772;276.000000 electrons
         Band energy:***********;  BLOECHL correction: -0.032971
       DOS:  cpu time    0.0506: real time    0.0508
    CHARGE:  cpu time    0.8918: real time    0.8941
    MIXING:  cpu time    0.0052: real time    0.0053
    --------------------------------------------
      LOOP:  cpu time   22.2062: real time   22.2634

 eigenvalue-minimisations  : 12660
 total energy-change (2. order) : 0.1827539E-05  (-0.2337742E-06)
 number of electron     275.9999981 magnetization      42.3346635
 augmentation part      112.1695480 magnetization      29.3817455

 Broyden mixing:
  rms(total) = 0.11270E-02    rms(broyden)= 0.11269E-02
  rms(prec ) = 0.11949E-02
  weight for this iteration     100.00

 eigenvalues of (default mixing * dielectric matrix)
  average eigenvalue GAMMA=   1.5047
  6.7514  3.0090  2.4449  2.1950  1.1928  1.1928  0.9929  0.9929  0.3781  0.7799
  0.7799  0.7320  0.7320  0.6709  0.6150  0.6150

 Free energy of the ion-electron system (eV)
  ---------------------------------------------------
  alpha Z        PSCENC =      1362.55286497
  Ewald energy   TEWEN  =    -25513.06237826
  -Hartree energ DENC   =    -10007.71458897
  -exchange      EXHF   =         0.00000000
  -V(xc)+E(xc)   XCENC  =      1356.94914296
  PAW double counting   =     35794.91137639   -36958.25037111
  entropy T*S    EENTRO =         0.00000000
  eigenvalues    EBANDS =     -3528.68503078
  atomic energy  EATOM  =     37271.83387656
  Solvation  Ediel_sol  =         0.00000000
  ---------------------------------------------------
  free energy    TOTEN  =      -221.46510824 eV

  energy without entropy =     -221.46510824  energy(sigma->0) =     -221.46510824


--------------------------------------------------------------------------------------------------------




--------------------------------------- Iteration      1(  22)  ---------------------------------------


    POTLOK:  cpu time    0.1311: real time    0.1318
    SETDIJ:  cpu time    0.0161: real time    0.0161
     EDDAV:  cpu time   18.6094: real time   18.6611
 BZINTS: Fermi energy:  6.181619;276.000000 electrons
         Band energy:***********;  BLOECHL correction: -0.032972
       DOS:  cpu time    0.0467: real time    0.0468
    CHARGE:  cpu time    0.8964: real time    0.8987
    MIXING:  cpu time    0.0051: real time    0.0051
    --------------------------------------------
      LOOP:  cpu time   19.7048: real time   19.7595

 eigenvalue-minimisations  : 10728
 total energy-change (2. order) :-0.1094151E-05  (-0.1069820E-06)
 number of electron     275.9999981 magnetization      42.3368318
 augmentation part      112.1702067 magnetization      29.3839921

 Broyden mixing:
  rms(total) = 0.51947E-03    rms(broyden)= 0.51947E-03
  rms(prec ) = 0.54841E-03
  weight for this iteration     100.00

 eigenvalues of (default mixing * dielectric matrix)
  average eigenvalue GAMMA=   1.4872
  6.7351  2.9839  2.6461  2.1477  1.3704  0.3781  1.0172  1.0172  1.0085  1.0085
  0.8092  0.8092  0.7436  0.7436  0.6088  0.6280  0.6280

 Free energy of the ion-electron system (eV)
  ---------------------------------------------------
  alpha Z        PSCENC =      1362.55286497
  Ewald energy   TEWEN  =    -25513.06237826
  -Hartree energ DENC   =    -10007.68018840
  -exchange      EXHF   =         0.00000000
  -V(xc)+E(xc)   XCENC  =      1356.94937401
  PAW double counting   =     35795.17883771   -36958.52045110
  entropy T*S    EENTRO =         0.00000000
  eigenvalues    EBANDS =     -3528.71704482
  atomic energy  EATOM  =     37271.83387656
  Solvation  Ediel_sol  =         0.00000000
  ---------------------------------------------------
  free energy    TOTEN  =      -221.46510933 eV

  energy without entropy =     -221.46510933  energy(sigma->0) =     -221.46510933


--------------------------------------------------------------------------------------------------------




--------------------------------------- Iteration      1(  23)  ---------------------------------------


    POTLOK:  cpu time    0.1313: real time    0.1317
    SETDIJ:  cpu time    0.0161: real time    0.0161
     EDDAV:  cpu time   17.6462: real time   17.6917
 BZINTS: Fermi energy:  6.181529;276.000000 electrons
         Band energy:***********;  BLOECHL correction: -0.032972
       DOS:  cpu time    0.0492: real time    0.0494
    --------------------------------------------
      LOOP:  cpu time   17.8428: real time   17.8888

 eigenvalue-minimisations  :  9924
 total energy-change (2. order) : 0.1808075E-07  (-0.2978603E-07)
 number of electron     275.9999981 magnetization      42.3368318
 augmentation part      112.1702067 magnetization      29.3839921

 Free energy of the ion-electron system (eV)
  ---------------------------------------------------
  alpha Z        PSCENC =      1362.55286497
  Ewald energy   TEWEN  =    -25513.06237826
  -Hartree energ DENC   =    -10007.65743228
  -exchange      EXHF   =         0.00000000
  -V(xc)+E(xc)   XCENC  =      1356.95005434
  PAW double counting   =     35795.38361602   -36958.72784668
  entropy T*S    EENTRO =         0.00000000
  eigenvalues    EBANDS =     -3528.73786398
  atomic energy  EATOM  =     37271.83387656
  Solvation  Ediel_sol  =         0.00000000
  ---------------------------------------------------
  free energy    TOTEN  =      -221.46510931 eV

  energy without entropy =     -221.46510931  energy(sigma->0) =     -221.46510931


--------------------------------------------------------------------------------------------------------




 average (electrostatic) potential at core
  the test charge radii are     0.9500  0.7215
  (the norm of the test charge is              1.0000)
       1 -78.6233       2 -78.6233       3 -78.6238       4 -78.6232       5 -78.6232
       6 -78.6238       7 -78.6233       8 -78.6233       9 -78.6232      10 -78.6238
      11 -78.6238      12 -78.6232      13 -69.7242      14 -69.7242      15 -69.7244
      16 -69.7246      17 -69.7247      18 -69.7245      19 -69.7242      20 -69.7242
      21 -69.7246      22 -69.7245      23 -69.7245      24 -69.7246      25 -69.7241
      26 -69.7241      27 -69.7246      28 -69.7246      29 -69.7246      30 -69.7246
 
 
 
 E-fermi :   6.1815     XC(G=0): -11.9045     alpha+bet :-12.3870


 spin component 1

 k-point     1 :       0.0000    0.0000    0.0000
  band No.  band energies     occupation 
      1     -49.9117      1.00000
      2     -49.9083      1.00000
      3     -49.9082      1.00000
      4     -49.9048      1.00000
      5     -49.9041      1.00000
      6     -49.9040      1.00000
      7     -49.8840      1.00000
      8     -49.8839      1.00000
      9     -49.8830      1.00000
     10     -49.8828      1.00000
     11     -49.8816      1.00000
     12     -49.8810      1.00000
     13     -49.8800      1.00000
     14     -49.8800      1.00000
     15     -49.8800      1.00000
     16     -49.8799      1.00000
     17     -49.8796      1.00000
     18     -49.8796      1.00000
     19     -49.8787      1.00000
     20     -49.8787      1.00000
[...]
 -0.000  -0.002   0.000   0.000  -0.001   0.000   0.000  -0.000  -0.006   0.000   0.000  -0.000   0.000   0.009  -0.000  -0.000
 total augmentation occupancy for first ion, spin component:           2
 -0.003   0.000  -0.000  -0.010   0.000   0.000   0.002   0.001  -0.000   0.000   0.000  -0.003  -0.002   0.000  -0.000  -0.000
 -0.000  -0.003   0.000   0.000  -0.010  -0.000  -0.000   0.000  -0.001  -0.000   0.000   0.000  -0.000   0.002   0.000  -0.000
  0.000  -0.000  -0.003  -0.000   0.000  -0.010   0.000  -0.000   0.000   0.001  -0.002  -0.000   0.000  -0.000  -0.002   0.003
 -0.010   0.000  -0.000   0.021  -0.000   0.000  -0.085  -0.050  -0.000   0.002   0.013   0.049   0.032   0.000  -0.001  -0.008
 -0.000  -0.010   0.000   0.000   0.017   0.000   0.000  -0.000   0.076   0.000  -0.000  -0.000   0.000  -0.043   0.000   0.000
  0.000   0.000  -0.010   0.000  -0.000   0.021   0.013  -0.002  -0.000  -0.050   0.085  -0.008   0.001   0.000   0.032  -0.049
  0.002   0.000   0.000  -0.085   0.000   0.013   4.295   0.577  -0.000  -0.179   0.000  -2.428  -0.471  -0.000   0.166   0.002
  0.001   0.000  -0.000  -0.050  -0.000  -0.002   0.577   5.021   0.000  -0.000  -0.179  -0.469  -3.026  -0.000   0.003   0.166
 -0.000  -0.001   0.000  -0.000   0.076  -0.000  -0.000   0.000   4.387   0.000  -0.000   0.000  -0.000  -2.383  -0.000   0.000
  0.000   0.000   0.001   0.002   0.000  -0.050  -0.179  -0.000   0.000   5.021  -0.577   0.166  -0.003  -0.000  -3.026   0.469
  0.000   0.000  -0.002   0.013  -0.000   0.085  -0.000  -0.179  -0.000  -0.577   4.295  -0.002   0.166   0.000   0.471  -2.428
 -0.003  -0.000  -0.000   0.049  -0.000  -0.008  -2.428  -0.469   0.000   0.166  -0.002   1.294   0.332   0.000  -0.129  -0.000
 -0.002   0.000   0.000   0.032   0.000   0.001  -0.471  -3.026  -0.000  -0.003   0.166   0.332   1.751   0.000   0.000  -0.129
  0.000   0.002  -0.000   0.000  -0.043   0.000  -0.000  -0.000  -2.383  -0.000   0.000   0.000   0.000   1.231   0.000  -0.000
 -0.000  -0.000  -0.002  -0.001  -0.000   0.032   0.166   0.003  -0.000  -3.026   0.471  -0.129   0.000   0.000   1.751  -0.332
 -0.000  -0.000   0.003  -0.008   0.000  -0.049   0.002   0.166   0.000   0.469  -2.428   0.000  -0.129  -0.000  -0.332   1.294
  0.000   0.000   0.000   0.000   0.001   0.000  -0.000  -0.000   0.044  -0.000  -0.000  -0.000  -0.000  -0.022   0.000   0.000
  0.000   0.000  -0.000   0.000   0.001   0.000  -0.000   0.000   0.007   0.000  -0.000  -0.000   0.000  -0.005   0.000   0.000


------------------------ aborting loop because EDIFF is reached ----------------------------------------


 


 total charge     
 
# of ion       s       p       d       tot
------------------------------------------
    1        0.284   6.340   5.852  12.476
    2        0.284   6.340   5.854  12.478
    3        0.284   6.340   5.862  12.486
    4        0.284   6.340   5.852  12.475
    5        0.283   6.340   5.854  12.478
    6        0.284   6.340   5.865  12.489
    7        0.284   6.340   5.851  12.474
    8        0.284   6.340   5.853  12.477
    9        0.283   6.340   5.854  12.477
   10        0.283   6.340   5.868  12.492
   11        0.283   6.340   5.865  12.489
   12        0.283   6.340   5.857  12.480
   13        1.567   3.416   0.000   4.984
   14        1.567   3.416   0.000   4.983
   15        1.567   3.416   0.000   4.984
   16        1.567   3.417   0.000   4.984
   17        1.567   3.417   0.000   4.985
   18        1.567   3.416   0.000   4.984
   19        1.567   3.404   0.000   4.970
   20        1.567   3.403   0.000   4.970
   21        1.567   3.404   0.000   4.971
   22        1.567   3.404   0.000   4.971
   23        1.567   3.404   0.000   4.971
   24        1.567   3.404   0.000   4.971
   25        1.568   3.417   0.000   4.986
   26        1.568   3.417   0.000   4.985
   27        1.568   3.418   0.000   4.987
   28        1.568   3.419   0.000   4.988
   29        1.568   3.419   0.000   4.987
   30        1.568   3.419   0.000   4.987
--------------------------------------------------
tot         31.617 137.511  70.288 239.415
 


 magnetization (x)
 
# of ion       s       p       d       tot
------------------------------------------
    1        0.024   0.036   3.141   3.201
    2        0.024   0.036   3.138   3.198
    3        0.025   0.036   3.135   3.195
    4        0.025   0.036   3.140   3.201
    5        0.025   0.036   3.140   3.201
    6        0.025   0.036   3.132   3.193
    7        0.024   0.036   3.125   3.185
    8        0.024   0.036   3.122   3.183
    9        0.025   0.036   3.123   3.183
   10        0.025   0.036   3.116   3.177
   11        0.025   0.036   3.119   3.179
   12        0.025   0.036   3.123   3.183
   13        0.020   0.139   0.000   0.160
   14        0.020   0.139   0.000   0.159
   15        0.020   0.139   0.000   0.159
   16        0.020   0.140   0.000   0.160
   17        0.020   0.140   0.000   0.161
   18        0.020   0.139   0.000   0.160
   19        0.021   0.143   0.000   0.165
   20        0.021   0.143   0.000   0.164
   21        0.021   0.144   0.000   0.165
   22        0.021   0.144   0.000   0.165
   23        0.021   0.144   0.000   0.165
   24        0.021   0.144   0.000   0.166
   25        0.020   0.136   0.000   0.156
   26        0.020   0.135   0.000   0.155
   27        0.020   0.136   0.000   0.157
   28        0.020   0.137   0.000   0.158
   29        0.020   0.137   0.000   0.157
   30        0.020   0.137   0.000   0.157
--------------------------------------------------
tot          0.668   2.948  37.554  41.170
 
    CHARGE:  cpu time    0.8865: real time    0.8888
    FORLOC:  cpu time    0.0170: real time    0.0171
    FORNL :  cpu time    5.7050: real time    5.7193
    STRESS:  cpu time   16.9625: real time   17.0055
    FORCOR:  cpu time    0.1415: real time    0.1420
    FORHAR:  cpu time    0.0279: real time    0.0279
    MIXING:  cpu time    0.0056: real time    0.0056
    OFIELD:  cpu time    0.0001: real time    0.0001

  FORCE on cell =-STRESS in cart. coord.  units (eV):
  Direction    XX          YY          ZZ          XY          YZ          ZX
  --------------------------------------------------------------------------------------
  Alpha Z  1362.55286  1362.55286  1362.55286
  Ewald   -8201.75422 -8201.75360 -9109.63806     0.00000     0.00002    -0.00000
  Hartree  3503.88692  3503.88677  2999.88322    -0.00000     0.00001    -0.00000
  E(xc)   -1615.80327 -1615.80330 -1617.36701    -0.00003     0.00000    -0.00000
  Local    -165.20709  -165.20712  1230.62429    -0.00030    -0.00003     0.00000
  n-local  -743.02679  -741.91688  -744.46254    -4.16798     0.49356     0.11406
  augment  1844.62530  1844.62531  1846.55016     0.00028     0.00000    -0.00000
  Kinetic  4007.22133  4009.31662  4025.07865     7.65565    -1.99021    -5.04385
  Fock        0.00000     0.00000     0.00000     0.00000     0.00000     0.00000
  -------------------------------------------------------------------------------------
  Total      -5.90214    -5.90214    -6.77843     0.00000     0.00000     0.00000
  in kB     -31.30511   -31.30510   -35.95293     0.00000     0.00000     0.00000
  external pressure =      -32.85 kB  Pullay stress =        0.00 kB


 VOLUME and BASIS-vectors are now :
 -----------------------------------------------------------------------------
  energy-cutoff  :      840.00
  volume of cell :      302.07
      direct lattice vectors                 reciprocal lattice vectors
     5.035100000  0.000000000  0.000000000     0.198605787  0.114665118  0.000000000
    -2.517550000  4.360524000  0.000000000     0.000000000  0.229330236  0.000000000
     0.000000000  0.000000000 13.758100000     0.000000000  0.000000000  0.072684455

  length of vectors
     5.035100000  5.035099558 13.758100000     0.229330216  0.229330236  0.072684455


 FORCES acting on ions
    electron-ion (+dipol)            ewald-force                    non-local-force                 convergence-correction
 -----------------------------------------------------------------------------------------------
   0.156E-03 0.366E-03 -.126E+03   -.101E-02 0.523E-03 0.128E+03   0.304E-17 0.000E+00 -.289E+01   -.318E-07 0.141E-07 0.967E-04
   -.402E-03 0.580E-03 0.126E+03   0.101E-02 -.523E-03 -.128E+03   0.130E-17 -.434E-18 0.289E+01   0.518E-07 -.288E-07 -.967E-04
   -.135E-03 0.533E-03 -.126E+03   0.314E-02 -.187E-02 0.128E+03   -.607E-17 -.304E-17 -.289E+01   0.661E-06 -.389E-06 0.113E-03
   -.328E-03 0.645E-03 -.126E+03   -.220E-02 0.121E-02 0.128E+03   -.867E-18 0.434E-18 -.289E+01   -.603E-06 0.341E-06 0.118E-03
   0.816E-04 0.301E-03 0.126E+03   0.220E-02 -.121E-02 -.128E+03   0.304E-17 -.434E-18 0.289E+01   0.623E-06 -.356E-06 -.118E-03
   -.111E-03 0.412E-03 0.126E+03   -.314E-02 0.187E-02 -.128E+03   0.000E+00 0.520E-17 0.289E+01   -.641E-06 0.374E-06 -.113E-03
   0.566E-03 -.105E-02 0.126E+03   0.964E-03 -.523E-03 -.128E+03   0.282E-17 0.260E-17 0.289E+01   0.474E-07 -.262E-07 -.967E-04
   0.104E-02 -.127E-02 -.126E+03   -.964E-03 0.523E-03 0.128E+03   -.152E-17 0.173E-17 -.289E+01   -.335E-07 0.222E-07 0.967E-04
   0.105E-02 -.133E-02 0.126E+03   0.215E-02 -.121E-02 -.128E+03   0.867E-17 -.130E-17 0.289E+01   0.616E-06 -.357E-06 -.118E-03
   0.750E-03 -.110E-02 -.126E+03   0.319E-02 -.187E-02 0.128E+03   -.651E-17 -.347E-17 -.289E+01   0.662E-06 -.376E-06 0.113E-03
   0.856E-03 -.121E-02 0.126E+03   -.319E-02 0.187E-02 -.128E+03   0.217E-18 -.434E-18 0.289E+01   -.648E-06 0.372E-06 -.113E-03
   0.557E-03 -.989E-03 -.126E+03   -.215E-02 0.121E-02 0.128E+03   -.954E-17 -.347E-17 -.289E+01   -.602E-06 0.353E-06 0.118E-03
   -.424E+02 -.134E-02 0.216E-03   0.418E+02 0.106E-02 -.470E-03   0.674E+00 -.366E-17 0.119E-17   0.241E-03 0.152E-06 -.196E-07
   0.424E+02 -.869E-04 -.337E-03   -.418E+02 -.106E-02 0.470E-03   -.674E+00 -.217E-17 -.379E-17   -.241E-03 -.160E-06 0.893E-08
   -.424E+02 -.320E-02 -.584E-02   0.418E+02 0.570E-03 -.997E-03   0.674E+00 0.488E-17 -.623E-17   0.241E-03 -.136E-06 -.481E-05
   -.424E+02 0.240E-02 0.544E-02   0.418E+02 -.163E-02 0.147E-02   0.674E+00 -.228E-17 -.781E-17   0.242E-03 -.260E-07 0.481E-05
   0.424E+02 -.383E-02 -.556E-02   -.418E+02 0.163E-02 -.147E-02   -.674E+00 -.427E-18 0.737E-17   -.242E-03 0.175E-07 -.482E-05
   0.424E+02 0.177E-02 0.572E-02   -.418E+02 -.570E-03 0.997E-03   -.674E+00 0.515E-17 -.379E-17   -.241E-03 0.128E-06 0.480E-05
   0.212E+02 -.367E+02 -.308E-03   -.209E+02 0.362E+02 0.438E-03   -.337E+00 0.584E+00 -.607E-17   -.121E-03 0.209E-03 0.869E-08
   -.212E+02 0.367E+02 0.195E-03   0.209E+02 -.362E+02 -.438E-03   0.337E+00 -.584E+00 0.347E-17   0.121E-03 -.209E-03 -.194E-07
   0.212E+02 -.367E+02 -.553E-02   -.209E+02 0.362E+02 -.150E-02   -.337E+00 0.584E+00 0.130E-16   -.121E-03 0.209E-03 -.482E-05
   0.212E+02 -.367E+02 0.574E-02   -.209E+02 0.362E+02 0.964E-03   -.337E+00 0.584E+00 0.121E-16   -.121E-03 0.209E-03 0.480E-05
   -.212E+02 0.367E+02 -.586E-02   0.209E+02 -.362E+02 -.964E-03   0.337E+00 -.584E+00 0.607E-17   0.121E-03 -.209E-03 -.481E-05
   -.212E+02 0.367E+02 0.542E-02   0.209E+02 -.362E+02 0.150E-02   0.337E+00 -.584E+00 0.607E-17   0.121E-03 -.209E-03 0.481E-05
   0.212E+02 0.367E+02 0.939E-04   -.209E+02 -.362E+02 0.322E-04   -.337E+00 -.584E+00 0.347E-17   -.121E-03 -.209E-03 0.108E-07
   -.212E+02 -.367E+02 0.144E-03   0.209E+02 0.362E+02 -.322E-04   0.337E+00 0.584E+00 -.607E-17   0.121E-03 0.209E-03 0.103E-07
   0.212E+02 0.367E+02 -.408E-02   -.209E+02 -.362E+02 -.303E-02   -.337E+00 -.584E+00 0.607E-17   -.121E-03 -.209E-03 -.482E-05
   -.212E+02 -.367E+02 -.403E-02   0.209E+02 0.362E+02 -.310E-02   0.337E+00 0.584E+00 -.954E-17   0.121E-03 0.209E-03 -.482E-05
   0.212E+02 0.367E+02 0.427E-02   -.209E+02 -.362E+02 0.310E-02   -.337E+00 -.584E+00 0.173E-17   -.121E-03 -.209E-03 0.484E-05
   -.212E+02 -.367E+02 0.432E-02   0.209E+02 0.362E+02 0.303E-02   0.337E+00 0.584E+00 -.607E-17   0.121E-03 0.209E-03 0.484E-05
 -----------------------------------------------------------------------------------------------
   0.150E-01 -.165E-01 -.111E-04   -.995E-13 -.995E-13 -.192E-12   0.000E+00 -.333E-15 -.433E-15   0.120E-06 -.576E-07 0.886E-10
 
 
 POSITION                                       TOTAL-FORCE (eV/Angst)
 -----------------------------------------------------------------------------------
      0.00000      0.00000      4.88853         0.000000      0.000000     -0.928407
      0.00000      0.00000      8.86957         0.000000      0.000000      0.928407
     -0.00000      2.90702      0.30250         0.000000      0.000000     -0.928407
      2.51755      1.45351      9.47456         0.000000      0.000000     -0.928407
     -0.00000      2.90702      4.28354         0.000000      0.000000      0.928407
      2.51755      1.45351     13.45560         0.000000      0.000000      0.928407
      0.00000      0.00000      1.99052         0.000000      0.000000      0.928407
      0.00000      0.00000     11.76758         0.000000      0.000000     -0.928407
     -0.00000      2.90702     11.16259         0.000000      0.000000      0.928407
     -0.00000      2.90702      7.18155         0.000000      0.000000     -0.928407
      2.51755      1.45351      6.57655         0.000000      0.000000      0.928407
      2.51755      1.45351      2.59551         0.000000      0.000000     -0.928407
      1.54165      0.00000      3.43953         0.081886      0.000000      0.000000
      3.49345      0.00000     10.31858        -0.081886      0.000000      0.000000
      1.54164      2.90702     12.61160         0.081886      0.000000      0.000000
      4.05920      1.45351      8.02555         0.081886      0.000000      0.000000
     -1.54165      2.90702      5.73255        -0.081886      0.000000      0.000000
      0.97591      1.45351      1.14650        -0.081886      0.000000      0.000000
     -0.77082      1.33511      3.43953        -0.040943      0.070916      0.000000
     -1.74673      3.02542     10.31858         0.040943     -0.070916      0.000000
     -0.77083      4.24212     12.61160        -0.040943      0.070916      0.000000
      1.74673      2.78861      8.02555        -0.040943      0.070916      0.000000
      0.77082      1.57191      5.73255         0.040943     -0.070916      0.000000
      3.28838      0.11840      1.14650         0.040943     -0.070916      0.000000
      1.74673      3.02542      3.43953        -0.040943     -0.070916      0.000000
      0.77082      1.33511     10.31858         0.040943      0.070916      0.000000
     -0.77083      1.57191     12.61160        -0.040943     -0.070916      0.000000
      0.77082      4.24212      5.73255         0.040943      0.070916      0.000000
      1.74673      0.11840      8.02555        -0.040943     -0.070916      0.000000
      3.28838      2.78861      1.14650         0.040943      0.070916      0.000000
 -----------------------------------------------------------------------------------
    total drift:                                0.015000     -0.016538     -0.000011


--------------------------------------------------------------------------------------------------------



  FREE ENERGIE OF THE ION-ELECTRON SYSTEM (eV)
  ---------------------------------------------------
  free  energy   TOTEN  =      -221.46510931 eV

  energy  without entropy=     -221.46510931  energy(sigma->0) =     -221.46510931
 


--------------------------------------------------------------------------------------------------------


    POTLOK:  cpu time    0.1478: real time    0.1481


--------------------------------------------------------------------------------------------------------


     LOOP+:  cpu time  533.8928: real time  535.3070
    4ORBIT:  cpu time    0.0000: real time    0.0000
 


 total charge     
 
# of ion       s       p       d       tot
------------------------------------------
    1        0.284   6.340   5.852  12.476
    2        0.284   6.340   5.854  12.478
    3        0.284   6.340   5.862  12.486
    4        0.284   6.340   5.852  12.475
    5        0.283   6.340   5.854  12.478
    6        0.284   6.340   5.865  12.489
    7        0.284   6.340   5.851  12.474
    8        0.284   6.340   5.853  12.477
    9        0.283   6.340   5.854  12.477
   10        0.283   6.340   5.868  12.492
   11        0.283   6.340   5.865  12.489
   12        0.283   6.340   5.857  12.480
   13        1.567   3.416   0.000   4.984
   14        1.567   3.416   0.000   4.983
   15        1.567   3.416   0.000   4.984
   16        1.567   3.417   0.000   4.984
   17        1.567   3.417   0.000   4.985
   18        1.567   3.416   0.000   4.984
   19        1.567   3.404   0.000   4.970
   20        1.567   3.403   0.000   4.970
   21        1.567   3.404   0.000   4.971
   22        1.567   3.404   0.000   4.971
   23        1.567   3.404   0.000   4.971
   24        1.567   3.404   0.000   4.971
   25        1.568   3.417   0.000   4.986
   26        1.568   3.417   0.000   4.985
   27        1.568   3.418   0.000   4.987
   28        1.568   3.419   0.000   4.988
   29        1.568   3.419   0.000   4.987
   30        1.568   3.419   0.000   4.987
--------------------------------------------------
tot         31.617 137.511  70.288 239.415
 


 magnetization (x)
 
# of ion       s       p       d       tot
------------------------------------------
    1        0.024   0.036   3.141   3.201
    2        0.024   0.036   3.138   3.198
    3        0.025   0.036   3.135   3.195
    4        0.025   0.036   3.140   3.201
    5        0.025   0.036   3.140   3.201
    6        0.025   0.036   3.132   3.193
    7        0.024   0.036   3.125   3.185
    8        0.024   0.036   3.122   3.183
    9        0.025   0.036   3.123   3.183
   10        0.025   0.036   3.116   3.177
   11        0.025   0.036   3.119   3.179
   12        0.025   0.036   3.123   3.183
   13        0.020   0.139   0.000   0.160
   14        0.020   0.139   0.000   0.159
   15        0.020   0.139   0.000   0.159
   16        0.020   0.140   0.000   0.160
   17        0.020   0.140   0.000   0.161
   18        0.020   0.139   0.000   0.160
   19        0.021   0.143   0.000   0.165
   20        0.021   0.143   0.000   0.164
   21        0.021   0.144   0.000   0.165
   22        0.021   0.144   0.000   0.165
   23        0.021   0.144   0.000   0.165
   24        0.021   0.144   0.000   0.166
   25        0.020   0.136   0.000   0.156
   26        0.020   0.135   0.000   0.155
   27        0.020   0.136   0.000   0.157
   28        0.020   0.137   0.000   0.158
   29        0.020   0.137   0.000   0.157
   30        0.020   0.137   0.000   0.157
--------------------------------------------------
tot          0.668   2.948  37.554  41.170
 
 BZINTS: Fermi energy:  6.181529;276.000000 electrons
         Band energy:***********;  BLOECHL correction: -0.032972

 total amount of memory used by VASP MPI-rank0   127605. kBytes
=======================================================================

   base      :      30000. kBytes
   nonlr-proj:      10974. kBytes
   fftplans  :       6010. kBytes
   grid      :      15120. kBytes
   one-center:        248. kBytes
   wavefun   :      65253. kBytes
 
  
  
 General timing and accounting informations for this job:
 ========================================================
  
                  Total CPU time used (sec):      543.891
                            User time (sec):      542.440
                          System time (sec):        1.451
                         Elapsed time (sec):      545.402
  
                   Maximum memory used (kb):      180032.
                   Average memory used (kb):           0.
  
                          Minor page faults:        71502
                          Major page faults:            0
                 Voluntary context switches:          294
