unknown system                          
   1.00000000000000     
     1.420026    1.420026    1.420026
     1.420026   -1.420026   -1.420026
     0.000000    2.840052   -2.840052
   Fe
     2
Direct
  0.500000  0.500000  0.500000
  0.000000  0.000000  0.000000
 
   36   36   60
 0.11686075771E+04 0.17223430060E+04 0.29306466842E+03 0.39345988086E+03 0.49494797108E+03
 0.41797501482E+03 0.29290690904E+03 0.18871329382E+03 0.11784140409E+03 0.73578383585E+02
 0.46925006607E+02 0.31068704706E+02 0.21623027396E+02 0.15945812031E+02 0.12297016149E+02
 0.10367913835E+02 0.91300045771E+01 0.84538007468E+01 0.82404508626E+01 0.84538007468E+01
 0.91300045771E+01 0.10367913835E+02 0.12297016149E+02 0.15945812031E+02 0.21623027396E+02
 0.31068704706E+02 0.46925006607E+02 0.73578383585E+02 0.11784140409E+03 0.18871329382E+03
 0.29290690904E+03 0.41797501482E+03 0.49494797108E+03 0.39345988086E+03 0.29306466842E+03
 0.17223430060E+04 0.17223430060E+04 0.13262326244E+04 0.30274062708E+03 0.35521991977E+03
 0.49769817185E+03 0.45098630551E+03 0.32874951874E+03 0.21631419102E+03 0.13637731980E+03
 0.85289461237E+02 0.54141060588E+02 0.35488362217E+02 0.24340971660E+02 0.17631354431E+02
 0.13545133054E+02 0.10987464971E+02 0.95038107200E+01 0.86247879967E+01 0.82333408164E+01
 0.82659916675E+01 0.87292661457E+01 0.96969262838E+01 0.11287442813E+02 0.14150432920E+02
 0.18699183652E+02 0.26237830751E+02 0.38847399479E+02 0.60006468121E+02 0.95228423718E+02
 0.15225263939E+03 0.23871540782E+03 0.35171515170E+03 0.45059720003E+03 0.42772878726E+03
 0.23183130608E+03 0.47559568488E+03 0.29306466842E+03 0.30274062708E+03 0.18921838287E+03
 0.33579338920E+03 0.46734610829E+03 0.44048301204E+03 0.33423979544E+03 0.22677070564E+03
 0.14601271488E+03 0.92509197508E+02 0.59089939387E+02 0.38744440779E+02 0.26445150322E+02
 0.18980735156E+02 0.14405379147E+02 0.11486367685E+02 0.98092364422E+01 0.87586807839E+01
 0.82087361949E+01 0.80746034504E+01 0.83349788630E+01 0.90354123328E+01 0.10274710172E+02
 0.12429122894E+02 0.15904775078E+02 0.21622302982E+02 0.31104534028E+02 0.46892914689E+02
 0.73048770027E+02 0.11549532525E+03 0.18114956404E+03 0.27293934302E+03 0.37555275109E+03
 0.43324715508E+03 0.36591180765E+03 0.23183130608E+03 0.39345988086E+03 0.35521991977E+03
 0.33579338920E+03 0.38918808458E+03 0.43380907219E+03 0.39779256887E+03 0.30958009241E+03
 0.21719439801E+03 0.14405292019E+03 0.93401134595E+02 0.60651948621E+02 0.40182815461E+02
 0.27559119410E+02 0.19779168133E+02 0.14948973863E+02 0.11800207138E+02 0.10004313999E+02
 0.88319607221E+01 0.81580085818E+01 0.78847506388E+01 0.79683862373E+01 0.84272283554E+01
 0.93354952539E+01 0.10801227856E+02 0.13451454321E+02 0.17611028216E+02 0.24429060307E+02
 0.35653119904E+02 0.54075357818E+02 0.83868477296E+02 0.13045284337E+03 0.19868170703E+03
 0.28714746725E+03 0.37795440956E+03 0.43324715508E+03 0.42772878726E+03 0.49494797108E+03
 0.49769817185E+03 0.46734610829E+03 0.43380907219E+03 0.39819773403E+03 0.34112455410E+03
 0.26615426901E+03 0.19197516724E+03 0.13153965368E+03 0.87871883876E+02 0.58492521422E+02
 0.39502764795E+02 0.27466631280E+02 0.19882149672E+02 0.15085975358E+02 0.11883389067E+02
 0.10055766502E+02 0.88234530931E+01 0.80703501390E+01 0.76949114347E+01 0.76383798930E+01
 0.78962215716E+01 0.85173527667E+01 0.95917189512E+01 0.11429067273E+02 0.14358120485E+02
 0.19099085575E+02 0.26797249816E+02 0.39283197791E+02 0.59326893635E+02 0.90759152527E+02
 0.13799941006E+03 0.20416502075E+03 0.28714746725E+03 0.37555275109E+03 0.45059720003E+03
 0.41797501482E+03 0.45098630551E+03 0.44048301204E+03 0.39779256887E+03 0.34112455410E+03
 0.27913549510E+03 0.21642299692E+03 0.15919848729E+03 0.11245388681E+03 0.77590054099E+02
 0.53219776292E+02 0.36883472938E+02 0.26192406041E+02 0.19269079038E+02 0.14787125885E+02
 0.11719800220E+02 0.99471536560E+01 0.87200689170E+01 0.79368430219E+01 0.75001166092E+01
 0.73442919837E+01 0.74484357185E+01 0.78389967048E+01 0.85842147097E+01 0.97785171803E+01
 0.11852345210E+02 0.15072206261E+02 0.20225763476E+02 0.28471017887E+02 0.41570664576E+02
 0.62035801575E+02 0.93073916702E+02 0.13799941006E+03 0.19868170703E+03 0.27293934302E+03
 0.35171515170E+03 0.29290690904E+03 0.32874951874E+03 0.33423979544E+03 0.30958009241E+03
 0.26615426901E+03 0.21642299692E+03 0.16825452947E+03 0.12587231614E+03 0.91353124439E+02
 0.65057143880E+02 0.46076370856E+02 0.32905031376E+02 0.23995477493E+02 0.18049646351E+02
 0.14096358054E+02 0.11326648261E+02 0.96833115274E+01 0.85208478980E+01 0.77540557784E+01
 0.72955660019E+01 0.70801642384E+01 0.70774908584E+01 0.72965548867E+01 0.77844053727E+01
 0.86186265501E+01 0.98912023119E+01 0.12147916847E+02 0.15550625188E+02 0.20913242068E+02
 0.29322995870E+02 0.42342357228E+02 0.62035801575E+02 0.90759152527E+02 0.13045284337E+03
 0.18114956404E+03 0.23871540782E+03 0.18871329382E+03 0.21631419102E+03 0.22677070564E+03
 0.21719439801E+03 0.19197516724E+03 0.15919848729E+03 0.12587231614E+03 0.96090489648E+02
 0.71556465719E+02 0.52513464440E+02 0.38402957821E+02 0.28311500631E+02 0.21269812315E+02
 0.16428247189E+02 0.13117976365E+02 0.10750305970E+02 0.92896240770E+01 0.82379718791E+01
 0.75260086141E+01 0.70794911725E+01 0.68389522589E+01 0.67708346207E+01 0.68724507549E+01
 0.71729272557E+01 0.77306143619E+01 0.86255808829E+01 0.99448050968E+01 0.12317322636E+02
 0.15786137590E+02 0.21141756018E+02 0.29322995870E+02 0.41570664576E+02 0.59326893635E+02
 0.83868477296E+02 0.11549532525E+03 0.15225263939E+03 0.11784140409E+03 0.13637731980E+03
 0.14601271488E+03 0.14405292019E+03 0.13153965368E+03 0.11245388681E+03 0.91353124439E+02
 0.71556465719E+02 0.54741677197E+02 0.41368502110E+02 0.31215203335E+02 0.23761569572E+02
 0.18416857271E+02 0.14639050923E+02 0.11985094640E+02 0.10055726106E+02 0.88064538818E+01
 0.78944725109E+01 0.72639650107E+01 0.68545219259E+01 0.66155696009E+01 0.65150619911E+01
 0.65439074018E+01 0.67177978712E+01 0.70771895085E+01 0.76849058388E+01 0.86196222252E+01
 0.10119821781E+02 0.12371586470E+02 0.15786137590E+02 0.20913242068E+02 0.28471017887E+02
 0.39283197791E+02 0.54075357818E+02 0.73048770027E+02 0.95228423718E+02 0.73578383585E+02
 0.85289461237E+02 0.92509197508E+02 0.93401134595E+02 0.87871883876E+02 0.77590054099E+02
 0.65057143880E+02 0.52513464440E+02 0.41368502110E+02 0.32207701483E+02 0.25064271842E+02
 0.19690745932E+02 0.15743884527E+02 0.12885388902E+02 0.10827361159E+02 0.93129790480E+01
 0.82806616281E+01 0.75194889319E+01 0.69842762915E+01 0.66274063701E+01 0.64082997243E+01
 0.62993524224E+01 0.62892300324E+01 0.63846868255E+01 0.66116030959E+01 0.70151669179E+01
 0.76581822769E+01 0.86155804415E+01 0.10119821781E+02 0.12317322636E+02 0.15550625188E+02
 0.20225763476E+02 0.26797249816E+02 0.35653119904E+02 0.46892914689E+02 0.60006468121E+02
 0.46925006607E+02 0.54141060588E+02 0.59089939387E+02 0.60651948621E+02 0.58492521422E+02
 0.53219776292E+02 0.46076370856E+02 0.38402957821E+02 0.31215203335E+02 0.25064271842E+02
 0.20116537499E+02 0.16297357800E+02 0.13428101714E+02 0.11305029096E+02 0.96570591194E+01
 0.85849132114E+01 0.77568767853E+01 0.71426542425E+01 0.67051180578E+01 0.64074675829E+01
 0.62186752214E+01 0.61168732819E+01 0.60912842818E+01 0.61435116488E+01 0.62887418348E+01
 0.65569464993E+01 0.69935444229E+01 0.76581822769E+01 0.86196222252E+01 0.99448050968E+01
 0.12147916847E+02 0.15072206261E+02 0.19099085575E+02 0.24429060307E+02 0.31104534028E+02
 0.38847399479E+02 0.31068704706E+02 0.35488362217E+02 0.38744440779E+02 0.40182815461E+02
 0.39502764795E+02 0.36883472938E+02 0.32905031376E+02 0.28311500631E+02 0.23761569572E+02
 0.19690745932E+02 0.16297357800E+02 0.13603282028E+02 0.11530379161E+02 0.98273386887E+01
 0.87630465088E+01 0.79188698515E+01 0.72708365086E+01 0.67892418939E+01 0.64431903893E+01
 0.62044936546E+01 0.60503115826E+01 0.59645467092E+01 0.59384983427E+01 0.59714045585E+01
 0.60713271933E+01 0.62565151909E+01 0.65569464993E+01 0.70151669179E+01 0.76849058388E+01
 0.86255808829E+01 0.98912023119E+01 0.11852345210E+02 0.14358120485E+02 0.17611028216E+02
 0.21622302982E+02 0.26237830751E+02 0.21623027396E+02 0.24340971660E+02 0.26445150322E+02
 0.27559119410E+02 0.27466631280E+02 0.26192406041E+02 0.23995477493E+02 0.21269812315E+02
 0.18416857271E+02 0.15743884527E+02 0.13428101714E+02 0.11530379161E+02 0.10033373073E+02
 0.88339452905E+01 0.79973771008E+01 0.73435110473E+01 0.68460080685E+01 0.64771662501E+01
 0.62112747333E+01 0.60267895275E+01 0.59073428028E+01 0.58418463010E+01 0.58241749405E+01
 0.58529755292E+01 0.59320267120E+01 0.60713271933E+01 0.62887418348E+01 0.66116030959E+01
 0.70771895085E+01 0.77306143619E+01 0.86186265501E+01 0.97785171803E+01 0.11429067273E+02
 0.13451454321E+02 0.15904775078E+02 0.18699183652E+02 0.15945812031E+02 0.17631354431E+02
 0.18980735156E+02 0.19779168133E+02 0.19882149672E+02 0.19269079038E+02 0.18049646351E+02
 0.16428247189E+02 0.14639050923E+02 0.12885388902E+02 0.11305029096E+02 0.98273386887E+01
 0.88339452905E+01 0.80180659299E+01 0.73701418704E+01 0.68700711716E+01 0.64934571174E+01
 0.62161406861E+01 0.60171009972E+01 0.58799184320E+01 0.57930578941E+01 0.57493321889E+01
 0.57450086227E+01 0.57790582486E+01 0.58529755292E+01 0.59714045585E+01 0.61435116488E+01
 0.63846868255E+01 0.67177978712E+01 0.71729272557E+01 0.77844053727E+01 0.85842147097E+01
 0.95917189512E+01 0.10801227856E+02 0.12429122894E+02 0.14150432920E+02 0.12297016149E+02
 0.13545133054E+02 0.14405379147E+02 0.14948973863E+02 0.15085975358E+02 0.14787125885E+02
 0.14096358054E+02 0.13117976365E+02 0.11985094640E+02 0.10827361159E+02 0.96570591194E+01
 0.87630465088E+01 0.79973771008E+01 0.73701418704E+01 0.68751069970E+01 0.64963592164E+01
 0.62140471780E+01 0.60086226479E+01 0.58635076901E+01 0.57663521619E+01 0.57091446198E+01
 0.56875100943E+01 0.56995982089E+01 0.57450086227E+01 0.58241749405E+01 0.59384983427E+01
 0.60912842818E+01 0.62892300324E+01 0.65439074018E+01 0.68724507549E+01 0.72965548867E+01
 0.78389967048E+01 0.85173527667E+01 0.93354952539E+01 0.10274710172E+02 0.11287442813E+02
 0.10367913835E+02 0.10987464971E+02 0.11486367685E+02 0.11800207138E+02 0.11883389067E+02
 0.11719800220E+02 0.11326648261E+02 0.10750305970E+02 0.10055726106E+02 0.93129790480E+01
 0.85849132114E+01 0.79188698515E+01 0.73435110473E+01 0.68700711716E+01 0.64963592164E+01
 0.62117364329E+01 0.60017641382E+01 0.58518324019E+01 0.57495531688E+01 0.56859621044E+01
 0.56556940524E+01 0.56563706121E+01 0.56875100943E+01 0.57493321889E+01 0.58418463010E+01
 0.59645467092E+01 0.61168732819E+01 0.62993524224E+01 0.65150619911E+01 0.67708346207E+01
 0.70774908584E+01 0.74484357185E+01 0.78962215716E+01 0.84272283554E+01 0.90354123328E+01
 0.96969262838E+01 0.91300045771E+01 0.95038107200E+01 0.98092364422E+01 0.10004313999E+02
 0.10055766502E+02 0.99471536560E+01 0.96833115274E+01 0.92896240770E+01 0.88064538818E+01
 0.82806616281E+01 0.77568767853E+01 0.72708365086E+01 0.68460080685E+01 0.64934571174E+01
 0.62140471780E+01 0.60017641382E+01 0.58471387362E+01 0.57401211005E+01 0.56721134777E+01
 0.56370938828E+01 0.56318842905E+01 0.56556940524E+01 0.57091446198E+01 0.57930578941E+01
 0.59073428028E+01 0.60503115826E+01 0.62186752214E+01 0.64082997243E+01 0.66155696009E+01
 0.68389522589E+01 0.70801642384E+01 0.73442919837E+01 0.76383798930E+01 0.79683862373E+01
 0.83349788630E+01 0.87292661457E+01 0.84538007468E+01 0.86247879967E+01 0.87586807839E+01
 0.88319607221E+01 0.88234530931E+01 0.87200689170E+01 0.85208478980E+01 0.82379718791E+01
 0.78944725109E+01 0.75194889319E+01 0.71426542425E+01 0.67892418939E+01 0.64771662501E+01
 0.62161406861E+01 0.60086226479E+01 0.58518324019E+01 0.57401211005E+01 0.56671463703E+01
 0.56275357028E+01 0.56178904964E+01 0.56370938828E+01 0.56859621044E+01 0.57663521619E+01
 0.58799184320E+01 0.60267895275E+01 0.62044936546E+01 0.64074675829E+01 0.66274063701E+01
 0.68545219259E+01 0.70794911725E+01 0.72955660019E+01 0.75001166092E+01 0.76949114347E+01
 0.78847506388E+01 0.80746034504E+01 0.82659916675E+01 0.82404508626E+01 0.82333408164E+01
 0.82087361949E+01 0.81580085818E+01 0.80703501390E+01 0.79368430219E+01 0.77540557784E+01
 0.75260086141E+01 0.72639650107E+01 0.69842762915E+01 0.67051180578E+01 0.64431903893E+01
 0.62112747333E+01 0.60171009972E+01 0.58635076901E+01 0.57495531688E+01 0.56721134777E+01
 0.56275357028E+01 0.56130221415E+01 0.56275357028E+01 0.56721134777E+01 0.57495531688E+01
 0.58635076901E+01 0.60171009972E+01 0.62112747333E+01 0.64431903893E+01 0.67051180578E+01
 0.69842762915E+01 0.72639650107E+01 0.75260086141E+01 0.77540557784E+01 0.79368430219E+01
 0.80703501390E+01 0.81580085818E+01 0.82087361949E+01 0.82333408164E+01 0.84538007468E+01
 0.82659916675E+01 0.80746034504E+01 0.78847506388E+01 0.76949114347E+01 0.75001166092E+01
 0.72955660019E+01 0.70794911725E+01 0.68545219259E+01 0.66274063701E+01 0.64074675829E+01
 0.62044936546E+01 0.60267895275E+01 0.58799184320E+01 0.57663521619E+01 0.56859621044E+01
 0.56370938828E+01 0.56178904964E+01 0.56275357028E+01 0.56671463703E+01 0.57401211005E+01
 0.58518324019E+01 0.60086226479E+01 0.62161406861E+01 0.64771662501E+01 0.67892418939E+01
 0.71426542425E+01 0.75194889319E+01 0.78944725109E+01 0.82379718791E+01 0.85208478980E+01
 0.87200689170E+01 0.88234530931E+01 0.88319607221E+01 0.87586807839E+01 0.86247879967E+01
 0.91300045771E+01 0.87292661457E+01 0.83349788630E+01 0.79683862373E+01 0.76383798930E+01
 0.73442919837E+01 0.70801642384E+01 0.68389522589E+01 0.66155696009E+01 0.64082997243E+01
 0.62186752214E+01 0.60503115826E+01 0.59073428028E+01 0.57930578941E+01 0.57091446198E+01
 0.56556940524E+01 0.56318842905E+01 0.56370938828E+01 0.56721134777E+01 0.57401211005E+01
 0.58471387362E+01 0.60017641382E+01 0.62140471780E+01 0.64934571174E+01 0.68460080685E+01
 0.72708365086E+01 0.77568767853E+01 0.82806616281E+01 0.88064538818E+01 0.92896240770E+01
 0.96833115274E+01 0.99471536560E+01 0.10055766502E+02 0.10004313999E+02 0.98092364422E+01
 0.95038107200E+01 0.10367913835E+02 0.96969262838E+01 0.90354123328E+01 0.84272283554E+01
 0.78962215716E+01 0.74484357185E+01 0.70774908584E+01 0.67708346207E+01 0.65150619911E+01
 0.62993524224E+01 0.61168732819E+01 0.59645467092E+01 0.58418463010E+01 0.57493321889E+01
 0.56875100943E+01 0.56563706121E+01 0.56556940524E+01 0.56859621044E+01 0.57495531688E+01
 0.58518324019E+01 0.60017641382E+01 0.62117364329E+01 0.64963592164E+01 0.68700711716E+01
 0.73435110473E+01 0.79188698515E+01 0.85849132114E+01 0.93129790480E+01 0.10055726106E+02
 0.10750305970E+02 0.11326648261E+02 0.11719800220E+02 0.11883389067E+02 0.11800207138E+02
 0.11486367685E+02 0.10987464971E+02 0.12297016149E+02 0.11287442813E+02 0.10274710172E+02
 0.93354952539E+01 0.85173527667E+01 0.78389967048E+01 0.72965548867E+01 0.68724507549E+01
 0.65439074018E+01 0.62892300324E+01 0.60912842818E+01 0.59384983427E+01 0.58241749405E+01
 0.57450086227E+01 0.56995982089E+01 0.56875100943E+01 0.57091446198E+01 0.57663521619E+01
 0.58635076901E+01 0.60086226479E+01 0.62140471780E+01 0.64963592164E+01 0.68751069970E+01
 0.73701418704E+01 0.79973771008E+01 0.87630465088E+01 0.96570591194E+01 0.10827361159E+02
 0.11985094640E+02 0.13117976365E+02 0.14096358054E+02 0.14787125885E+02 0.15085975358E+02
 0.14948973863E+02 0.14405379147E+02 0.13545133054E+02 0.15945812031E+02 0.14150432920E+02
 0.12429122894E+02 0.10801227856E+02 0.95917189512E+01 0.85842147097E+01 0.77844053727E+01
 0.71729272557E+01 0.67177978712E+01 0.63846868255E+01 0.61435116488E+01 0.59714045585E+01
 0.58529755292E+01 0.57790582486E+01 0.57450086227E+01 0.57493321889E+01 0.57930578941E+01
 0.58799184320E+01 0.60171009972E+01 0.62161406861E+01 0.64934571174E+01 0.68700711716E+01
 0.73701418704E+01 0.80180659299E+01 0.88339452905E+01 0.98273386887E+01 0.11305029096E+02
 0.12885388902E+02 0.14639050923E+02 0.16428247189E+02 0.18049646351E+02 0.19269079038E+02
 0.19882149672E+02 0.19779168133E+02 0.18980735156E+02 0.17631354431E+02 0.21623027396E+02
 0.18699183652E+02 0.15904775078E+02 0.13451454321E+02 0.11429067273E+02 0.97785171803E+01
 0.86186265501E+01 0.77306143619E+01 0.70771895085E+01 0.66116030959E+01 0.62887418348E+01
 0.60713271933E+01 0.59320267120E+01 0.58529755292E+01 0.58241749405E+01 0.58418463010E+01
 0.59073428028E+01 0.60267895275E+01 0.62112747333E+01 0.64771662501E+01 0.68460080685E+01
 0.73435110473E+01 0.79973771008E+01 0.88339452905E+01 0.10033373073E+02 0.11530379161E+02
 0.13428101714E+02 0.15743884527E+02 0.18416857271E+02 0.21269812315E+02 0.23995477493E+02
 0.26192406041E+02 0.27466631280E+02 0.27559119410E+02 0.26445150322E+02 0.24340971660E+02
 0.31068704706E+02 0.26237830751E+02 0.21622302982E+02 0.17611028216E+02 0.14358120485E+02
 0.11852345210E+02 0.98912023119E+01 0.86255808829E+01 0.76849058388E+01 0.70151669179E+01
 0.65569464993E+01 0.62565151909E+01 0.60713271933E+01 0.59714045585E+01 0.59384983427E+01
 0.59645467092E+01 0.60503115826E+01 0.62044936546E+01 0.64431903893E+01 0.67892418939E+01
 0.72708365086E+01 0.79188698515E+01 0.87630465088E+01 0.98273386887E+01 0.11530379161E+02
 0.13603282028E+02 0.16297357800E+02 0.19690745932E+02 0.23761569572E+02 0.28311500631E+02
 0.32905031376E+02 0.36883472938E+02 0.39502764795E+02 0.40182815461E+02 0.38744440779E+02
 0.35488362217E+02 0.46925006607E+02 0.38847399479E+02 0.31104534028E+02 0.24429060307E+02
 0.19099085575E+02 0.15072206261E+02 0.12147916847E+02 0.99448050968E+01 0.86196222252E+01
 0.76581822769E+01 0.69935444229E+01 0.65569464993E+01 0.62887418348E+01 0.61435116488E+01
 0.60912842818E+01 0.61168732819E+01 0.62186752214E+01 0.64074675829E+01 0.67051180578E+01
 0.71426542425E+01 0.77568767853E+01 0.85849132114E+01 0.96570591194E+01 0.11305029096E+02
 0.13428101714E+02 0.16297357800E+02 0.20116537499E+02 0.25064271842E+02 0.31215203335E+02
 0.38402957821E+02 0.46076370856E+02 0.53219776292E+02 0.58492521422E+02 0.60651948621E+02
 0.59089939387E+02 0.54141060588E+02 0.73578383585E+02 0.60006468121E+02 0.46892914689E+02
 0.35653119904E+02 0.26797249816E+02 0.20225763476E+02 0.15550625188E+02 0.12317322636E+02
 0.10119821781E+02 0.86155804415E+01 0.76581822769E+01 0.70151669179E+01 0.66116030959E+01
 0.63846868255E+01 0.62892300324E+01 0.62993524224E+01 0.64082997243E+01 0.66274063701E+01
 0.69842762915E+01 0.75194889319E+01 0.82806616281E+01 0.93129790480E+01 0.10827361159E+02
 0.12885388902E+02 0.15743884527E+02 0.19690745932E+02 0.25064271842E+02 0.32207701483E+02
 0.41368502110E+02 0.52513464440E+02 0.65057143880E+02 0.77590054099E+02 0.87871883876E+02
 0.93401134595E+02 0.92509197508E+02 0.85289461237E+02 0.11784140409E+03 0.95228423718E+02
 0.73048770027E+02 0.54075357818E+02 0.39283197791E+02 0.28471017887E+02 0.20913242068E+02
 0.15786137590E+02 0.12371586470E+02 0.10119821781E+02 0.86196222252E+01 0.76849058388E+01
 0.70771895085E+01 0.67177978712E+01 0.65439074018E+01 0.65150619911E+01 0.66155696009E+01
 0.68545219259E+01 0.72639650107E+01 0.78944725109E+01 0.88064538818E+01 0.10055726106E+02
 0.11985094640E+02 0.14639050923E+02 0.18416857271E+02 0.23761569572E+02 0.31215203335E+02
 0.41368502110E+02 0.54741677197E+02 0.71556465719E+02 0.91353124439E+02 0.11245388681E+03
 0.13153965368E+03 0.14405292019E+03 0.14601271488E+03 0.13637731980E+03 0.18871329382E+03
 0.15225263939E+03 0.11549532525E+03 0.83868477296E+02 0.59326893635E+02 0.41570664576E+02
 0.29322995870E+02 0.21141756018E+02 0.15786137590E+02 0.12317322636E+02 0.99448050968E+01
 0.86255808829E+01 0.77306143619E+01 0.71729272557E+01 0.68724507549E+01 0.67708346207E+01
 0.68389522589E+01 0.70794911725E+01 0.75260086141E+01 0.82379718791E+01 0.92896240770E+01
 0.10750305970E+02 0.13117976365E+02 0.16428247189E+02 0.21269812315E+02 0.28311500631E+02
 0.38402957821E+02 0.52513464440E+02 0.71556465719E+02 0.96090489648E+02 0.12587231614E+03
 0.15919848729E+03 0.19197516724E+03 0.21719439801E+03 0.22677070564E+03 0.21631419102E+03
 0.29290690904E+03 0.23871540782E+03 0.18114956404E+03 0.13045284337E+03 0.90759152527E+02
 0.62035801575E+02 0.42342357228E+02 0.29322995870E+02 0.20913242068E+02 0.15550625188E+02
 0.12147916847E+02 0.98912023119E+01 0.86186265501E+01 0.77844053727E+01 0.72965548867E+01
 0.70774908584E+01 0.70801642384E+01 0.72955660019E+01 0.77540557784E+01 0.85208478980E+01
 0.96833115274E+01 0.11326648261E+02 0.14096358054E+02 0.18049646351E+02 0.23995477493E+02
 0.32905031376E+02 0.46076370856E+02 0.65057143880E+02 0.91353124439E+02 0.12587231614E+03
 0.16825452947E+03 0.21642299692E+03 0.26615426901E+03 0.30958009241E+03 0.33423979544E+03
 0.32874951874E+03 0.41797501482E+03 0.35171515170E+03 0.27293934302E+03 0.19868170703E+03
 0.13799941006E+03 0.93073916702E+02 0.62035801575E+02 0.41570664576E+02 0.28471017887E+02
 0.20225763476E+02 0.15072206261E+02 0.11852345210E+02 0.97785171803E+01 0.85842147097E+01
 0.78389967048E+01 0.74484357185E+01 0.73442919837E+01 0.75001166092E+01 0.79368430219E+01
 0.87200689170E+01 0.99471536560E+01 0.11719800220E+02 0.14787125885E+02 0.19269079038E+02
 0.26192406041E+02 0.36883472938E+02 0.53219776292E+02 0.77590054099E+02 0.11245388681E+03
 0.15919848729E+03 0.21642299692E+03 0.27913549510E+03 0.34112455410E+03 0.39779256887E+03
 0.44048301204E+03 0.45098630551E+03 0.49494797108E+03 0.45059720003E+03 0.37555275109E+03
 0.28714746725E+03 0.20416502075E+03 0.13799941006E+03 0.90759152527E+02 0.59326893635E+02
 0.39283197791E+02 0.26797249816E+02 0.19099085575E+02 0.14358120485E+02 0.11429067273E+02
 0.95917189512E+01 0.85173527667E+01 0.78962215716E+01 0.76383798930E+01 0.76949114347E+01
 0.80703501390E+01 0.88234530931E+01 0.10055766502E+02 0.11883389067E+02 0.15085975358E+02
 0.19882149672E+02 0.27466631280E+02 0.39502764795E+02 0.58492521422E+02 0.87871883876E+02
 0.13153965368E+03 0.19197516724E+03 0.26615426901E+03 0.34112455410E+03 0.39819773403E+03
 0.43380907219E+03 0.46734610829E+03 0.49769817185E+03 0.39345988086E+03 0.42772878726E+03
 0.43324715508E+03 0.37795440956E+03 0.28714746725E+03 0.19868170703E+03 0.13045284337E+03
 0.83868477296E+02 0.54075357818E+02 0.35653119904E+02 0.24429060307E+02 0.17611028216E+02
 0.13451454321E+02 0.10801227856E+02 0.93354952539E+01 0.84272283554E+01 0.79683862373E+01
 0.78847506388E+01 0.81580085818E+01 0.88319607221E+01 0.10004313999E+02 0.11800207138E+02
 0.14948973863E+02 0.19779168133E+02 0.27559119410E+02 0.40182815461E+02 0.60651948621E+02
 0.93401134595E+02 0.14405292019E+03 0.21719439801E+03 0.30958009241E+03 0.39779256887E+03
 0.43380907219E+03 0.38918808458E+03 0.33579338920E+03 0.35521991977E+03 0.29306466842E+03
 0.23183130608E+03 0.36591180765E+03 0.43324715508E+03 0.37555275109E+03 0.27293934302E+03
 0.18114956404E+03 0.11549532525E+03 0.73048770027E+02 0.46892914689E+02 0.31104534028E+02
 0.21622302982E+02 0.15904775078E+02 0.12429122894E+02 0.10274710172E+02 0.90354123328E+01
 0.83349788630E+01 0.80746034504E+01 0.82087361949E+01 0.87586807839E+01 0.98092364422E+01
 0.11486367685E+02 0.14405379147E+02 0.18980735156E+02 0.26445150322E+02 0.38744440779E+02
 0.59089939387E+02 0.92509197508E+02 0.14601271488E+03 0.22677070564E+03 0.33423979544E+03
 0.44048301204E+03 0.46734610829E+03 0.33579338920E+03 0.18921838287E+03 0.30274062708E+03
 0.17223430060E+04 0.47559568488E+03 0.23183130608E+03 0.42772878726E+03 0.45059720003E+03
 0.35171515170E+03 0.23871540782E+03 0.15225263939E+03 0.95228423718E+02 0.60006468121E+02
 0.38847399479E+02 0.26237830751E+02 0.18699183652E+02 0.14150432920E+02 0.11287442813E+02
 0.96969262838E+01 0.87292661457E+01 0.82659916675E+01 0.82333408164E+01 0.86247879967E+01
 0.95038107200E+01 0.10987464971E+02 0.13545133054E+02 0.17631354431E+02 0.24340971660E+02
 0.35488362217E+02 0.54141060588E+02 0.85289461237E+02 0.13637731980E+03 0.21631419102E+03
 0.32874951874E+03 0.45098630551E+03 0.49769817185E+03 0.35521991977E+03 0.30274062708E+03
 0.13262326244E+04 0.17539665912E+04 0.82568213610E+03 0.24048919858E+03 0.41187488518E+03
 0.48675305985E+03 0.40356116945E+03 0.28202254219E+03 0.18210334182E+03 0.11414207953E+03
 0.71564408649E+02 0.45829853678E+02 0.30465139788E+02 0.21282232606E+02 0.15747175556E+02
 0.12188411934E+02 0.10291915098E+02 0.90759068613E+01 0.84119625124E+01 0.82025212063E+01
 0.84119625124E+01 0.90759068613E+01 0.10291915098E+02 0.12188411934E+02 0.15747175556E+02
 0.21282232606E+02 0.30465139788E+02 0.45829853678E+02 0.71564408649E+02 0.11414207953E+03
 0.18210334182E+03 0.28202254219E+03 0.40356116945E+03 0.48675305985E+03 0.41187488518E+03
 0.24048919858E+03 0.82568213610E+03 0.82568213610E+03 0.63691685654E+03 0.23123032840E+03
 0.37903453202E+03 0.49336152121E+03 0.43622212638E+03 0.31643401053E+03 0.20852416931E+03
 0.13193402264E+03 0.82850772942E+02 0.52812471058E+02 0.34757810082E+02 0.23930847501E+02
 0.17394130598E+02 0.13402695865E+02 0.10901407255E+02 0.94434754642E+01 0.85800513380E+01
 0.81955133743E+01 0.82273267283E+01 0.86819431874E+01 0.96321239449E+01 0.11195121583E+02
 0.13991401609E+02 0.18430845273E+02 0.25768935383E+02 0.38005689575E+02 0.58470479131E+02
 0.92418083537E+02 0.14720756830E+03 0.23020297083E+03 0.33949967695E+03 0.44017476377E+03
 0.43801657888E+03 0.26496200558E+03 0.26459466037E+03 0.24048919858E+03 0.23123032840E+03
 0.21843601333E+03 0.36729795668E+03 0.46708642589E+03 0.42757803406E+03 0.32213479560E+03
 0.21865133922E+03 0.14121408186E+03 0.89815727791E+02 0.57602521822E+02 0.37920128957E+02
 0.25981139011E+02 0.18712751964E+02 0.14245336943E+02 0.11392661091E+02 0.97439876098E+01
 0.87117106411E+01 0.81712773254E+01 0.80391264394E+01 0.82943173435E+01 0.89817781030E+01
 0.10199146358E+02 0.12306570374E+02 0.15702730340E+02 0.21276216432E+02 0.30493856471E+02
 0.45795351670E+02 0.71063763261E+02 0.11194850422E+03 0.17508220630E+03 0.26362489650E+03
 0.36474607580E+03 0.43035981433E+03 0.38845659145E+03 0.26496200558E+03 0.41187488518E+03
 0.37903453202E+03 0.36729795668E+03 0.40804382642E+03 0.43252316615E+03 0.38727152207E+03
 0.29908469025E+03 0.20971512928E+03 0.13941750144E+03 0.90705779102E+02 0.59124623229E+02
 0.39320929158E+02 0.27067915772E+02 0.19493519549E+02 0.14778250829E+02 0.11702379650E+02
 0.99362437017E+01 0.87838642758E+01 0.81213469909E+01 0.78523710056E+01 0.79338479888E+01
 0.83838639270E+01 0.92756756768E+01 0.10716325481E+02 0.13304563110E+02 0.17365238405E+02
 0.24005149220E+02 0.34906395416E+02 0.52747552356E+02 0.81520171784E+02 0.12641190059E+03
 0.19216518686E+03 0.27798726754E+03 0.36851136759E+03 0.43035981433E+03 0.43801657888E+03
 0.48675305985E+03 0.49336152121E+03 0.46708642589E+03 0.43252316615E+03 0.39194947543E+03
 0.33203122071E+03 0.25771620903E+03 0.18575904033E+03 0.12750336865E+03 0.85423611783E+02
 0.57056424116E+02 0.38670123285E+02 0.26982310056E+02 0.19596789562E+02 0.14913654836E+02
 0.11785671075E+02 0.99875362339E+01 0.87757209417E+01 0.80351153828E+01 0.76655623429E+01
 0.76092403236E+01 0.78617322498E+01 0.84712826843E+01 0.95267856525E+01 0.11324914396E+02
 0.14188861356E+02 0.18814185818E+02 0.26306937093E+02 0.38428453989E+02 0.57835871869E+02
 0.88196173142E+02 0.13374910098E+03 0.19757102941E+03 0.27798726754E+03 0.36474607580E+03
 0.44017476377E+03 0.40356116945E+03 0.43622212638E+03 0.42757803406E+03 0.38727152207E+03
 0.33203122071E+03 0.27110218198E+03 0.20986474443E+03 0.15438935987E+03 0.10922602928E+03
 0.75550805365E+02 0.51976918209E+02 0.36139022101E+02 0.25747697862E+02 0.19001423383E+02
 0.14623116193E+02 0.11626533291E+02 0.98816462553E+01 0.86744062169E+01 0.79038256526E+01
 0.74738239782E+01 0.73198299712E+01 0.74212770164E+01 0.78042387441E+01 0.85360338393E+01
 0.97101328843E+01 0.11737681015E+02 0.14885068761E+02 0.19911179960E+02 0.27934412019E+02
 0.40649890803E+02 0.60464792400E+02 0.90444436801E+02 0.13374910098E+03 0.19216518686E+03
 0.26362489650E+03 0.33949967695E+03 0.28202254219E+03 0.31643401053E+03 0.32213479560E+03
 0.29908469025E+03 0.25771620903E+03 0.20986474443E+03 0.16331404243E+03 0.12231954046E+03
 0.88927247250E+02 0.63473757668E+02 0.45075842917E+02 0.32284624979E+02 0.23614027326E+02
 0.17814030799E+02 0.13949245991E+02 0.11241662196E+02 0.96232152917E+01 0.84789333592E+01
 0.77241000016E+01 0.72724493295E+01 0.70597726654E+01 0.70562201240E+01 0.72706742718E+01
 0.77494810389E+01 0.85692129148E+01 0.98210560280E+01 0.12026013395E+02 0.15351192636E+02
 0.20580965640E+02 0.28762967563E+02 0.41399741565E+02 0.60464792400E+02 0.88196173142E+02
 0.12641190059E+03 0.17508220630E+03 0.23020297083E+03 0.18210334182E+03 0.20852416931E+03
 0.21865133922E+03 0.20971512928E+03 0.18575904033E+03 0.15438935987E+03 0.12231954046E+03
 0.93557802308E+02 0.69810723052E+02 0.51346782709E+02 0.37643446745E+02 0.27825351327E+02
 0.20961807442E+02 0.16233221950E+02 0.12993464088E+02 0.10676417440E+02 0.92370538191E+01
 0.82012072563E+01 0.74998707460E+01 0.70597109195E+01 0.68221693770E+01 0.67542462679E+01
 0.68533034284E+01 0.71479930922E+01 0.76957811657E+01 0.85757184948E+01 0.98741019246E+01
 0.12191093281E+02 0.15581062285E+02 0.20803494105E+02 0.28762967563E+02 0.40649890803E+02
 0.57835871869E+02 0.81520171784E+02 0.11194850422E+03 0.14720756830E+03 0.11414207953E+03
 0.13193402264E+03 0.14121408186E+03 0.13941750144E+03 0.12750336865E+03 0.10922602928E+03
 0.88927247250E+02 0.69810723052E+02 0.53524436331E+02 0.40540863223E+02 0.30663510148E+02
 0.23399208569E+02 0.18181078242E+02 0.14485925123E+02 0.11885100777E+02 0.99944686621E+01
 0.87627001813E+01 0.78637877248E+01 0.72421806193E+01 0.68382021893E+01 0.66020528533E+01
 0.65022219399E+01 0.65297694767E+01 0.67001071991E+01 0.70530078240E+01 0.76503289106E+01
 0.85697430876E+01 0.98922735624E+01 0.12244074911E+02 0.15581062285E+02 0.20580965640E+02
 0.27934412019E+02 0.38428453989E+02 0.52747552356E+02 0.71063763261E+02 0.92418083537E+02
 0.71564408649E+02 0.82850772942E+02 0.89815727791E+02 0.90705779102E+02 0.85423611783E+02
 0.75550805365E+02 0.63473757668E+02 0.51346782709E+02 0.40540863223E+02 0.31635540373E+02