unknown system                          
   1.00000000000000     
     1.420026    1.420026    1.420026
     1.420026   -1.420026   -1.420026
     0.000000    2.840052   -2.840052
   Fe
     2
Direct
  0.500000  0.500000  0.500000
  0.000000  0.000000  0.000000
 
   36   36   60
 0.74843583408E+03 0.16652050670E+04 0.25779031082E+03 0.35087601512E+03 0.45420420509E+03
 0.38742708036E+03 0.27291802753E+03 0.17648336254E+03 0.11050360374E+03 0.69086917824E+02
 0.43979731978E+02 0.28925933145E+02 0.19847770853E+02 0.14338881275E+02 0.10739426772E+02
 0.88340741154E+01 0.76052323734E+01 0.69451840071E+01 0.67350947975E+01 0.69451840071E+01
 0.76052323734E+01 0.88340741154E+01 0.10739426772E+02 0.14338881275E+02 0.19847770853E+02
 0.28925933145E+02 0.43979731978E+02 0.69086917824E+02 0.11050360374E+03 0.17648336254E+03
 0.27291802753E+03 0.38742708036E+03 0.45420420509E+03 0.35087601512E+03 0.25779031082E+03
 0.16652050670E+04 0.16652050670E+04 0.13025845506E+04 0.28839531082E+03 0.31496759797E+03
 0.45004155282E+03 0.41188511984E+03 0.30179358438E+03 0.19922179694E+03 0.12587139718E+03
 0.78788233098E+02 0.49938331515E+02 0.32549973560E+02 0.22071655648E+02 0.15701446554E+02
 0.11780207492E+02 0.93284245643E+01 0.78981822546E+01 0.70778882071E+01 0.67293618980E+01
 0.67974048597E+01 0.72942119128E+01 0.82999565496E+01 0.99544609635E+01 0.12892586175E+02
 0.17483109103E+02 0.25002310862E+02 0.37393185933E+02 0.57997056901E+02 0.92057656899E+02
 0.14704374713E+03 0.23043643950E+03 0.34008605803E+03 0.43857988419E+03 0.42549871304E+03
 0.25262455438E+03 0.49269371812E+03 0.25779031082E+03 0.28839531082E+03 0.22806952354E+03
 0.35087282090E+03 0.45163930248E+03 0.41519095172E+03 0.31194644217E+03 0.21063867698E+03
 0.13524851841E+03 0.85472636778E+02 0.54396026005E+02 0.35423833782E+02 0.23906607710E+02
 0.16859651035E+02 0.12521947278E+02 0.97459170029E+01 0.81516284209E+01 0.71871314171E+01
 0.67083783575E+01 0.66442930534E+01 0.69781308188E+01 0.77678751074E+01 0.91409098377E+01
 0.11467008952E+02 0.15181921686E+02 0.21166547995E+02 0.30935576641E+02 0.46996355247E+02
 0.73399506310E+02 0.11611710763E+03 0.18237169960E+03 0.27600287061E+03 0.38380704377E+03
 0.45272951001E+03 0.39888470412E+03 0.25262455438E+03 0.35087601512E+03 0.31496759797E+03
 0.35087282090E+03 0.42549557136E+03 0.45272860091E+03 0.39812506783E+03 0.30179079605E+03
 0.20829374793E+03 0.13665149368E+03 0.87861399182E+02 0.56595815370E+02 0.37119035370E+02
 0.25114380176E+02 0.17685094148E+02 0.13070285896E+02 0.10054951662E+02 0.83422997861E+01
 0.72622488361E+01 0.66692190499E+01 0.64893058234E+01 0.66696612346E+01 0.72631828371E+01
 0.83438383065E+01 0.10056830015E+02 0.13072673225E+02 0.17687423978E+02 0.25117108274E+02
 0.37122735599E+02 0.56598264914E+02 0.87864262964E+02 0.13665319533E+03 0.20829602493E+03
 0.30179441476E+03 0.39812667799E+03 0.45272951001E+03 0.42549871304E+03 0.45420420509E+03
 0.45004155282E+03 0.45163930248E+03 0.45272860091E+03 0.42468489623E+03 0.35823406723E+03
 0.27291195068E+03 0.19269165036E+03 0.12977534267E+03 0.85457912899E+02 0.56131233764E+02
 0.37358172080E+02 0.25522836756E+02 0.18068162097E+02 0.13367093940E+02 0.10229297467E+02
 0.84518117777E+01 0.72895544672E+01 0.66102708968E+01 0.63289442832E+01 0.63819418452E+01
 0.67942368574E+01 0.76161228247E+01 0.89814459131E+01 0.11216791451E+02 0.14710521295E+02
 0.20188458353E+02 0.28882389771E+02 0.42696001314E+02 0.64531116222E+02 0.98350982610E+02
 0.14859470129E+03 0.21783731559E+03 0.30179441476E+03 0.38380704377E+03 0.43857988419E+03
 0.38742708036E+03 0.41188511984E+03 0.41519095172E+03 0.39812506783E+03 0.35823406723E+03
 0.29845708895E+03 0.23042730341E+03 0.16713032141E+03 0.11609869444E+03 0.78755355406E+02
 0.53091922309E+02 0.36094359506E+02 0.25070264609E+02 0.17952583024E+02 0.13376758116E+02
 0.10250753919E+02 0.84662604846E+01 0.72599885475E+01 0.65277275435E+01 0.61631030851E+01
 0.61165668032E+01 0.63700193576E+01 0.69775978046E+01 0.80085117430E+01 0.96019827857E+01
 0.12246836109E+02 0.16211835718E+02 0.22357724658E+02 0.31886254654E+02 0.46623112186E+02
 0.69060547017E+02 0.10219932159E+03 0.14859470129E+03 0.20829602493E+03 0.27600287061E+03
 0.34008605803E+03 0.27291802753E+03 0.30179358438E+03 0.31194644217E+03 0.30179079605E+03
 0.27291195068E+03 0.23042730341E+03 0.18235711454E+03 0.13663360568E+03 0.98330808844E+02
 0.69037254687E+02 0.48018118626E+02 0.33539858807E+02 0.23817831130E+02 0.17353983857E+02
 0.13090223952E+02 0.10118942323E+02 0.83739161157E+01 0.71741781734E+01 0.64114352735E+01
 0.59980472198E+01 0.58653561975E+01 0.60026610397E+01 0.64203697843E+01 0.71873116458E+01
 0.83903979569E+01 0.10138791318E+02 0.13112383018E+02 0.17377110726E+02 0.23843078529E+02
 0.33563405341E+02 0.48044659598E+02 0.69060547017E+02 0.98350982610E+02 0.13665319533E+03
 0.18237169960E+03 0.23043643950E+03 0.17648336254E+03 0.19922179694E+03 0.21063867698E+03
 0.20829374793E+03 0.19269165036E+03 0.16713032141E+03 0.13663360568E+03 0.10622133264E+03
 0.79451694867E+02 0.57934668766E+02 0.41737197877E+02 0.30082590707E+02 0.21943146748E+02
 0.16345728873E+02 0.12539493988E+02 0.98370879534E+01 0.81818782569E+01 0.70278731439E+01
 0.62673923824E+01 0.58265665140E+01 0.56352545985E+01 0.56790966901E+01 0.59542214971E+01
 0.65024878808E+01 0.73871259951E+01 0.87086827787E+01 0.10536952792E+02 0.13691341626E+02
 0.18018875153E+02 0.24372785988E+02 0.33563405341E+02 0.46623112186E+02 0.64531116222E+02
 0.87864262964E+02 0.11611710763E+03 0.14704374713E+03 0.11050360374E+03 0.12587139718E+03
 0.13524851841E+03 0.13665149368E+03 0.12977534267E+03 0.11609869444E+03 0.98330808844E+02
 0.79451694867E+02 0.61857589516E+02 0.46924132142E+02 0.35100915991E+02 0.26183052229E+02
 0.19684453024E+02 0.15045604629E+02 0.11780939707E+02 0.94224121168E+01 0.79023108061E+01
 0.68254816127E+01 0.60968419870E+01 0.56501128761E+01 0.54242690455E+01 0.53988662587E+01
 0.55666360669E+01 0.59477445411E+01 0.65841070365E+01 0.75451429668E+01 0.89178435288E+01
 0.10979993992E+02 0.13893601296E+02 0.18018875153E+02 0.23843078529E+02 0.31886254654E+02
 0.42696001314E+02 0.56598264914E+02 0.73399506310E+02 0.92057656899E+02 0.69086917824E+02
 0.78788233098E+02 0.85472636778E+02 0.87861399182E+02 0.85457912899E+02 0.78755355406E+02
 0.69037254687E+02 0.57934668766E+02 0.46924132142E+02 0.37044828273E+02 0.28792346601E+02
 0.22261766122E+02 0.17283551213E+02 0.13593167282E+02 0.10889120324E+02 0.89053684499E+01
 0.75543705430E+01 0.65807595000E+01 0.59051124303E+01 0.54724733448E+01 0.52294401917E+01
 0.51600203023E+01 0.52474920320E+01 0.55074179869E+01 0.59555835259E+01 0.66452724826E+01
 0.76299986429E+01 0.89923486144E+01 0.10979993992E+02 0.13691341626E+02 0.17377110726E+02
 0.22357724658E+02 0.28882389771E+02 0.37122735599E+02 0.46996355247E+02 0.57997056901E+02
 0.43979731978E+02 0.49938331515E+02 0.54396026005E+02 0.56595815370E+02 0.56131233764E+02
 0.53091922309E+02 0.48018118626E+02 0.41737197877E+02 0.35100915991E+02 0.28792346601E+02
 0.23239989570E+02 0.18628656806E+02 0.14946585060E+02 0.12104169765E+02 0.98255784047E+01
 0.83190020381E+01 0.71609304500E+01 0.63034626943E+01 0.57015170435E+01 0.52956853752E+01
 0.50563156593E+01 0.49564589980E+01 0.49927991279E+01 0.51612131793E+01 0.54784258536E+01
 0.59649429204E+01 0.66670957262E+01 0.76299986429E+01 0.89178435288E+01 0.10536952792E+02
 0.13112383018E+02 0.16211835718E+02 0.20188458353E+02 0.25117108274E+02 0.30935576641E+02
 0.37393185933E+02 0.28925933145E+02 0.32549973560E+02 0.35423833782E+02 0.37119035370E+02
 0.37358172080E+02 0.36094359506E+02 0.33539858807E+02 0.30082590707E+02 0.26183052229E+02
 0.22261766122E+02 0.18628656806E+02 0.15454479499E+02 0.12813377021E+02 0.10472984830E+02
 0.89567015546E+01 0.77131033781E+01 0.67436386757E+01 0.60160024350E+01 0.54900161549E+01
 0.51269383162E+01 0.49005524664E+01 0.47925177048E+01 0.47927994282E+01 0.49009352243E+01
 0.51223008097E+01 0.54697249196E+01 0.59649429204E+01 0.66452724826E+01 0.75451429668E+01
 0.87086827787E+01 0.10138791318E+02 0.12246836109E+02 0.14710521295E+02 0.17687423978E+02
 0.21166547995E+02 0.25002310862E+02 0.19847770853E+02 0.22071655648E+02 0.23906607710E+02
 0.25114380176E+02 0.25522836756E+02 0.25070264609E+02 0.23817831130E+02 0.21943146748E+02
 0.19684453024E+02 0.17283551213E+02 0.14946585060E+02 0.12813377021E+02 0.10951540781E+02
 0.93179994125E+01 0.81115940539E+01 0.71187881364E+01 0.63319235036E+01 0.57317962079E+01
 0.52868224303E+01 0.49721357803E+01 0.47682729637E+01 0.46628010529E+01 0.46470702682E+01
 0.47158336867E+01 0.48719419686E+01 0.51223008097E+01 0.54784258536E+01 0.59555835259E+01
 0.65841070365E+01 0.73871259951E+01 0.83903979569E+01 0.96019827857E+01 0.11216791451E+02
 0.13072673225E+02 0.15181921686E+02 0.17483109103E+02 0.14338881275E+02 0.15701446554E+02
 0.16859651035E+02 0.17685094148E+02 0.18068162097E+02 0.17952583024E+02 0.17353983857E+02
 0.16345728873E+02 0.15045604629E+02 0.13593167282E+02 0.12104169765E+02 0.10472984830E+02
 0.93179994125E+01 0.82565857319E+01 0.73336811660E+01 0.65625335411E+01 0.59438762690E+01
 0.54619089205E+01 0.50985912016E+01 0.48373885181E+01 0.46650231265E+01 0.45716255211E+01
 0.45511736845E+01 0.46005214936E+01 0.47158336867E+01 0.49009352243E+01 0.51612131793E+01
 0.55074179869E+01 0.59477445411E+01 0.65024878808E+01 0.71873116458E+01 0.80085117430E+01
 0.89814459131E+01 0.10056830015E+02 0.11467008952E+02 0.12892586175E+02 0.10739426772E+02
 0.11780207492E+02 0.12521947278E+02 0.13070285896E+02 0.13367093940E+02 0.13376758116E+02
 0.13090223952E+02 0.12539493988E+02 0.11780939707E+02 0.10889120324E+02 0.98255784047E+01
 0.89567015546E+01 0.81115940539E+01 0.73336811660E+01 0.66469309974E+01 0.60667016369E+01
 0.55928283963E+01 0.52178826302E+01 0.49324266690E+01 0.47268578737E+01 0.45926237306E+01
 0.45217749820E+01 0.45090493388E+01 0.45511736845E+01 0.46470702682E+01 0.47927994282E+01
 0.49927991279E+01 0.52474920320E+01 0.55666360669E+01 0.59542214971E+01 0.64203697843E+01
 0.69775978046E+01 0.76161228247E+01 0.83438383065E+01 0.91409098377E+01 0.99544609635E+01
 0.88340741154E+01 0.93284245643E+01 0.97459170029E+01 0.10054951662E+02 0.10229297467E+02
 0.10250753919E+02 0.10118942323E+02 0.98370879534E+01 0.94224121168E+01 0.89053684499E+01
 0.83190020381E+01 0.77131033781E+01 0.71187881364E+01 0.65625335411E+01 0.60667016369E+01
 0.56410332783E+01 0.52889122487E+01 0.50083533647E+01 0.47958838355E+01 0.46463726295E+01
 0.45545731023E+01 0.45147766153E+01 0.45217749820E+01 0.45716255211E+01 0.46628010529E+01
 0.47925177048E+01 0.49564589980E+01 0.51600203023E+01 0.53988662587E+01 0.56790966901E+01
 0.60026610397E+01 0.63700193576E+01 0.67942368574E+01 0.72631828371E+01 0.77678751074E+01
 0.82999565496E+01 0.76052323734E+01 0.78981822546E+01 0.81516284209E+01 0.83422997861E+01
 0.84518117777E+01 0.84662604846E+01 0.83739161157E+01 0.81818782569E+01 0.79023108061E+01
 0.75543705430E+01 0.71609304500E+01 0.67436386757E+01 0.63319235036E+01 0.59438762690E+01
 0.55928283963E+01 0.52889122487E+01 0.50372197643E+01 0.48394768450E+01 0.46949754960E+01
 0.46014456437E+01 0.45559370787E+01 0.45545731023E+01 0.45926237306E+01 0.46650231265E+01
 0.47682729637E+01 0.49005524664E+01 0.50563156593E+01 0.52294401917E+01 0.54242690455E+01
 0.56352545985E+01 0.58653561975E+01 0.61165668032E+01 0.63819418452E+01 0.66696612346E+01
 0.69781308188E+01 0.72942119128E+01 0.69451840071E+01 0.70778882071E+01 0.71871314171E+01
 0.72622488361E+01 0.72895544672E+01 0.72599885475E+01 0.71741781734E+01 0.70278731439E+01
 0.68254816127E+01 0.65807595000E+01 0.63034626943E+01 0.60160024350E+01 0.57317962079E+01
 0.54619089205E+01 0.52178826302E+01 0.50083533647E+01 0.48394768450E+01 0.47140631366E+01
 0.46331013792E+01 0.45961323572E+01 0.46014456437E+01 0.46463726295E+01 0.47268578737E+01
 0.48373885181E+01 0.49721357803E+01 0.51269383162E+01 0.52956853752E+01 0.54724733448E+01
 0.56501128761E+01 0.58265665140E+01 0.59980472198E+01 0.61631030851E+01 0.63289442832E+01
 0.64893058234E+01 0.66442930534E+01 0.67974048597E+01 0.67350947975E+01 0.67293618980E+01
 0.67083783575E+01 0.66692190499E+01 0.66102708968E+01 0.65277275435E+01 0.64114352735E+01
 0.62673923824E+01 0.60968419870E+01 0.59051124303E+01 0.57015170435E+01 0.54900161549E+01
 0.52868224303E+01 0.50985912016E+01 0.49324266690E+01 0.47958838355E+01 0.46949754960E+01
 0.46331013792E+01 0.46123806461E+01 0.46331013792E+01 0.46949754960E+01 0.47958838355E+01
 0.49324266690E+01 0.50985912016E+01 0.52868224303E+01 0.54900161549E+01 0.57015170435E+01
 0.59051124303E+01 0.60968419870E+01 0.62673923824E+01 0.64114352735E+01 0.65277275435E+01
 0.66102708968E+01 0.66692190499E+01 0.67083783575E+01 0.67293618980E+01 0.69451840071E+01
 0.67974048597E+01 0.66442930534E+01 0.64893058234E+01 0.63289442832E+01 0.61631030851E+01
 0.59980472198E+01 0.58265665140E+01 0.56501128761E+01 0.54724733448E+01 0.52956853752E+01
 0.51269383162E+01 0.49721357803E+01 0.48373885181E+01 0.47268578737E+01 0.46463726295E+01
 0.46014456437E+01 0.45961323572E+01 0.46331013792E+01 0.47140631366E+01 0.48394768450E+01
 0.50083533647E+01 0.52178826302E+01 0.54619089205E+01 0.57317962079E+01 0.60160024350E+01
 0.63034626943E+01 0.65807595000E+01 0.68254816127E+01 0.70278731439E+01 0.71741781734E+01
 0.72599885475E+01 0.72895544672E+01 0.72622488361E+01 0.71871314171E+01 0.70778882071E+01
 0.76052323734E+01 0.72942119128E+01 0.69781308188E+01 0.66696612346E+01 0.63819418452E+01
 0.61165668032E+01 0.58653561975E+01 0.56352545985E+01 0.54242690455E+01 0.52294401917E+01
 0.50563156593E+01 0.49005524664E+01 0.47682729637E+01 0.46650231265E+01 0.45926237306E+01
 0.45545731023E+01 0.45559370787E+01 0.46014456437E+01 0.46949754960E+01 0.48394768450E+01
 0.50372197643E+01 0.52889122487E+01 0.55928283963E+01 0.59438762690E+01 0.63319235036E+01
 0.67436386757E+01 0.71609304500E+01 0.75543705430E+01 0.79023108061E+01 0.81818782569E+01
 0.83739161157E+01 0.84662604846E+01 0.84518117777E+01 0.83422997861E+01 0.81516284209E+01
 0.78981822546E+01 0.88340741154E+01 0.82999565496E+01 0.77678751074E+01 0.72631828371E+01
 0.67942368574E+01 0.63700193576E+01 0.60026610397E+01 0.56790966901E+01 0.53988662587E+01
 0.51600203023E+01 0.49564589980E+01 0.47925177048E+01 0.46628010529E+01 0.45716255211E+01
 0.45217749820E+01 0.45147766153E+01 0.45545731023E+01 0.46463726295E+01 0.47958838355E+01
 0.50083533647E+01 0.52889122487E+01 0.56410332783E+01 0.60667016369E+01 0.65625335411E+01
 0.71187881364E+01 0.77131033781E+01 0.83190020381E+01 0.89053684499E+01 0.94224121168E+01
 0.98370879534E+01 0.10118942323E+02 0.10250753919E+02 0.10229297467E+02 0.10054951662E+02
 0.97459170029E+01 0.93284245643E+01 0.10739426772E+02 0.99544609635E+01 0.91409098377E+01
 0.83438383065E+01 0.76161228247E+01 0.69775978046E+01 0.64203697843E+01 0.59542214971E+01
 0.55666360669E+01 0.52474920320E+01 0.49927991279E+01 0.47927994282E+01 0.46470702682E+01
 0.45511736845E+01 0.45090493388E+01 0.45217749820E+01 0.45926237306E+01 0.47268578737E+01
 0.49324266690E+01 0.52178826302E+01 0.55928283963E+01 0.60667016369E+01 0.66469309974E+01
 0.73336811660E+01 0.81115940539E+01 0.89567015546E+01 0.98255784047E+01 0.10889120324E+02
 0.11780939707E+02 0.12539493988E+02 0.13090223952E+02 0.13376758116E+02 0.13367093940E+02
 0.13070285896E+02 0.12521947278E+02 0.11780207492E+02 0.14338881275E+02 0.12892586175E+02
 0.11467008952E+02 0.10056830015E+02 0.89814459131E+01 0.80085117430E+01 0.71873116458E+01
 0.65024878808E+01 0.59477445411E+01 0.55074179869E+01 0.51612131793E+01 0.49009352243E+01
 0.47158336867E+01 0.46005214936E+01 0.45511736845E+01 0.45716255211E+01 0.46650231265E+01
 0.48373885181E+01 0.50985912016E+01 0.54619089205E+01 0.59438762690E+01 0.65625335411E+01
 0.73336811660E+01 0.82565857319E+01 0.93179994125E+01 0.10472984830E+02 0.12104169765E+02
 0.13593167282E+02 0.15045604629E+02 0.16345728873E+02 0.17353983857E+02 0.17952583024E+02
 0.18068162097E+02 0.17685094148E+02 0.16859651035E+02 0.15701446554E+02 0.19847770853E+02
 0.17483109103E+02 0.15181921686E+02 0.13072673225E+02 0.11216791451E+02 0.96019827857E+01
 0.83903979569E+01 0.73871259951E+01 0.65841070365E+01 0.59555835259E+01 0.54784258536E+01
 0.51223008097E+01 0.48719419686E+01 0.47158336867E+01 0.46470702682E+01 0.46628010529E+01
 0.47682729637E+01 0.49721357803E+01 0.52868224303E+01 0.57317962079E+01 0.63319235036E+01
 0.71187881364E+01 0.81115940539E+01 0.93179994125E+01 0.10951540781E+02 0.12813377021E+02
 0.14946585060E+02 0.17283551213E+02 0.19684453024E+02 0.21943146748E+02 0.23817831130E+02
 0.25070264609E+02 0.25522836756E+02 0.25114380176E+02 0.23906607710E+02 0.22071655648E+02
 0.28925933145E+02 0.25002310862E+02 0.21166547995E+02 0.17687423978E+02 0.14710521295E+02
 0.12246836109E+02 0.10138791318E+02 0.87086827787E+01 0.75451429668E+01 0.66452724826E+01
 0.59649429204E+01 0.54697249196E+01 0.51223008097E+01 0.49009352243E+01 0.47927994282E+01
 0.47925177048E+01 0.49005524664E+01 0.51269383162E+01 0.54900161549E+01 0.60160024350E+01
 0.67436386757E+01 0.77131033781E+01 0.89567015546E+01 0.10472984830E+02 0.12813377021E+02
 0.15454479499E+02 0.18628656806E+02 0.22261766122E+02 0.26183052229E+02 0.30082590707E+02
 0.33539858807E+02 0.36094359506E+02 0.37358172080E+02 0.37119035370E+02 0.35423833782E+02
 0.32549973560E+02 0.43979731978E+02 0.37393185933E+02 0.30935576641E+02 0.25117108274E+02
 0.20188458353E+02 0.16211835718E+02 0.13112383018E+02 0.10536952792E+02 0.89178435288E+01
 0.76299986429E+01 0.66670957262E+01 0.59649429204E+01 0.54784258536E+01 0.51612131793E+01
 0.49927991279E+01 0.49564589980E+01 0.50563156593E+01 0.52956853752E+01 0.57015170435E+01
 0.63034626943E+01 0.71609304500E+01 0.83190020381E+01 0.98255784047E+01 0.12104169765E+02
 0.14946585060E+02 0.18628656806E+02 0.23239989570E+02 0.28792346601E+02 0.35100915991E+02
 0.41737197877E+02 0.48018118626E+02 0.53091922309E+02 0.56131233764E+02 0.56595815370E+02
 0.54396026005E+02 0.49938331515E+02 0.69086917824E+02 0.57997056901E+02 0.46996355247E+02
 0.37122735599E+02 0.28882389771E+02 0.22357724658E+02 0.17377110726E+02 0.13691341626E+02
 0.10979993992E+02 0.89923486144E+01 0.76299986429E+01 0.66452724826E+01 0.59555835259E+01
 0.55074179869E+01 0.52474920320E+01 0.51600203023E+01 0.52294401917E+01 0.54724733448E+01
 0.59051124303E+01 0.65807595000E+01 0.75543705430E+01 0.89053684499E+01 0.10889120324E+02
 0.13593167282E+02 0.17283551213E+02 0.22261766122E+02 0.28792346601E+02 0.37044828273E+02
 0.46924132142E+02 0.57934668766E+02 0.69037254687E+02 0.78755355406E+02 0.85457912899E+02
 0.87861399182E+02 0.85472636778E+02 0.78788233098E+02 0.11050360374E+03 0.92057656899E+02
 0.73399506310E+02 0.56598264914E+02 0.42696001314E+02 0.31886254654E+02 0.23843078529E+02
 0.18018875153E+02 0.13893601296E+02 0.10979993992E+02 0.89178435288E+01 0.75451429668E+01
 0.65841070365E+01 0.59477445411E+01 0.55666360669E+01 0.53988662587E+01 0.54242690455E+01
 0.56501128761E+01 0.60968419870E+01 0.68254816127E+01 0.79023108061E+01 0.94224121168E+01
 0.11780939707E+02 0.15045604629E+02 0.19684453024E+02 0.26183052229E+02 0.35100915991E+02
 0.46924132142E+02 0.61857589516E+02 0.79451694867E+02 0.98330808844E+02 0.11609869444E+03
 0.12977534267E+03 0.13665149368E+03 0.13524851841E+03 0.12587139718E+03 0.17648336254E+03
 0.14704374713E+03 0.11611710763E+03 0.87864262964E+02 0.64531116222E+02 0.46623112186E+02
 0.33563405341E+02 0.24372785988E+02 0.18018875153E+02 0.13691341626E+02 0.10536952792E+02
 0.87086827787E+01 0.73871259951E+01 0.65024878808E+01 0.59542214971E+01 0.56790966901E+01
 0.56352545985E+01 0.58265665140E+01 0.62673923824E+01 0.70278731439E+01 0.81818782569E+01
 0.98370879534E+01 0.12539493988E+02 0.16345728873E+02 0.21943146748E+02 0.30082590707E+02
 0.41737197877E+02 0.57934668766E+02 0.79451694867E+02 0.10622133264E+03 0.13663360568E+03
 0.16713032141E+03 0.19269165036E+03 0.20829374793E+03 0.21063867698E+03 0.19922179694E+03
 0.27291802753E+03 0.23043643950E+03 0.18237169960E+03 0.13665319533E+03 0.98350982610E+02
 0.69060547017E+02 0.48044659598E+02 0.33563405341E+02 0.23843078529E+02 0.17377110726E+02
 0.13112383018E+02 0.10138791318E+02 0.83903979569E+01 0.71873116458E+01 0.64203697843E+01
 0.60026610397E+01 0.58653561975E+01 0.59980472198E+01 0.64114352735E+01 0.71741781734E+01
 0.83739161157E+01 0.10118942323E+02 0.13090223952E+02 0.17353983857E+02 0.23817831130E+02
 0.33539858807E+02 0.48018118626E+02 0.69037254687E+02 0.98330808844E+02 0.13663360568E+03
 0.18235711454E+03 0.23042730341E+03 0.27291195068E+03 0.30179079605E+03 0.31194644217E+03
 0.30179358438E+03 0.38742708036E+03 0.34008605803E+03 0.27600287061E+03 0.20829602493E+03
 0.14859470129E+03 0.10219932159E+03 0.69060547017E+02 0.46623112186E+02 0.31886254654E+02
 0.22357724658E+02 0.16211835718E+02 0.12246836109E+02 0.96019827857E+01 0.80085117430E+01
 0.69775978046E+01 0.63700193576E+01 0.61165668032E+01 0.61631030851E+01 0.65277275435E+01
 0.72599885475E+01 0.84662604846E+01 0.10250753919E+02 0.13376758116E+02 0.17952583024E+02
 0.25070264609E+02 0.36094359506E+02 0.53091922309E+02 0.78755355406E+02 0.11609869444E+03
 0.16713032141E+03 0.23042730341E+03 0.29845708895E+03 0.35823406723E+03 0.39812506783E+03
 0.41519095172E+03 0.41188511984E+03 0.45420420509E+03 0.43857988419E+03 0.38380704377E+03
 0.30179441476E+03 0.21783731559E+03 0.14859470129E+03 0.98350982610E+02 0.64531116222E+02
 0.42696001314E+02 0.28882389771E+02 0.20188458353E+02 0.14710521295E+02 0.11216791451E+02
 0.89814459131E+01 0.76161228247E+01 0.67942368574E+01 0.63819418452E+01 0.63289442832E+01
 0.66102708968E+01 0.72895544672E+01 0.84518117777E+01 0.10229297467E+02 0.13367093940E+02
 0.18068162097E+02 0.25522836756E+02 0.37358172080E+02 0.56131233764E+02 0.85457912899E+02
 0.12977534267E+03 0.19269165036E+03 0.27291195068E+03 0.35823406723E+03 0.42468489623E+03
 0.45272860091E+03 0.45163930248E+03 0.45004155282E+03 0.35087601512E+03 0.42549871304E+03
 0.45272951001E+03 0.39812667799E+03 0.30179441476E+03 0.20829602493E+03 0.13665319533E+03
 0.87864262964E+02 0.56598264914E+02 0.37122735599E+02 0.25117108274E+02 0.17687423978E+02
 0.13072673225E+02 0.10056830015E+02 0.83438383065E+01 0.72631828371E+01 0.66696612346E+01
 0.64893058234E+01 0.66692190499E+01 0.72622488361E+01 0.83422997861E+01 0.10054951662E+02
 0.13070285896E+02 0.17685094148E+02 0.25114380176E+02 0.37119035370E+02 0.56595815370E+02
 0.87861399182E+02 0.13665149368E+03 0.20829374793E+03 0.30179079605E+03 0.39812506783E+03
 0.45272860091E+03 0.42549557136E+03 0.35087282090E+03 0.31496759797E+03 0.25779031082E+03
 0.25262455438E+03 0.39888470412E+03 0.45272951001E+03 0.38380704377E+03 0.27600287061E+03
 0.18237169960E+03 0.11611710763E+03 0.73399506310E+02 0.46996355247E+02 0.30935576641E+02
 0.21166547995E+02 0.15181921686E+02 0.11467008952E+02 0.91409098377E+01 0.77678751074E+01
 0.69781308188E+01 0.66442930534E+01 0.67083783575E+01 0.71871314171E+01 0.81516284209E+01
 0.97459170029E+01 0.12521947278E+02 0.16859651035E+02 0.23906607710E+02 0.35423833782E+02
 0.54396026005E+02 0.85472636778E+02 0.13524851841E+03 0.21063867698E+03 0.31194644217E+03
 0.41519095172E+03 0.45163930248E+03 0.35087282090E+03 0.22806952354E+03 0.28839531082E+03
 0.16652050670E+04 0.49269371812E+03 0.25262455438E+03 0.42549871304E+03 0.43857988419E+03
 0.34008605803E+03 0.23043643950E+03 0.14704374713E+03 0.92057656899E+02 0.57997056901E+02
 0.37393185933E+02 0.25002310862E+02 0.17483109103E+02 0.12892586175E+02 0.99544609635E+01
 0.82999565496E+01 0.72942119128E+01 0.67974048597E+01 0.67293618980E+01 0.70778882071E+01
 0.78981822546E+01 0.93284245643E+01 0.11780207492E+02 0.15701446554E+02 0.22071655648E+02
 0.32549973560E+02 0.49938331515E+02 0.78788233098E+02 0.12587139718E+03 0.19922179694E+03
 0.30179358438E+03 0.41188511984E+03 0.45004155282E+03 0.31496759797E+03 0.28839531082E+03
 0.13025845506E+04 0.17129660151E+04 0.81164473233E+03 0.22613000482E+03 0.38053923244E+03
 0.45283605507E+03 0.37697163789E+03 0.26420382217E+03 0.17103412859E+03 0.10742345169E+03
 0.67404370866E+02 0.43067458250E+02 0.28424883230E+02 0.19566241347E+02 0.14176119727E+02
 0.10653108676E+02 0.87721362848E+01 0.75621040581E+01 0.69106809128E+01 0.67044148893E+01
 0.69106809128E+01 0.75621040581E+01 0.87721362848E+01 0.10653108676E+02 0.14176119727E+02
 0.19566241347E+02 0.28424883230E+02 0.43067458250E+02 0.67404370866E+02 0.10742345169E+03
 0.17103412859E+03 0.26420382217E+03 0.37697163789E+03 0.45283605507E+03 0.38053923244E+03
 0.22613000482E+03 0.81164473233E+03 0.81164473233E+03 0.63643285721E+03 0.22991103373E+03
 0.34952803821E+03 0.45356488172E+03 0.40205309563E+03 0.29228515921E+03 0.19295778754E+03
 0.12224824964E+03 0.76789882416E+02 0.48850930416E+02 0.31954979794E+02 0.21738680458E+02
 0.15511164762E+02 0.11665385335E+02 0.92603507344E+01 0.78506277499E+01 0.70416038113E+01
 0.66983130849E+01 0.67650217065E+01 0.72552941101E+01 0.82459245682E+01 0.98786124846E+01
 0.12756923017E+02 0.17254447106E+02 0.24598850790E+02 0.36666892075E+02 0.56664213788E+02
 0.89614288270E+02 0.14266003559E+03 0.22308504715E+03 0.32979541630E+03 0.43092207569E+03
 0.43868082587E+03 0.28783997785E+03 0.29302734260E+03 0.22613000482E+03 0.22991103373E+03
 0.25131062147E+03 0.38053607012E+03 0.45405890716E+03 0.40551254978E+03 0.30219471092E+03
 0.20397136221E+03 0.13129007715E+03 0.83251735059E+02 0.53174522145E+02 0.34752105562E+02
 0.23530181137E+02 0.16644948930E+02 0.12393141596E+02 0.96728150376E+01 0.80997844578E+01
 0.71496763883E+01 0.66772218923E+01 0.66143451853E+01 0.69428722112E+01 0.77218187307E+01
 0.90747411403E+01 0.11357854501E+02 0.15001764242E+02 0.20854374394E+02 0.30382554299E+02
 0.45995927118E+02 0.71576944391E+02 0.11283915852E+03 0.17671032073E+03 0.26719713597E+03
 0.37331476679E+03 0.44911236681E+03 0.41906735011E+03 0.28783997785E+03 0.38053923244E+03
 0.34952803821E+03 0.38053607012E+03 0.43867801881E+03 0.44911207011E+03 0.38785224668E+03
 0.29228274303E+03 0.20170982947E+03 0.13264285230E+03 0.85560488179E+02 0.55306532632E+02
 0.36400833966E+02 0.24708338188E+02 0.17452316742E+02 0.12931279262E+02 0.99784031790E+01
 0.82872951904E+01 0.72237028977E+01 0.66378789934E+01 0.64613219763E+01 0.66383015459E+01
 0.72244200276E+01 0.82882428527E+01 0.99795764156E+01 0.12932819460E+02 0.17453732579E+02
 0.24709989503E+02 0.36403621206E+02 0.55308004686E+02 0.85562445941E+02 0.13264367843E+03
 0.20171098743E+03 0.29228570648E+03 0.38785336661E+03 0.44911236681E+03 0.43868082587E+03
 0.45283605507E+03 0.45356488172E+03 0.45405890716E+03 0.44911207011E+03 0.41558277171E+03
 0.34773984044E+03 0.26419865764E+03 0.18666026275E+03 0.12601294624E+03 0.83237482072E+02
 0.54856533916E+02 0.36633307072E+02 0.25106842332E+02 0.17826854569E+02 0.13222548378E+02
 0.10150117311E+02 0.83952142609E+01 0.72502934200E+01 0.65799084065E+01 0.63024940521E+01
 0.63544114498E+01 0.67609294085E+01 0.75714653542E+01 0.89169020106E+01 0.11111759238E+02
 0.14539238237E+02 0.19897873813E+02 0.28381262795E+02 0.41819719963E+02 0.62992827496E+02
 0.95691654825E+02 0.14415470644E+03 0.21091740091E+03 0.29228570648E+03 0.37331476679E+03
 0.43092207569E+03 0.37697163789E+03 0.40205309563E+03 0.40551254978E+03 0.38785224668E+03
 0.34773984044E+03 0.28903230373E+03 0.22307723365E+03 0.16202015891E+03 0.11282283117E+03
 0.76757801981E+02 0.51910245754E+02 0.35403790093E+02 0.24665467834E+02 0.17713432579E+02
 0.13232076312E+02 0.10171384980E+02 0.84093900072E+01 0.72207147396E+01 0.64978555999E+01
 0.61384455013E+01 0.60921831925E+01 0.63424222094E+01 0.69412308247E+01 0.79577060618E+01
 0.95293146855E+01 0.12121678527E+02 0.16008929293E+02 0.22016696620E+02 0.31306984179E+02
 0.45633427314E+02 0.67377659583E+02 0.99407578246E+02 0.14415470644E+03 0.20171098743E+03
 0.26719713597E+03 0.32979541630E+03 0.26420382217E+03 0.29228515921E+03 0.30219471092E+03
 0.29228274303E+03 0.26419865764E+03 0.22307723365E+03 0.17669689959E+03 0.13262550272E+03
 0.95673697515E+02 0.67356050686E+02 0.46988473732E+02 0.32918195063E+02 0.23443603312E+02
 0.17127815450E+02 0.12950622670E+02 0.10041303489E+02 0.83180840811E+01 0.71362902626E+01
 0.63829446869E+01 0.59755054666E+01 0.58433307545E+01 0.59795695638E+01 0.63909893046E+01
 0.71480472353E+01 0.83331468987E+01 0.10059462897E+02 0.12971020054E+02 0.17148755980E+02
 0.23466642944E+02 0.32939211437E+02 0.47012624226E+02 0.67377659583E+02 0.95691654825E+02
 0.13264367843E+03 0.17671032073E+03 0.22308504715E+03 0.17103412859E+03 0.19295778754E+03
 0.20397136221E+03 0.20170982947E+03 0.18666026275E+03 0.16202015891E+03 0.13262550272E+03
 0.10329175753E+03 0.77431375830E+02 0.56604061630E+02 0.40890080213E+02 0.29550711705E+02
 0.21613155068E+02 0.16140709647E+02 0.12410370023E+02 0.97627848705E+01 0.81289526467E+01
 0.69909992448E+01 0.62404679455E+01 0.58054042096E+01 0.56164806086E+01 0.56594598176E+01
 0.59309231184E+01 0.64718364071E+01 0.73444436914E+01 0.86470131110E+01 0.10451467641E+02
 0.13538995376E+02 0.17776219412E+02 0.23983859889E+02 0.32939211437E+02 0.45633427314E+02
 0.62992827496E+02 0.85562445941E+02 0.11283915852E+03 0.14266003559E+03 0.10742345169E+03
 0.12224824964E+03 0.13129007715E+03 0.13264285230E+03 0.12601294624E+03 0.11282283117E+03
 0.95673697515E+02 0.77431375830E+02 0.60404334868E+02 0.45927194260E+02 0.34436600155E+02
 0.25750787974E+02 0.19407039311E+02 0.14868343929E+02 0.11666014621E+02 0.93535802943E+01
 0.78540729033E+01 0.67919419158E+01 0.60727103314E+01 0.56309729237E+01 0.54072555789E+01
 0.53822780870E+01 0.55479067663E+01 0.59241238991E+01 0.65518384041E+01 0.74999930752E+01
 0.88531875360E+01 0.10662519310E+02 0.13737225169E+02 0.17776219412E+02 0.23466642944E+02
 0.31306984179E+02 0.41819719963E+02 0.55308004686E+02 0.71576944391E+02 0.89614288270E+02
 0.67404370866E+02 0.76789882416E+02 0.83251735059E+02 0.85560488179E+02 0.83237482072E+02
 0.76757801981E+02 0.67356050686E+02 0.56604061630E+02 0.45927194260E+02 0.36328226338E+02