       N       E                     dE             d eps       ncg     rms          rms(c)
DAV:   1     0.137058367551E+03    0.13706E+03   -0.87528E+03 26644   0.204E+03
DAV:   2    -0.135467508819E+01   -0.13841E+03   -0.12408E+03 25116   0.253E+02
DAV:   3    -0.152308756158E+02   -0.13876E+02   -0.13434E+02 27084   0.868E+01
DAV:   4    -0.160003142750E+02   -0.76944E+00   -0.75919E+00 38024   0.186E+01
DAV:   5    -0.160334139152E+02   -0.33100E-01   -0.32935E-01 32536   0.305E+00    0.134E+01
DAV:   6    -0.203265223889E+02   -0.42931E+01   -0.48262E+01 33628   0.690E+01    0.181E+01
DAV:   7    -0.191220276882E+02    0.12045E+01   -0.29686E+00 27440   0.383E+01    0.670E+00
DAV:   8    -0.187692954773E+02    0.35273E+00   -0.14185E+00 39236   0.146E+01    0.260E+00
DAV:   9    -0.188398792953E+02   -0.70584E-01   -0.15200E+00 30640   0.104E+01    0.365E+00
DAV:  10    -0.187462111616E+02    0.93668E-01   -0.80880E-01 29652   0.726E+00    0.106E+00
DAV:  11    -0.187632010207E+02   -0.16990E-01   -0.25493E-02 35468   0.125E+00    0.592E-01
DAV:  12    -0.187612275552E+02    0.19735E-02   -0.56787E-03 35036   0.706E-01    0.554E-01
DAV:  13    -0.187590605008E+02    0.21671E-02   -0.41086E-03 34596   0.535E-01    0.311E-01
DAV:  14    -0.187584137775E+02    0.64672E-03   -0.16454E-03 36272   0.340E-01    0.182E-01
DAV:  15    -0.187581148212E+02    0.29896E-03   -0.23783E-03 31464   0.410E-01    0.102E-02
DAV:  16    -0.187581275677E+02   -0.12746E-04   -0.12027E-04 34156   0.518E-02    0.128E-02
DAV:  17    -0.187581280255E+02   -0.45780E-06   -0.30439E-06 36136   0.934E-03    0.143E-02
DAV:  18    -0.187581255795E+02    0.24460E-05   -0.39078E-06 33856   0.175E-02    0.526E-03
DAV:  19    -0.187581249843E+02    0.59520E-06   -0.78912E-07 36128   0.771E-03    0.208E-03
DAV:  20    -0.187581249424E+02    0.41826E-07   -0.41604E-08 14376   0.165E-03
   1 F= -.18758125E+02 E0= -.18758125E+02  d E =0.000000E+00  mag=     6.9842
