       N       E                     dE             d eps       ncg     rms          rms(c)
DAV:   1     0.267879017844E+03    0.26788E+03   -0.24172E+04 44220   0.264E+03
DAV:   2    -0.819245098633E+01   -0.27607E+03   -0.26485E+03 44676   0.487E+02
DAV:   3    -0.162008529778E+02   -0.80084E+01   -0.79909E+01 47508   0.891E+01
DAV:   4    -0.162716646054E+02   -0.70812E-01   -0.70809E-01 51816   0.802E+00
DAV:   5    -0.162729774507E+02   -0.13128E-02   -0.13128E-02 47604   0.103E+00    0.249E+01
DAV:   6    -0.164617567429E+02   -0.18878E+00   -0.74563E+00 44412   0.398E+01    0.687E+00
DAV:   7    -0.165140695304E+02   -0.52313E-01   -0.61716E-01 44832   0.989E+00    0.433E+00
DAV:   8    -0.165242117816E+02   -0.10142E-01   -0.14941E-02 49716   0.148E+00    0.137E+00
DAV:   9    -0.165158919233E+02    0.83199E-02   -0.51575E-03 47940   0.887E-01    0.350E-01
DAV:  10    -0.165155585900E+02    0.33333E-03   -0.22113E-03 45456   0.612E-01    0.442E-02
DAV:  11    -0.165156034962E+02   -0.44906E-04   -0.55947E-05 47184   0.708E-02    0.248E-02
DAV:  12    -0.165156017210E+02    0.17752E-05   -0.50347E-06 50964   0.248E-02    0.106E-02
DAV:  13    -0.165156027312E+02   -0.10101E-05   -0.20580E-06 46476   0.150E-02    0.159E-03
DAV:  14    -0.165156029692E+02   -0.23807E-06   -0.92024E-08 41244   0.277E-03    0.617E-04
DAV:  15    -0.165156029273E+02    0.41907E-07   -0.65472E-09 23664   0.964E-04
   1 F= -.16515603E+02 E0= -.16515603E+02  d E =0.000000E+00  mag=     4.4293
