       N       E                     dE             d eps       ncg     rms          rms(c)
DAV:   1     0.835489438021E+03    0.83549E+03   -0.24457E+04 10276   0.259E+03
DAV:   2     0.191822069713E+03   -0.64367E+03   -0.49140E+03 10928   0.377E+02
DAV:   3    -0.346029231988E+01   -0.19528E+03   -0.18762E+03  8920   0.214E+02
DAV:   4    -0.272598480271E+02   -0.23800E+02   -0.22508E+02 12568   0.662E+01
DAV:   5    -0.295417653403E+02   -0.22819E+01   -0.22085E+01 15360   0.219E+01    0.224E+01
DAV:   6    -0.441973732132E+02   -0.14656E+02   -0.57422E+01 10700   0.707E+01    0.302E+01
DAV:   7    -0.426055490731E+02    0.15918E+01   -0.89528E+00 11024   0.187E+01    0.107E+01
DAV:   8    -0.410246971743E+02    0.15809E+01   -0.33186E+00 11768   0.140E+01    0.341E+00
DAV:   9    -0.410813492285E+02   -0.56652E-01   -0.16825E+00 12080   0.105E+01    0.387E+00
DAV:  10    -0.410572713537E+02    0.24078E-01   -0.32289E-01 13160   0.384E+00    0.126E+00
DAV:  11    -0.411223928168E+02   -0.65121E-01   -0.55758E-02 15368   0.118E+00    0.630E-01
DAV:  12    -0.411586335917E+02   -0.36241E-01   -0.38439E-02 11752   0.939E-01    0.579E-01
DAV:  13    -0.411595891364E+02   -0.95554E-03   -0.14846E-02 12304   0.736E-01    0.181E-01
DAV:  14    -0.411579623080E+02    0.16268E-02   -0.12189E-02 12876   0.349E-01    0.144E-01
DAV:  15    -0.411575093967E+02    0.45291E-03   -0.13072E-03 13960   0.159E-01    0.117E-01
DAV:  16    -0.411571361887E+02    0.37321E-03   -0.80390E-04 13692   0.201E-01    0.430E-02
DAV:  17    -0.411574925910E+02   -0.35640E-03   -0.19263E-04 13652   0.689E-02    0.929E-03
DAV:  18    -0.411576124607E+02   -0.11987E-03   -0.35042E-05 14964   0.274E-02    0.349E-03
DAV:  19    -0.411575917895E+02    0.20671E-04   -0.57874E-06 13508   0.830E-03    0.180E-03
DAV:  20    -0.411576019214E+02   -0.10132E-04   -0.11450E-06 10656   0.327E-03    0.116E-03
DAV:  21    -0.411575969940E+02    0.49274E-05   -0.11716E-07  7304   0.198E-03    0.935E-04
DAV:  22    -0.411575931504E+02    0.38436E-05   -0.40872E-08  4980   0.176E-03    0.316E-04
DAV:  23    -0.411575923928E+02    0.75765E-06   -0.18435E-08  4872   0.712E-04    0.250E-04
DAV:  24    -0.411575924973E+02   -0.10454E-06   -0.94375E-09  4792   0.862E-04    0.792E-05
DAV:  25    -0.411575921740E+02    0.32338E-06   -0.56941E-09  4756   0.451E-04    0.762E-05
DAV:  26    -0.411575919272E+02    0.24671E-06   -0.43831E-09  4752   0.501E-04    0.885E-05
DAV:  27    -0.411575919497E+02   -0.22505E-07   -0.27895E-09  4736   0.369E-04
   1 F= -.41157592E+02 E0= -.41157592E+02  d E =0.000000E+00  mag=    29.7435
