 vasp.5.4.4.18Apr17-6-g9f103f2a35 (build Apr 28 2018 00:24:27) complex          
  
 executed on             LinuxIFC date 2021.03.19  19:37:15
 running on    8 total cores
 distrk:  each k-point on    8 cores,    1 groups
 distr:  one band on NCORES_PER_BAND=   1 cores,    8 groups


--------------------------------------------------------------------------------------------------------


 INCAR:
 POTCAR:    PAW_PBE Ni 02Aug2007                  

 ----------------------------------------------------------------------------- 
|                                                                             |
|           W    W    AA    RRRRR   N    N  II  N    N   GGGG   !!!           |
|           W    W   A  A   R    R  NN   N  II  NN   N  G    G  !!!           |
|           W    W  A    A  R    R  N N  N  II  N N  N  G       !!!           |
|           W WW W  AAAAAA  RRRRR   N  N N  II  N  N N  G  GGG   !            |
|           WW  WW  A    A  R   R   N   NN  II  N   NN  G    G                |
|           W    W  A    A  R    R  N    N  II  N    N   GGGG   !!!           |
|                                                                             |
|      For optimal performance we recommend to set                            |
|        NCORE= 4 - approx SQRT( number of cores)                             |
|      NCORE specifies how many cores store one orbital (NPAR=cpu/NCORE).     |
|      This setting can  greatly improve the performance of VASP for DFT.     |
|      The default,   NCORE=1            might be grossly inefficient         |
|      on modern multi-core architectures or massively parallel machines.     |
|      Do your own testing !!!!                                               |
|      Unfortunately you need to use the default for GW and RPA calculations. |
|      (for HF NCORE is supported but not extensively tested yet)             |
|                                                                             |
 ----------------------------------------------------------------------------- 

 POTCAR:    PAW_PBE Ni 02Aug2007                  
   SHA256 =  0534bc51ca8003dfef23f56753fef9fdd3e22eac8d719fccacb59f3e6b7a69c7 Ni
   COPYR  = (c) Copyright 02Aug2007 Georg Kresse                                
   COPYR  = This file is part of the software VASP. Any use, copying, and all ot
   COPYR  = If you do not have a valid VASP license, you may not use, copy or di
   VRHFIN =Ni:                                                                  
   LEXCH  = PE                                                                  
   EATOM  =  1077.6739 eV,   79.2068 Ry                                         
                                                                                
   TITEL  = PAW_PBE Ni 02Aug2007                                                
   LULTRA =        F    use ultrasoft PP ?                                      
   IUNSCR =        1    unscreen: 0-lin 1-nonlin 2-no                           
   RPACOR =    2.000    partial core radius                                     
   POMASS =   58.690; ZVAL   =   10.000    mass and valenz                      
   RCORE  =    2.300    outmost cutoff radius                                   
   RWIGS  =    2.430; RWIGS  =    1.286    wigner-seitz radius (au A)           
   ENMAX  =  269.532; ENMIN  =  202.149 eV                                      
   RCLOC  =    1.201    cutoff for local pot                                    
   LCOR   =        T    correct aug charges                                     
   LPAW   =        T    paw PP                                                  
   EAUG   =  544.565                                                            
   DEXC   =    0.000                                                            
   RMAX   =    2.357    core radius for proj-oper                               
   RAUG   =    1.300    factor for augmentation sphere                          
   RDEP   =    2.390    radius for radial grids                                 
   RDEPT  =    1.838    core radius for aug-charge                              
                                                                                
   Atomic configuration                                                         
    9 entries                                                                   
     n  l   j            E        occ.                                          
     1  0  0.50     -8206.4253   2.0000                                         
     2  0  0.50      -976.1748   2.0000                                         
     2  1  1.50      -839.0571   6.0000                                         
     3  0  0.50      -105.9991   2.0000                                         
     3  1  1.50       -66.4603   6.0000                                         
     3  2  2.50        -4.6458   9.0000                                         
     4  0  0.50        -4.4926   1.0000                                         
     4  1  1.50        -4.0817   0.0000                                         
     4  3  2.50        -1.3606   0.0000                                         
   Description                                                                  
     l       E           TYP  RCUT    TYP  RCUT                                 
     2     -4.6457903     23  2.300                                             
     2     -6.0063729     23  2.300                                             
     0     -4.4925590     23  2.300                                             
     0      5.0102601     23  2.300                                             
     1     -2.7211652     23  2.300                                             
     1     16.5183231     23  2.300                                             
  local pseudopotential read in
  partial core-charges read in
  partial kinetic energy density read in
  atomic valenz-charges read in
  non local Contribution for L=           2  read in
    real space projection operators read in
  non local Contribution for L=           2  read in
    real space projection operators read in
  non local Contribution for L=           0  read in
    real space projection operators read in
  non local Contribution for L=           0  read in
    real space projection operators read in
  non local Contribution for L=           1  read in
    real space projection operators read in
  non local Contribution for L=           1  read in
    real space projection operators read in
    PAW grid and wavefunctions read in
 
   number of l-projection  operators is LMAX  =           6
   number of lm-projection operators is LMMAX =          18
 
  PAW_PBE Ni 02Aug2007                  :
 energy of atom  1       EATOM=-1077.6739
 kinetic energy error for atom=    0.0030 (will be added to EATOM!!)
 
 
 POSCAR: Ni1 str #: 6                            
  positions in direct lattice
  No initial velocities read in
 exchange correlation table for  LEXCH =        8
   RHO(1)=    0.500       N(1)  =     2000
   RHO(2)=  100.500       N(2)  =     4000
 


--------------------------------------------------------------------------------------------------------


 ion  position               nearest neighbor table
   1  0.000  0.000  0.000-   2 2.48   4 2.48   4 2.48   2 2.48   4 2.48   2 2.48   2 2.48   4 2.48

   2  0.500  0.250  0.500-   3 2.48   1 2.48   1 2.48   3 2.48   3 2.48   1 2.48   1 2.48   3 2.48

   3  0.000  0.500  0.000-   4 2.48   2 2.48   2 2.48   4 2.48   4 2.48   2 2.48   2 2.48   4 2.48

   4  0.500  0.750  0.500-   1 2.48   3 2.48   3 2.48   1 2.48   3 2.48   1 2.48   1 2.48   3 2.48

 
  LATTYP: Found a simple tetragonal cell.
 ALAT       =     2.4767001000
 C/A-ratio  =     2.8284270892
  
  Lattice vectors:
  
 A1 = (  -2.4767001000,   0.0000000000,   0.0000000000)
 A2 = (   0.0000000000,   1.4299234700,  -2.0222171000)
 A3 = (   0.0000002000,  -5.7196938600,  -4.0444342000)


Analysis of symmetry for initial positions (statically):
=====================================================================
 Subroutine PRICEL returns following result:
 
  LATTYP: Found a face centered cubic cell.
 ALAT       =     3.5025828309
  
  Lattice vectors:
  
 A1 = (  -1.2383500000,  -2.1448852000,   0.0000000000)
 A2 = (  -2.4767001000,   0.0000000000,   0.0000000000)
 A3 = (  -1.2383500000,  -0.7149617300,  -2.0222171000)
 
   4 primitive cells build up your supercell.
 

 Routine SETGRP: Setting up the symmetry group for a 
 simple tetragonal supercell.


 Subroutine GETGRP returns: Found 16 space group operations
 (whereof 16 operations were pure point group operations)
 out of a pool of 16 trial point group operations.


The static configuration has the point symmetry D_4h.


Analysis of symmetry for dynamics (positions and initial velocities):
=====================================================================
 Subroutine PRICEL returns following result:
 
  LATTYP: Found a face centered cubic cell.
 ALAT       =     3.5025828309
  
  Lattice vectors:
  
 A1 = (  -1.2383500000,  -2.1448852000,   0.0000000000)
 A2 = (  -2.4767001000,   0.0000000000,   0.0000000000)
 A3 = (  -1.2383500000,  -0.7149617300,  -2.0222171000)
 
   4 primitive cells build up your supercell.
 

 Routine SETGRP: Setting up the symmetry group for a 
 simple tetragonal supercell.


 Subroutine GETGRP returns: Found 16 space group operations
 (whereof 16 operations were pure point group operations)
 out of a pool of 16 trial point group operations.


The dynamic configuration has the point symmetry D_4h.


Analysis of structural, dynamic, and magnetic symmetry:
=====================================================================
 Subroutine PRICEL returns following result:
 
  LATTYP: Found a simple tetragonal cell.
 ALAT       =     2.4767001000
 C/A-ratio  =     1.4142135446
  
  Lattice vectors:
  
 A1 = (  -2.4767001000,   0.0000000000,   0.0000000000)
 A2 = (   0.0000000000,   1.4299234700,  -2.0222171000)
 A3 = (   0.0000001000,  -2.8598469300,  -2.0222171000)
 
   2 primitive cells build up your supercell.
 

 Routine SETGRP: Setting up the symmetry group for a 
 simple tetragonal supercell.


 Subroutine GETGRP returns: Found 16 space group operations
 (whereof  8 operations were pure point group operations)
 out of a pool of 16 trial point group operations.


The magnetic configuration has the point symmetry C_4v.
 The point group associated with its full space group is D_4h.


 Subroutine INISYM returns: Found 16 space group operations
 (whereof  8 operations are pure point group operations),
 and found     2 'primitive' translations

 
 
 KPOINTS: k-points                                

Automatic generation of k-mesh.
Space group operators:
 irot       det(A)        alpha          n_x          n_y          n_z        tau_x        tau_y        tau_z
    1     1.000000     0.000000     1.000000     0.000000     0.000000     0.000000     0.000000     0.000000
    2     1.000000    90.000000    -0.000000     0.816497     0.577350     0.000000     0.000000     0.000000
    3     1.000000   180.000000     0.000000    -0.816497    -0.577350     0.000000     0.000000     0.000000
    4     1.000000    90.000000     0.000000    -0.816497    -0.577350     0.000000     0.000000     0.000000
    5    -1.000000   180.000000     0.000000    -0.577350     0.816497     0.000000     0.000000     0.000000
    6    -1.000000   180.000000    -0.707107     0.408248    -0.577350     0.000000     0.000000     0.000000
    7    -1.000000   180.000000     1.000000     0.000000     0.000000     0.000000     0.000000     0.000000
    8    -1.000000   180.000000     0.707107     0.408248    -0.577350     0.000000     0.000000     0.000000
    9    -1.000000     0.000000     1.000000     0.000000     0.000000    -0.500000    -0.250000    -0.500000
   10    -1.000000    90.000000    -0.000000     0.816497     0.577350    -0.500000    -0.250000    -0.500000
   11    -1.000000   180.000000     0.000000    -0.816497    -0.577350    -0.500000    -0.250000    -0.500000
   12    -1.000000    90.000000     0.000000    -0.816497    -0.577350    -0.500000    -0.250000    -0.500000
   13     1.000000   180.000000     0.000000    -0.577350     0.816497    -0.500000    -0.250000    -0.500000
   14     1.000000   180.000000    -0.707107     0.408248    -0.577350    -0.500000    -0.250000    -0.500000
   15     1.000000   180.000000     1.000000     0.000000     0.000000    -0.500000    -0.250000    -0.500000
   16     1.000000   180.000000     0.707107     0.408248    -0.577350    -0.500000    -0.250000    -0.500000
 
 Subroutine IBZKPT returns following result:
 ===========================================
 
 Found    126 irreducible k-points:
 
 Following reciprocal coordinates:
            Coordinates               Weight
  0.000000  0.000000  0.000000      1.000000
  0.090909 -0.000000  0.000000      4.000000
  0.181818 -0.000000  0.000000      4.000000
  0.272727  0.000000 -0.000000      4.000000
  0.363636 -0.000000  0.000000      4.000000
  0.454545  0.000000  0.000000      4.000000
  0.000000  0.090909  0.000000      2.000000
  0.090909  0.090909  0.000000      8.000000
  0.181818  0.090909 -0.000000      8.000000
  0.272727  0.090909 -0.000000      8.000000
  0.363636  0.090909  0.000000      8.000000
  0.454545  0.090909 -0.000000      8.000000
  0.000000  0.181818  0.000000      2.000000
  0.090909  0.181818  0.000000      8.000000
  0.181818  0.181818  0.000000      8.000000
  0.272727  0.181818 -0.000000      8.000000
  0.363636  0.181818 -0.000000      8.000000
  0.454545  0.181818 -0.000000      8.000000
  0.000000  0.272727  0.000000      2.000000
  0.090909  0.272727  0.000000      8.000000
  0.181818  0.272727  0.000000      8.000000
  0.272727  0.272727  0.000000      8.000000
  0.363636  0.272727  0.000000      8.000000
  0.454545  0.272727  0.000000      8.000000
  0.000000  0.363636  0.000000      2.000000
  0.090909  0.363636  0.000000      8.000000
  0.181818  0.363636  0.000000      8.000000
  0.272727  0.363636  0.000000      8.000000
  0.363636  0.363636  0.000000      8.000000
  0.454545  0.363636  0.000000      8.000000
  0.000000  0.454545 -0.000000      2.000000
  0.090909  0.454545  0.000000      8.000000
  0.181818  0.454545 -0.000000      8.000000
  0.272727  0.454545  0.000000      8.000000
  0.363636  0.454545 -0.000000      8.000000
  0.454545  0.454545  0.000000      8.000000
  0.090909 -0.000000  0.090909      4.000000
  0.181818 -0.000000  0.090909      8.000000
  0.272727 -0.000000  0.090909      8.000000
  0.363636 -0.000000  0.090909      8.000000
  0.454545  0.000000  0.090909      8.000000
  0.090909  0.090909  0.090909      8.000000
  0.181818  0.090909  0.090909     16.000000
  0.272727  0.090909  0.090909     16.000000
  0.363636  0.090909  0.090909     16.000000
  0.454545  0.090909  0.090909     16.000000
  0.090909  0.181818  0.090909      8.000000
  0.181818  0.181818  0.090909     16.000000
  0.272727  0.181818  0.090909     16.000000
  0.363636  0.181818  0.090909     16.000000
  0.454545  0.181818  0.090909     16.000000
  0.090909  0.272727  0.090909      8.000000
  0.181818  0.272727  0.090909     16.000000
  0.272727  0.272727  0.090909     16.000000
  0.363636  0.272727  0.090909     16.000000
  0.454545  0.272727  0.090909     16.000000
  0.090909  0.363636  0.090909      8.000000
  0.181818  0.363636  0.090909     16.000000
  0.272727  0.363636  0.090909     16.000000
  0.363636  0.363636  0.090909     16.000000
  0.454545  0.363636  0.090909     16.000000
  0.090909  0.454545  0.090909      8.000000
  0.181818  0.454545  0.090909     16.000000
  0.272727  0.454545  0.090909     16.000000
  0.363636  0.454545  0.090909     16.000000
  0.454545  0.454545  0.090909     16.000000
  0.181818 -0.000000  0.181818      4.000000
  0.272727 -0.000000  0.181818      8.000000
  0.363636 -0.000000  0.181818      8.000000
  0.454545 -0.000000  0.181818      8.000000
  0.181818  0.090909  0.181818      8.000000
  0.272727  0.090909  0.181818     16.000000
  0.363636  0.090909  0.181818     16.000000
  0.454545  0.090909  0.181818     16.000000
  0.181818  0.181818  0.181818      8.000000
  0.272727  0.181818  0.181818     16.000000
  0.363636  0.181818  0.181818     16.000000
  0.454545  0.181818  0.181818     16.000000
  0.181818  0.272727  0.181818      8.000000
  0.272727  0.272727  0.181818     16.000000
  0.363636  0.272727  0.181818     16.000000
  0.454545  0.272727  0.181818     16.000000
  0.181818  0.363636  0.181818      8.000000
  0.272727  0.363636  0.181818     16.000000
  0.363636  0.363636  0.181818     16.000000
  0.454545  0.363636  0.181818     16.000000
  0.181818  0.454545  0.181818      8.000000
  0.272727  0.454545  0.181818     16.000000
  0.363636  0.454545  0.181818     16.000000
  0.454545  0.454545  0.181818     16.000000
  0.272727  0.000000  0.272727      4.000000
  0.363636 -0.000000  0.272727      8.000000
  0.454545 -0.000000  0.272727      8.000000
  0.272727  0.090909  0.272727      8.000000
  0.363636  0.090909  0.272727     16.000000
  0.454545  0.090909  0.272727     16.000000
  0.272727  0.181818  0.272727      8.000000
  0.363636  0.181818  0.272727     16.000000
  0.454545  0.181818  0.272727     16.000000
  0.272727  0.272727  0.272727      8.000000
  0.363636  0.272727  0.272727     16.000000
  0.454545  0.272727  0.272727     16.000000
  0.272727  0.363636  0.272727      8.000000
  0.363636  0.363636  0.272727     16.000000
  0.454545  0.363636  0.272727     16.000000
  0.272727  0.454545  0.272727      8.000000
  0.363636  0.454545  0.272727     16.000000
  0.454545  0.454545  0.272727     16.000000
  0.363636 -0.000000  0.363636      4.000000
  0.454545 -0.000000  0.363636      8.000000
  0.363636  0.090909  0.363636      8.000000
  0.454545  0.090909  0.363636     16.000000
  0.363636  0.181818  0.363636      8.000000
  0.454545  0.181818  0.363636     16.000000
  0.363636  0.272727  0.363636      8.000000
  0.454545  0.272727  0.363636     16.000000
  0.363636  0.363636  0.363636      8.000000
  0.454545  0.363636  0.363636     16.000000
  0.363636  0.454545  0.363636      8.000000
  0.454545  0.454545  0.363636     16.000000
  0.454545  0.000000  0.454545      4.000000
  0.454545  0.090909  0.454545      8.000000
  0.454545  0.181818  0.454545      8.000000
  0.454545  0.272727  0.454545      8.000000
  0.454545  0.363636  0.454545      8.000000
  0.454545  0.454545  0.454545      8.000000
 
 Following cartesian coordinates:
            Coordinates               Weight
  0.000000  0.000000  0.000000      1.000000
  0.036706  0.000000  0.000000      4.000000
  0.073411  0.000000  0.000000      4.000000
  0.110117  0.000000  0.000000      4.000000
  0.146823  0.000000  0.000000      4.000000
  0.183529  0.000000  0.000000      4.000000
  0.000000  0.010596  0.007493      2.000000
  0.036706  0.010596  0.007493      8.000000
  0.073411  0.010596  0.007493      8.000000
  0.110117  0.010596  0.007493      8.000000
  0.146823  0.010596  0.007493      8.000000
  0.183529  0.010596  0.007493      8.000000
  0.000000  0.021192  0.014985      2.000000
  0.036706  0.021192  0.014985      8.000000
  0.073411  0.021192  0.014985      8.000000
  0.110117  0.021192  0.014985      8.000000
  0.146823  0.021192  0.014985      8.000000
  0.183529  0.021192  0.014985      8.000000
  0.000000  0.031788  0.022478      2.000000
  0.036706  0.031788  0.022478      8.000000
  0.073411  0.031788  0.022478      8.000000
  0.110117  0.031788  0.022478      8.000000
  0.146823  0.031788  0.022478      8.000000
  0.183529  0.031788  0.022478      8.000000
  0.000000  0.042384  0.029970      2.000000
  0.036706  0.042384  0.029970      8.000000
  0.073411  0.042384  0.029970      8.000000
  0.110117  0.042384  0.029970      8.000000
  0.146823  0.042384  0.029970      8.000000
  0.183529  0.042384  0.029970      8.000000
  0.000000  0.052980  0.037463      2.000000
  0.036706  0.052980  0.037463      8.000000
  0.073411  0.052980  0.037463      8.000000
  0.110117  0.052980  0.037463      8.000000
  0.146823  0.052980  0.037463      8.000000
  0.183529  0.052980  0.037463      8.000000
  0.036706 -0.021192  0.029970      4.000000
  0.073411 -0.021192  0.029970      8.000000
  0.110117 -0.021192  0.029970      8.000000
  0.146823 -0.021192  0.029970      8.000000
  0.183529 -0.021192  0.029970      8.000000
  0.036706 -0.010596  0.037463      8.000000
  0.073411 -0.010596  0.037463     16.000000
  0.110117 -0.010596  0.037463     16.000000
  0.146823 -0.010596  0.037463     16.000000
  0.183529 -0.010596  0.037463     16.000000
  0.036706  0.000000  0.044955      8.000000
  0.073411  0.000000  0.044955     16.000000
  0.110117  0.000000  0.044955     16.000000
  0.146823  0.000000  0.044955     16.000000
  0.183529  0.000000  0.044955     16.000000
  0.036706  0.010596  0.052448      8.000000
  0.073411  0.010596  0.052448     16.000000
  0.110117  0.010596  0.052448     16.000000
  0.146823  0.010596  0.052448     16.000000
  0.183529  0.010596  0.052448     16.000000
  0.036706  0.021192  0.059940      8.000000
  0.073411  0.021192  0.059940     16.000000
  0.110117  0.021192  0.059940     16.000000
  0.146823  0.021192  0.059940     16.000000
  0.183529  0.021192  0.059940     16.000000
  0.036706  0.031788  0.067433      8.000000
  0.073411  0.031788  0.067433     16.000000
  0.110117  0.031788  0.067433     16.000000
  0.146823  0.031788  0.067433     16.000000
  0.183529  0.031788  0.067433     16.000000
  0.073411 -0.042384  0.059940      4.000000
  0.110117 -0.042384  0.059940      8.000000
  0.146823 -0.042384  0.059940      8.000000
  0.183529 -0.042384  0.059940      8.000000
  0.073411 -0.031788  0.067433      8.000000
  0.110117 -0.031788  0.067433     16.000000
  0.146823 -0.031788  0.067433     16.000000
  0.183529 -0.031788  0.067433     16.000000
  0.073411 -0.021192  0.074925      8.000000
  0.110117 -0.021192  0.074925     16.000000
  0.146823 -0.021192  0.074925     16.000000
  0.183529 -0.021192  0.074925     16.000000
  0.073411 -0.010596  0.082418      8.000000
  0.110117 -0.010596  0.082418     16.000000
  0.146823 -0.010596  0.082418     16.000000
  0.183529 -0.010596  0.082418     16.000000
  0.073411  0.000000  0.089910      8.000000
  0.110117  0.000000  0.089910     16.000000
  0.146823  0.000000  0.089910     16.000000
  0.183529  0.000000  0.089910     16.000000
  0.073411  0.010596  0.097403      8.000000
  0.110117  0.010596  0.097403     16.000000
  0.146823  0.010596  0.097403     16.000000
  0.183529  0.010596  0.097403     16.000000
  0.110117 -0.063576  0.089910      4.000000
  0.146823 -0.063576  0.089910      8.000000
  0.183529 -0.063576  0.089910      8.000000
  0.110117 -0.052980  0.097403      8.000000
  0.146823 -0.052980  0.097403     16.000000
  0.183529 -0.052980  0.097403     16.000000
  0.110117 -0.042384  0.104895      8.000000
  0.146823 -0.042384  0.104895     16.000000
  0.183529 -0.042384  0.104895     16.000000
  0.110117 -0.031788  0.112388      8.000000
  0.146823 -0.031788  0.112388     16.000000
  0.183529 -0.031788  0.112388     16.000000
  0.110117 -0.021192  0.119880      8.000000
  0.146823 -0.021192  0.119880     16.000000
  0.183529 -0.021192  0.119880     16.000000
  0.110117 -0.010596  0.127373      8.000000
  0.146823 -0.010596  0.127373     16.000000
  0.183529 -0.010596  0.127373     16.000000
  0.146823 -0.084768  0.119880      4.000000
  0.183529 -0.084768  0.119880      8.000000
  0.146823 -0.074172  0.127373      8.000000
  0.183529 -0.074172  0.127373     16.000000
  0.146823 -0.063576  0.134865      8.000000
  0.183529 -0.063576  0.134865     16.000000
  0.146823 -0.052980  0.142358      8.000000
  0.183529 -0.052980  0.142358     16.000000
  0.146823 -0.042384  0.149851      8.000000
  0.183529 -0.042384  0.149851     16.000000
  0.146823 -0.031788  0.157343      8.000000
  0.183529 -0.031788  0.157343     16.000000
  0.183529 -0.105960  0.149851      4.000000
  0.183529 -0.095364  0.157343      8.000000
  0.183529 -0.084768  0.164836      8.000000
  0.183529 -0.074172  0.172328      8.000000
  0.183529 -0.063576  0.179821      8.000000
  0.183529 -0.052980  0.187313      8.000000
 


--------------------------------------------------------------------------------------------------------




 Dimension of arrays:
   k-points           NKPTS =    126   k-points in BZ     NKDIM =    126   number of bands    NBANDS=     24
   number of dos      NEDOS =    301   number of ions     NIONS =      4
   non local maximal  LDIM  =      6   non local SUM 2l+1 LMDIM =     18
   total plane-waves  NPLWV =  17496
   max r-space proj   IRMAX =      1   max aug-charges    IRDMAX=  13396
   dimension x,y,z NGX =    18 NGY =   54 NGZ =   18
   dimension x,y,z NGXF=    36 NGYF=  108 NGZF=   36
   support grid    NGXF=    36 NGYF=  108 NGZF=   36
   ions per type =               4
   NGX,Y,Z   is equivalent  to a cutoff of  12.08, 12.82, 12.08 a.u.
   NGXF,Y,Z  is equivalent  to a cutoff of  24.16, 25.63, 24.16 a.u.

 SYSTEM =  unknown system                          
 POSCAR =  Ni1 str #: 6                            

 Startparameter for this run:
   NWRITE =      2    write-flag & timer
   PREC   = accura    normal or accurate (medium, high low for compatibility)
   ISTART =      0    job   : 0-new  1-cont  2-samecut
   ICHARG =      2    charge: 1-file 2-atom 10-const
   ISPIN  =      2    spin polarized calculation?
   LNONCOLLINEAR =      F non collinear calculations
   LSORBIT =      F    spin-orbit coupling
   INIWAV =      1    electr: 0-lowe 1-rand  2-diag
   LASPH  =      T    aspherical Exc in radial PAW
   METAGGA=      F    non-selfconsistent MetaGGA calc.

 Electronic Relaxation 1
   ENCUT  =  520.0 eV  38.22 Ry    6.18 a.u.   4.61 13.02  4.61*2*pi/ulx,y,z
   ENINI  =  520.0     initial cutoff
   ENAUG  =  544.6 eV  augmentation charge cutoff
   NELM   =     60;   NELMIN=  2; NELMDL= -5     # of ELM steps 
   EDIFF  = 0.1E-05   stopping-criterion for ELM
   LREAL  =      F    real-space projection
   NLSPLINE    = F    spline interpolate recip. space projectors
   LCOMPAT=      F    compatible to vasp.4.4
   GGA_COMPAT  = T    GGA compatible to vasp.4.4-vasp.4.6
   LMAXPAW     = -100 max onsite density
   LMAXMIX     =    2 max onsite mixed and CHGCAR
   VOSKOWN=      0    Vosko Wilk Nusair interpolation
   ROPT   =    0.00000
 Ionic relaxation
   EDIFFG = 0.1E-04   stopping-criterion for IOM
   NSW    =      0    number of steps for IOM
   NBLOCK =      1;   KBLOCK =      1    inner block; outer block 
   IBRION =     -1    ionic relax: 0-MD 1-quasi-New 2-CG
   NFREE  =      1    steps in history (QN), initial steepest desc. (CG)
   ISIF   =      2    stress and relaxation
   IWAVPR =     10    prediction:  0-non 1-charg 2-wave 3-comb
   ISYM   =      2    0-nonsym 1-usesym 2-fastsym
   LCORR  =      T    Harris-Foulkes like correction to forces

   POTIM  = 0.5000    time-step for ionic-motion
   TEIN   =    0.0    initial temperature
   TEBEG  =    0.0;   TEEND  =   0.0 temperature during run
   SMASS  =  -3.00    Nose mass-parameter (am)
   estimated Nose-frequenzy (Omega)   =  0.10E-29 period in steps =****** mass=  -0.140E-27a.u.
   SCALEE = 1.0000    scale energy and forces
   NPACO  =    256;   APACO  = 16.0  distance and # of slots for P.C.
   PSTRESS=    0.0 pullay stress

  Mass of Ions in am
   POMASS =  58.69
  Ionic Valenz
   ZVAL   =  10.00
  Atomic Wigner-Seitz radii
   RWIGS  =  -1.00
  virtual crystal weights 
   VCA    =   1.00
   NELECT =      40.0000    total number of electrons
   NUPDOWN=      -1.0000    fix difference up-down

 DOS related values:
   EMIN   =  10.00;   EMAX   =-10.00  energy-range for DOS
   EFERMI =   0.00
   ISMEAR =     1;   SIGMA  =   0.20  broadening in eV -4-tet -1-fermi 0-gaus

 Electronic relaxation 2 (details)
   IALGO  =     38    algorithm
   LDIAG  =      T    sub-space diagonalisation (order eigenvalues)
   LSUBROT=      F    optimize rotation matrix (better conditioning)
   TURBO    =      0    0=normal 1=particle mesh
   IRESTART =      0    0=no restart 2=restart with 2 vectors
   NREBOOT  =      0    no. of reboots
   NMIN     =      0    reboot dimension
   EREF     =   0.00    reference energy to select bands
   IMIX   =      4    mixing-type and parameters
     AMIX     =   0.40;   BMIX     =  1.00
     AMIX_MAG =   1.60;   BMIX_MAG =  1.00
     AMIN     =   0.10
     WC   =   100.;   INIMIX=   1;  MIXPRE=   1;  MAXMIX= -45

 Intra band minimization:
   WEIMIN = 0.0000     energy-eigenvalue tresh-hold
   EBREAK =  0.10E-07  absolut break condition
   DEPER  =   0.30     relativ break condition  

   TIME   =   0.40     timestep for ELM

  volume/ion in A,a.u.               =      10.74        72.49
  Fermi-wavevector in a.u.,A,eV,Ry     =   1.598477  3.020684 34.764640  2.555129
  Thomas-Fermi vector in A             =   2.695921
 
 Write flags
   LWAVE        =      F    write WAVECAR
   LDOWNSAMPLE  =      F    k-point downsampling of WAVECAR
   LCHARG       =      F    write CHGCAR
   LVTOT        =      F    write LOCPOT, total local potential
   LVHAR        =      F    write LOCPOT, Hartree potential only
   LELF         =      F    write electronic localiz. function (ELF)
   LORBIT       =     11    0 simple, 1 ext, 2 COOP (PROOUT), +10 PAW based schemes


 Dipole corrections
   LMONO  =      F    monopole corrections only (constant potential shift)
   LDIPOL =      F    correct potential (dipole corrections)
   IDIPOL =      0    1-x, 2-y, 3-z, 4-all directions 
   EPSILON=  1.0000000 bulk dielectric constant

 Exchange correlation treatment:
   GGA     =    --    GGA type
   LEXCH   =     8    internal setting for exchange type
   VOSKOWN=      0    Vosko Wilk Nusair interpolation
   LHFCALC =     F    Hartree Fock is set to
   LHFONE  =     F    Hartree Fock one center treatment
   AEXX    =    0.0000 exact exchange contribution

 Linear response parameters
   LEPSILON=     F    determine dielectric tensor
   LRPA    =     F    only Hartree local field effects (RPA)
   LNABLA  =     F    use nabla operator in PAW spheres
   LVEL    =     F    velocity operator in full k-point grid
   LINTERFAST=   F  fast interpolation
   KINTER  =     0    interpolate to denser k-point grid
   CSHIFT  =0.1000    complex shift for real part using Kramers Kronig
   OMEGAMAX=  -1.0    maximum frequency
   DEG_THRESHOLD= 0.2000000E-02 threshold for treating states as degnerate
   RTIME   =   -0.100 relaxation time in fs
  (WPLASMAI=    0.000 imaginary part of plasma frequency in eV, 0.658/RTIME)
   DFIELD  = 0.0000000 0.0000000 0.0000000 field for delta impulse in time
 
 Orbital magnetization related:
   ORBITALMAG=     F  switch on orbital magnetization
   LCHIMAG   =     F  perturbation theory with respect to B field
   DQ        =  0.001000  dq finite difference perturbation B field
   LLRAUG    =     F  two centre corrections for induced B field



--------------------------------------------------------------------------------------------------------


 Static calculation
 charge density and potential will be updated during run
 spin polarized calculation
 Variant of blocked Davidson
 Davidson routine will perform the subspace rotation
 perform sub-space diagonalisation
    after iterative eigenvector-optimisation
 modified Broyden-mixing scheme, WC =      100.0
 initial mixing is a Kerker type mixing with AMIX =  0.4000 and BMIX =      1.0000
 Hartree-type preconditioning will be used
 using additional bands            4
 reciprocal scheme for non local part
 use partial core corrections
 calculate Harris-corrections to forces 
   (improved forces if not selfconsistent)
 use gradient corrections 
 use of overlap-Matrix (Vanderbilt PP)
 Methfessel and Paxton  Order N= 1 SIGMA  =   0.20


--------------------------------------------------------------------------------------------------------


  energy-cutoff  :      520.00
  volume of cell :       42.97
      direct lattice vectors                 reciprocal lattice vectors
     2.476700100  0.000000000  0.000000000     0.403763056  0.000000009  0.000000007
    -0.000000200  5.719693860  4.044434200     0.000000000  0.116556355  0.082417791
     0.000000000 -1.429923470  2.022217100     0.000000000 -0.233112709  0.329671164

  length of vectors
     2.476700100  7.005165655  2.476700048     0.403763056  0.142751799  0.403763064


 
 k-points in units of 2pi/SCALE and weight: k-points                                
   0.00000000  0.00000000  0.00000000       0.001
   0.03670573  0.00000000  0.00000000       0.003
   0.07341146  0.00000000  0.00000000       0.003
   0.11011720  0.00000000  0.00000000       0.003
   0.14682293  0.00000000  0.00000000       0.003
   0.18352866  0.00000000  0.00000000       0.003
   0.00000000  0.01059603  0.00749253       0.002
   0.03670573  0.01059603  0.00749253       0.006
   0.07341146  0.01059603  0.00749253       0.006
   0.11011720  0.01059603  0.00749253       0.006
   0.14682293  0.01059604  0.00749253       0.006
   0.18352866  0.01059604  0.00749253       0.006
   0.00000000  0.02119206  0.01498505       0.002
   0.03670573  0.02119207  0.01498505       0.006
   0.07341146  0.02119207  0.01498505       0.006
   0.11011720  0.02119207  0.01498505       0.006
   0.14682293  0.02119207  0.01498506       0.006
   0.18352866  0.02119207  0.01498506       0.006
   0.00000000  0.03178810  0.02247758       0.002
   0.03670573  0.03178810  0.02247758       0.006
   0.07341146  0.03178810  0.02247758       0.006
   0.11011720  0.03178810  0.02247758       0.006
   0.14682293  0.03178810  0.02247758       0.006
   0.18352866  0.03178810  0.02247758       0.006
   0.00000000  0.04238413  0.02997011       0.002
   0.03670573  0.04238413  0.02997011       0.006
   0.07341146  0.04238413  0.02997011       0.006
   0.11011720  0.04238413  0.02997011       0.006
   0.14682293  0.04238413  0.02997011       0.006
   0.18352866  0.04238413  0.02997011       0.006
   0.00000000  0.05298016  0.03746263       0.002
   0.03670573  0.05298016  0.03746263       0.006
   0.07341146  0.05298016  0.03746263       0.006
   0.11011720  0.05298016  0.03746263       0.006
   0.14682293  0.05298016  0.03746263       0.006
   0.18352866  0.05298017  0.03746264       0.006
   0.03670573 -0.02119206  0.02997011       0.003
   0.07341146 -0.02119206  0.02997011       0.006
   0.11011720 -0.02119206  0.02997011       0.006
   0.14682293 -0.02119206  0.02997011       0.006
   0.18352866 -0.02119206  0.02997011       0.006
   0.03670573 -0.01059603  0.03746263       0.006
   0.07341146 -0.01059603  0.03746263       0.012
   0.11011720 -0.01059603  0.03746263       0.012
   0.14682293 -0.01059603  0.03746263       0.012
   0.18352866 -0.01059603  0.03746264       0.012
   0.03670573  0.00000000  0.04495516       0.006
   0.07341146  0.00000000  0.04495516       0.012
   0.11011720  0.00000000  0.04495516       0.012
   0.14682293  0.00000000  0.04495516       0.012
   0.18352866  0.00000000  0.04495516       0.012
   0.03670573  0.01059603  0.05244769       0.006
   0.07341146  0.01059603  0.05244769       0.012
   0.11011720  0.01059603  0.05244769       0.012
   0.14682293  0.01059604  0.05244769       0.012
   0.18352866  0.01059604  0.05244769       0.012
   0.03670573  0.02119207  0.05994021       0.006
   0.07341146  0.02119207  0.05994021       0.012
   0.11011720  0.02119207  0.05994021       0.012
   0.14682293  0.02119207  0.05994021       0.012
   0.18352866  0.02119207  0.05994021       0.012
   0.03670573  0.03178810  0.06743274       0.006
   0.07341146  0.03178810  0.06743274       0.012
   0.11011720  0.03178810  0.06743274       0.012
   0.14682293  0.03178810  0.06743274       0.012
   0.18352866  0.03178810  0.06743274       0.012
   0.07341146 -0.04238413  0.05994021       0.003
   0.11011720 -0.04238413  0.05994021       0.006
   0.14682293 -0.04238413  0.05994021       0.006
   0.18352866 -0.04238412  0.05994021       0.006
   0.07341146 -0.03178810  0.06743274       0.006
   0.11011720 -0.03178809  0.06743274       0.012
   0.14682293 -0.03178809  0.06743274       0.012
   0.18352866 -0.03178809  0.06743274       0.012
   0.07341146 -0.02119206  0.07492527       0.006
   0.11011720 -0.02119206  0.07492527       0.012
   0.14682293 -0.02119206  0.07492527       0.012
   0.18352866 -0.02119206  0.07492527       0.012
   0.07341146 -0.01059603  0.08241779       0.006
   0.11011720 -0.01059603  0.08241779       0.012
   0.14682293 -0.01059603  0.08241779       0.012
   0.18352866 -0.01059603  0.08241779       0.012
   0.07341146  0.00000000  0.08991032       0.006
   0.11011720  0.00000000  0.08991032       0.012
   0.14682293  0.00000000  0.08991032       0.012
   0.18352866  0.00000000  0.08991032       0.012
   0.07341146  0.01059603  0.09740285       0.006
   0.11011720  0.01059603  0.09740285       0.012
   0.14682293  0.01059604  0.09740285       0.012
   0.18352866  0.01059604  0.09740285       0.012
   0.11011720 -0.06357619  0.08991032       0.003
   0.14682293 -0.06357619  0.08991032       0.006
   0.18352866 -0.06357619  0.08991032       0.006
   0.11011720 -0.05298016  0.09740285       0.006
   0.14682293 -0.05298016  0.09740285       0.012
   0.18352866 -0.05298016  0.09740285       0.012
   0.11011720 -0.04238413  0.10489537       0.006
   0.14682293 -0.04238413  0.10489537       0.012
   0.18352866 -0.04238412  0.10489537       0.012
   0.11011720 -0.03178809  0.11238790       0.006
   0.14682293 -0.03178809  0.11238790       0.012
   0.18352866 -0.03178809  0.11238790       0.012
   0.11011720 -0.02119206  0.11988043       0.006
   0.14682293 -0.02119206  0.11988043       0.012
   0.18352866 -0.02119206  0.11988043       0.012
   0.11011720 -0.01059603  0.12737295       0.006
   0.14682293 -0.01059603  0.12737295       0.012
   0.18352866 -0.01059603  0.12737295       0.012
   0.14682293 -0.08476825  0.11988043       0.003
   0.18352866 -0.08476825  0.11988043       0.006
   0.14682293 -0.07417222  0.12737295       0.006
   0.18352866 -0.07417222  0.12737295       0.012
   0.14682293 -0.06357619  0.13486548       0.006
   0.18352866 -0.06357619  0.13486548       0.012
   0.14682293 -0.05298016  0.14235801       0.006
   0.18352866 -0.05298016  0.14235801       0.012
   0.14682293 -0.04238413  0.14985053       0.006
   0.18352866 -0.04238412  0.14985053       0.012
   0.14682293 -0.03178809  0.15734306       0.006
   0.18352866 -0.03178809  0.15734306       0.012
   0.18352866 -0.10596032  0.14985053       0.003
   0.18352866 -0.09536429  0.15734306       0.006
   0.18352866 -0.08476825  0.16483559       0.006
   0.18352866 -0.07417222  0.17232811       0.006
   0.18352866 -0.06357619  0.17982064       0.006
   0.18352866 -0.05298016  0.18731316       0.006
 
 k-points in reciprocal lattice and weights: k-points                                
   0.00000000  0.00000000  0.00000000       0.001
   0.09090909 -0.00000000  0.00000000       0.003
   0.18181818 -0.00000000  0.00000000       0.003
   0.27272727  0.00000000 -0.00000000       0.003
   0.36363636 -0.00000000  0.00000000       0.003
   0.45454545  0.00000000  0.00000000       0.003
   0.00000000  0.09090909  0.00000000       0.002
   0.09090909  0.09090909  0.00000000       0.006
   0.18181818  0.09090909 -0.00000000       0.006
   0.27272727  0.09090909 -0.00000000       0.006
   0.36363636  0.09090909  0.00000000       0.006
   0.45454545  0.09090909 -0.00000000       0.006
   0.00000000  0.18181818  0.00000000       0.002
   0.09090909  0.18181818  0.00000000       0.006
   0.18181818  0.18181818  0.00000000       0.006
   0.27272727  0.18181818 -0.00000000       0.006
   0.36363636  0.18181818 -0.00000000       0.006
   0.45454545  0.18181818 -0.00000000       0.006
   0.00000000  0.27272727  0.00000000       0.002
   0.09090909  0.27272727  0.00000000       0.006
   0.18181818  0.27272727  0.00000000       0.006
   0.27272727  0.27272727  0.00000000       0.006
   0.36363636  0.27272727  0.00000000       0.006
   0.45454545  0.27272727  0.00000000       0.006
   0.00000000  0.36363636  0.00000000       0.002
   0.09090909  0.36363636  0.00000000       0.006
   0.18181818  0.36363636  0.00000000       0.006
   0.27272727  0.36363636  0.00000000       0.006
   0.36363636  0.36363636  0.00000000       0.006
   0.45454545  0.36363636  0.00000000       0.006
   0.00000000  0.45454545 -0.00000000       0.002
   0.09090909  0.45454545  0.00000000       0.006
   0.18181818  0.45454545 -0.00000000       0.006
   0.27272727  0.45454545  0.00000000       0.006
   0.36363636  0.45454545 -0.00000000       0.006
   0.45454545  0.45454545  0.00000000       0.006
   0.09090909 -0.00000000  0.09090909       0.003
   0.18181818 -0.00000000  0.09090909       0.006
   0.27272727 -0.00000000  0.09090909       0.006
   0.36363636 -0.00000000  0.09090909       0.006
   0.45454545  0.00000000  0.09090909       0.006
   0.09090909  0.09090909  0.09090909       0.006
   0.18181818  0.09090909  0.09090909       0.012
   0.27272727  0.09090909  0.09090909       0.012
   0.36363636  0.09090909  0.09090909       0.012
   0.45454545  0.09090909  0.09090909       0.012
   0.09090909  0.18181818  0.09090909       0.006
   0.18181818  0.18181818  0.09090909       0.012
   0.27272727  0.18181818  0.09090909       0.012
   0.36363636  0.18181818  0.09090909       0.012
   0.45454545  0.18181818  0.09090909       0.012
   0.09090909  0.27272727  0.09090909       0.006
   0.18181818  0.27272727  0.09090909       0.012
   0.27272727  0.27272727  0.09090909       0.012
   0.36363636  0.27272727  0.09090909       0.012
   0.45454545  0.27272727  0.09090909       0.012
   0.09090909  0.36363636  0.09090909       0.006
   0.18181818  0.36363636  0.09090909       0.012
   0.27272727  0.36363636  0.09090909       0.012
   0.36363636  0.36363636  0.09090909       0.012
   0.45454545  0.36363636  0.09090909       0.012
   0.09090909  0.45454545  0.09090909       0.006
   0.18181818  0.45454545  0.09090909       0.012
   0.27272727  0.45454545  0.09090909       0.012
   0.36363636  0.45454545  0.09090909       0.012
   0.45454545  0.45454545  0.09090909       0.012
   0.18181818 -0.00000000  0.18181818       0.003
   0.27272727 -0.00000000  0.18181818       0.006
   0.36363636 -0.00000000  0.18181818       0.006
   0.45454545 -0.00000000  0.18181818       0.006
   0.18181818  0.09090909  0.18181818       0.006
   0.27272727  0.09090909  0.18181818       0.012
   0.36363636  0.09090909  0.18181818       0.012
   0.45454545  0.09090909  0.18181818       0.012
   0.18181818  0.18181818  0.18181818       0.006
   0.27272727  0.18181818  0.18181818       0.012
   0.36363636  0.18181818  0.18181818       0.012
   0.45454545  0.18181818  0.18181818       0.012
   0.18181818  0.27272727  0.18181818       0.006
   0.27272727  0.27272727  0.18181818       0.012
   0.36363636  0.27272727  0.18181818       0.012
   0.45454545  0.27272727  0.18181818       0.012
   0.18181818  0.36363636  0.18181818       0.006
   0.27272727  0.36363636  0.18181818       0.012
   0.36363636  0.36363636  0.18181818       0.012
   0.45454545  0.36363636  0.18181818       0.012
   0.18181818  0.45454545  0.18181818       0.006
   0.27272727  0.45454545  0.18181818       0.012
   0.36363636  0.45454545  0.18181818       0.012
   0.45454545  0.45454545  0.18181818       0.012
   0.27272727  0.00000000  0.27272727       0.003
   0.36363636 -0.00000000  0.27272727       0.006
   0.45454545 -0.00000000  0.27272727       0.006
   0.27272727  0.09090909  0.27272727       0.006
   0.36363636  0.09090909  0.27272727       0.012
   0.45454545  0.09090909  0.27272727       0.012
   0.27272727  0.18181818  0.27272727       0.006
   0.36363636  0.18181818  0.27272727       0.012
   0.45454545  0.18181818  0.27272727       0.012
   0.27272727  0.27272727  0.27272727       0.006
   0.36363636  0.27272727  0.27272727       0.012
   0.45454545  0.27272727  0.27272727       0.012
   0.27272727  0.36363636  0.27272727       0.006
   0.36363636  0.36363636  0.27272727       0.012
   0.45454545  0.36363636  0.27272727       0.012
   0.27272727  0.45454545  0.27272727       0.006
   0.36363636  0.45454545  0.27272727       0.012
   0.45454545  0.45454545  0.27272727       0.012
   0.36363636 -0.00000000  0.36363636       0.003
   0.45454545 -0.00000000  0.36363636       0.006
   0.36363636  0.09090909  0.36363636       0.006
   0.45454545  0.09090909  0.36363636       0.012
   0.36363636  0.18181818  0.36363636       0.006
   0.45454545  0.18181818  0.36363636       0.012
   0.36363636  0.27272727  0.36363636       0.006
   0.45454545  0.27272727  0.36363636       0.012
   0.36363636  0.36363636  0.36363636       0.006
   0.45454545  0.36363636  0.36363636       0.012
   0.36363636  0.45454545  0.36363636       0.006
   0.45454545  0.45454545  0.36363636       0.012
   0.45454545  0.00000000  0.45454545       0.003
   0.45454545  0.09090909  0.45454545       0.006
   0.45454545  0.18181818  0.45454545       0.006
   0.45454545  0.27272727  0.45454545       0.006
   0.45454545  0.36363636  0.45454545       0.006
   0.45454545  0.45454545  0.45454545       0.006
 
 position of ions in fractional coordinates (direct lattice) 
   0.00000000  0.00000000  0.00000000
   0.50000000  0.25000000  0.50000000
   0.00000000  0.50000000  0.00000000
   0.50000000  0.75000000  0.50000000
 
 position of ions in cartesian coordinates  (Angst):
   0.00000000  0.00000000  0.00000000
   1.23835000  0.71496173  2.02221710
  -0.00000010  2.85984693  2.02221710
   1.23834990  3.57480866  4.04443420
 


--------------------------------------------------------------------------------------------------------


 k-point  1 :   0.0000 0.0000 0.0000  plane waves:    1191
 k-point  2 :   0.0909-0.0000 0.0000  plane waves:    1171
 k-point  3 :   0.1818-0.0000 0.0000  plane waves:    1159
 k-point  4 :   0.2727 0.0000-0.0000  plane waves:    1163
 k-point  5 :   0.3636-0.0000 0.0000  plane waves:    1153
 k-point  6 :   0.4545 0.0000 0.0000  plane waves:    1138
 k-point  7 :   0.0000 0.0909 0.0000  plane waves:    1186
 k-point  8 :   0.0909 0.0909 0.0000  plane waves:    1179
 k-point  9 :   0.1818 0.0909-0.0000  plane waves:    1159
 k-point 10 :   0.2727 0.0909-0.0000  plane waves:    1165
 k-point 11 :   0.3636 0.0909 0.0000  plane waves:    1149
 k-point 12 :   0.4545 0.0909-0.0000  plane waves:    1140
 k-point 13 :   0.0000 0.1818 0.0000  plane waves:    1174
 k-point 14 :   0.0909 0.1818 0.0000  plane waves:    1182
 k-point 15 :   0.1818 0.1818 0.0000  plane waves:    1167
 k-point 16 :   0.2727 0.1818-0.0000  plane waves:    1158
 k-point 17 :   0.3636 0.1818-0.0000  plane waves:    1148
 k-point 18 :   0.4545 0.1818-0.0000  plane waves:    1143
 k-point 19 :   0.0000 0.2727 0.0000  plane waves:    1186
 k-point 20 :   0.0909 0.2727 0.0000  plane waves:    1179
 k-point 21 :   0.1818 0.2727 0.0000  plane waves:    1164
 k-point 22 :   0.2727 0.2727 0.0000  plane waves:    1154
 k-point 23 :   0.3636 0.2727 0.0000  plane waves:    1152
 k-point 24 :   0.4545 0.2727 0.0000  plane waves:    1148
 k-point 25 :   0.0000 0.3636 0.0000  plane waves:    1186
 k-point 26 :   0.0909 0.3636 0.0000  plane waves:    1177
 k-point 27 :   0.1818 0.3636 0.0000  plane waves:    1170
 k-point 28 :   0.2727 0.3636 0.0000  plane waves:    1162
 k-point 29 :   0.3636 0.3636 0.0000  plane waves:    1161
 k-point 30 :   0.4545 0.3636 0.0000  plane waves:    1151
 k-point 31 :   0.0000 0.4545-0.0000  plane waves:    1170
 k-point 32 :   0.0909 0.4545 0.0000  plane waves:    1172
 k-point 33 :   0.1818 0.4545-0.0000  plane waves:    1173
 k-point 34 :   0.2727 0.4545 0.0000  plane waves:    1168
 k-point 35 :   0.3636 0.4545-0.0000  plane waves:    1160
 k-point 36 :   0.4545 0.4545 0.0000  plane waves:    1156
 k-point 37 :   0.0909-0.0000 0.0909  plane waves:    1179
 k-point 38 :   0.1818-0.0000 0.0909  plane waves:    1165
 k-point 39 :   0.2727-0.0000 0.0909  plane waves:    1152
 k-point 40 :   0.3636-0.0000 0.0909  plane waves:    1144
 k-point 41 :   0.4545 0.0000 0.0909  plane waves:    1148
 k-point 42 :   0.0909 0.0909 0.0909  plane waves:    1177
 k-point 43 :   0.1818 0.0909 0.0909  plane waves:    1162
 k-point 44 :   0.2727 0.0909 0.0909  plane waves:    1153
 k-point 45 :   0.3636 0.0909 0.0909  plane waves:    1148
 k-point 46 :   0.4545 0.0909 0.0909  plane waves:    1144
 k-point 47 :   0.0909 0.1818 0.0909  plane waves:    1175
 k-point 48 :   0.1818 0.1818 0.0909  plane waves:    1165
 k-point 49 :   0.2727 0.1818 0.0909  plane waves:    1159
 k-point 50 :   0.3636 0.1818 0.0909  plane waves:    1150
 k-point 51 :   0.4545 0.1818 0.0909  plane waves:    1145
 k-point 52 :   0.0909 0.2727 0.0909  plane waves:    1170
 k-point 53 :   0.1818 0.2727 0.0909  plane waves:    1168
 k-point 54 :   0.2727 0.2727 0.0909  plane waves:    1165
 k-point 55 :   0.3636 0.2727 0.0909  plane waves:    1154
 k-point 56 :   0.4545 0.2727 0.0909  plane waves:    1147
 k-point 57 :   0.0909 0.3636 0.0909  plane waves:    1170
 k-point 58 :   0.1818 0.3636 0.0909  plane waves:    1170
 k-point 59 :   0.2727 0.3636 0.0909  plane waves:    1167
 k-point 60 :   0.3636 0.3636 0.0909  plane waves:    1163
 k-point 61 :   0.4545 0.3636 0.0909  plane waves:    1146
 k-point 62 :   0.0909 0.4545 0.0909  plane waves:    1173
 k-point 63 :   0.1818 0.4545 0.0909  plane waves:    1168
 k-point 64 :   0.2727 0.4545 0.0909  plane waves:    1168
 k-point 65 :   0.3636 0.4545 0.0909  plane waves:    1164
 k-point 66 :   0.4545 0.4545 0.0909  plane waves:    1150
 k-point 67 :   0.1818-0.0000 0.1818  plane waves:    1163
 k-point 68 :   0.2727-0.0000 0.1818  plane waves:    1160
 k-point 69 :   0.3636-0.0000 0.1818  plane waves:    1152
 k-point 70 :   0.4545-0.0000 0.1818  plane waves:    1159
 k-point 71 :   0.1818 0.0909 0.1818  plane waves:    1166
 k-point 72 :   0.2727 0.0909 0.1818  plane waves:    1158
 k-point 73 :   0.3636 0.0909 0.1818  plane waves:    1157
 k-point 74 :   0.4545 0.0909 0.1818  plane waves:    1157
 k-point 75 :   0.1818 0.1818 0.1818  plane waves:    1165
 k-point 76 :   0.2727 0.1818 0.1818  plane waves:    1162
 k-point 77 :   0.3636 0.1818 0.1818  plane waves:    1155
 k-point 78 :   0.4545 0.1818 0.1818  plane waves:    1158
 k-point 79 :   0.1818 0.2727 0.1818  plane waves:    1169
 k-point 80 :   0.2727 0.2727 0.1818  plane waves:    1160
 k-point 81 :   0.3636 0.2727 0.1818  plane waves:    1149
 k-point 82 :   0.4545 0.2727 0.1818  plane waves:    1153
 k-point 83 :   0.1818 0.3636 0.1818  plane waves:    1166
 k-point 84 :   0.2727 0.3636 0.1818  plane waves:    1160
 k-point 85 :   0.3636 0.3636 0.1818  plane waves:    1149
 k-point 86 :   0.4545 0.3636 0.1818  plane waves:    1143
 k-point 87 :   0.1818 0.4545 0.1818  plane waves:    1163
 k-point 88 :   0.2727 0.4545 0.1818  plane waves:    1154
 k-point 89 :   0.3636 0.4545 0.1818  plane waves:    1152
 k-point 90 :   0.4545 0.4545 0.1818  plane waves:    1147
 k-point 91 :   0.2727 0.0000 0.2727  plane waves:    1148
 k-point 92 :   0.3636-0.0000 0.2727  plane waves:    1157
 k-point 93 :   0.4545-0.0000 0.2727  plane waves:    1154
 k-point 94 :   0.2727 0.0909 0.2727  plane waves:    1151
 k-point 95 :   0.3636 0.0909 0.2727  plane waves:    1156
 k-point 96 :   0.4545 0.0909 0.2727  plane waves:    1156
 k-point 97 :   0.2727 0.1818 0.2727  plane waves:    1152
 k-point 98 :   0.3636 0.1818 0.2727  plane waves:    1153
 k-point 99 :   0.4545 0.1818 0.2727  plane waves:    1159
 k-point ** :   0.2727 0.2727 0.2727  plane waves:    1156
 k-point ** :   0.3636 0.2727 0.2727  plane waves:    1154
 k-point ** :   0.4545 0.2727 0.2727  plane waves:    1154
 k-point ** :   0.2727 0.3636 0.2727  plane waves:    1146
 k-point ** :   0.3636 0.3636 0.2727  plane waves:    1154
 k-point ** :   0.4545 0.3636 0.2727  plane waves:    1154
 k-point ** :   0.2727 0.4545 0.2727  plane waves:    1142
 k-point ** :   0.3636 0.4545 0.2727  plane waves:    1150
 k-point ** :   0.4545 0.4545 0.2727  plane waves:    1154
 k-point ** :   0.3636-0.0000 0.3636  plane waves:    1144
 k-point ** :   0.4545-0.0000 0.3636  plane waves:    1143
 k-point ** :   0.3636 0.0909 0.3636  plane waves:    1144
 k-point ** :   0.4545 0.0909 0.3636  plane waves:    1144
 k-point ** :   0.3636 0.1818 0.3636  plane waves:    1149
 k-point ** :   0.4545 0.1818 0.3636  plane waves:    1148
 k-point ** :   0.3636 0.2727 0.3636  plane waves:    1153
 k-point ** :   0.4545 0.2727 0.3636  plane waves:    1154
 k-point ** :   0.3636 0.3636 0.3636  plane waves:    1152
 k-point ** :   0.4545 0.3636 0.3636  plane waves:    1152
 k-point ** :   0.3636 0.4545 0.3636  plane waves:    1158
 k-point ** :   0.4545 0.4545 0.3636  plane waves:    1154
 k-point ** :   0.4545 0.0000 0.4545  plane waves:    1160
 k-point ** :   0.4545 0.0909 0.4545  plane waves:    1162
 k-point ** :   0.4545 0.1818 0.4545  plane waves:    1155
 k-point ** :   0.4545 0.2727 0.4545  plane waves:    1149
 k-point ** :   0.4545 0.3636 0.4545  plane waves:    1150
 k-point ** :   0.4545 0.4545 0.4545  plane waves:    1153

 maximum and minimum number of plane-waves per node :      1191     1138

 maximum number of plane-waves:      1191
 maximum index in each direction: 
   IXMAX=    4   IYMAX=   13   IZMAX=    4
   IXMIN=   -5   IYMIN=  -13   IZMIN=   -5


 serial   3D FFT for wavefunctions
 parallel 3D FFT for charge:
    minimum data exchange during FFTs selected (reduces bandwidth)


 total amount of memory used by VASP MPI-rank0    70758. kBytes
=======================================================================

   base      :      30000. kBytes
   nonl-proj :      21703. kBytes
   fftplans  :        752. kBytes
   grid      :       2890. kBytes
   one-center:        124. kBytes
   wavefun   :      15289. kBytes
 
     INWAV:  cpu time    0.0000: real time    0.0001
 Broyden mixing: mesh for mixing (old mesh)
   NGX =  9   NGY = 27   NGZ =  9
  (NGX  = 36   NGY  =108   NGZ  = 36)
  gives a total of   2187 points

 initial charge density was supplied:
 charge density of overlapping atoms calculated
 number of electron      40.0000000 magnetization       0.0000000
 keeping initial charge density in first step


--------------------------------------------------------------------------------------------------------


 Maximum index for augmentation-charges         1964 (set IRDMAX)


--------------------------------------------------------------------------------------------------------


 First call to EWALD:  gamma=   0.506
 Maximum number of real-space cells 4x 2x 4
 Maximum number of reciprocal cells 2x 5x 2

    FEWALD:  cpu time    0.0013: real time    0.0013


--------------------------------------- Iteration      1(   1)  ---------------------------------------


    POTLOK:  cpu time    0.0264: real time    0.0301
    SETDIJ:  cpu time    0.5399: real time    0.5412
     EDDAV:  cpu time    2.4485: real time    2.4613
       DOS:  cpu time    0.0033: real time    0.0033
    --------------------------------------------
      LOOP:  cpu time    3.0181: real time    3.0359

 eigenvalue-minimisations  : 12296
 total energy-change (2. order) : 0.2498481E+03  (-0.1858057E+04)
 number of electron      40.0000000 magnetization       0.0000000
 augmentation part       40.0000000 magnetization       0.0000000

 Free energy of the ion-electron system (eV)
  ---------------------------------------------------
  alpha Z        PSCENC =       189.89774773
  Ewald energy   TEWEN  =     -3769.84881827
  -Hartree energ DENC   =      -972.41975722
  -exchange      EXHF   =         0.00000000
  -V(xc)+E(xc)   XCENC  =       127.25017179
  PAW double counting   =      3851.33269441    -4118.68284910
  entropy T*S    EENTRO =        -0.00182925
  eigenvalues    EBANDS =       631.63703474
  atomic energy  EATOM  =      4310.68367761
  Solvation  Ediel_sol  =         0.00000000
  ---------------------------------------------------
  free energy    TOTEN  =       249.84807244 eV

  energy without entropy =      249.84990169  energy(sigma->0) =      249.84868219


--------------------------------------------------------------------------------------------------------




--------------------------------------- Iteration      1(   2)  ---------------------------------------


     EDDAV:  cpu time    2.4426: real time    2.4508
       DOS:  cpu time    0.0041: real time    0.0041
    --------------------------------------------
      LOOP:  cpu time    2.4467: real time    2.4549

 eigenvalue-minimisations  : 12504
 total energy-change (2. order) :-0.2616162E+03  (-0.2562832E+03)
 number of electron      40.0000000 magnetization       0.0000000
 augmentation part       40.0000000 magnetization       0.0000000

 Free energy of the ion-electron system (eV)
  ---------------------------------------------------
  alpha Z        PSCENC =       189.89774773
  Ewald energy   TEWEN  =     -3769.84881827
  -Hartree energ DENC   =      -972.41975722
  -exchange      EXHF   =         0.00000000
  -V(xc)+E(xc)   XCENC  =       127.25017179
  PAW double counting   =      3851.33269441    -4118.68284910
  entropy T*S    EENTRO =         0.00245340
  eigenvalues    EBANDS =       370.01654149
  atomic energy  EATOM  =      4310.68367761
  Solvation  Ediel_sol  =         0.00000000
  ---------------------------------------------------
  free energy    TOTEN  =       -11.76813816 eV

  energy without entropy =      -11.77059156  energy(sigma->0) =      -11.76895596


--------------------------------------------------------------------------------------------------------




--------------------------------------- Iteration      1(   3)  ---------------------------------------


     EDDAV:  cpu time    2.4800: real time    2.4859
       DOS:  cpu time    0.0046: real time    0.0046
    --------------------------------------------
      LOOP:  cpu time    2.4845: real time    2.4904

 eigenvalue-minimisations  : 12704
 total energy-change (2. order) :-0.1372842E+02  (-0.1336279E+02)
 number of electron      40.0000000 magnetization       0.0000000
 augmentation part       40.0000000 magnetization       0.0000000

 Free energy of the ion-electron system (eV)
  ---------------------------------------------------
  alpha Z        PSCENC =       189.89774773
  Ewald energy   TEWEN  =     -3769.84881827
  -Hartree energ DENC   =      -972.41975722
  -exchange      EXHF   =         0.00000000
  -V(xc)+E(xc)   XCENC  =       127.25017179
  PAW double counting   =      3851.33269441    -4118.68284910
  entropy T*S    EENTRO =        -0.01312460
  eigenvalues    EBANDS =       356.30370265
  atomic energy  EATOM  =      4310.68367761
  Solvation  Ediel_sol  =         0.00000000
  ---------------------------------------------------
  free energy    TOTEN  =       -25.49655500 eV

  energy without entropy =      -25.48343039  energy(sigma->0) =      -25.49218013


--------------------------------------------------------------------------------------------------------




--------------------------------------- Iteration      1(   4)  ---------------------------------------


     EDDAV:  cpu time    2.5781: real time    2.5844
       DOS:  cpu time    0.0044: real time    0.0045
    --------------------------------------------
      LOOP:  cpu time    2.5826: real time    2.5889

 eigenvalue-minimisations  : 13400
 total energy-change (2. order) :-0.2395985E+00  (-0.2369511E+00)
 number of electron      40.0000000 magnetization       0.0000000
 augmentation part       40.0000000 magnetization       0.0000000

 Free energy of the ion-electron system (eV)
  ---------------------------------------------------
  alpha Z        PSCENC =       189.89774773
  Ewald energy   TEWEN  =     -3769.84881827
  -Hartree energ DENC   =      -972.41975722
  -exchange      EXHF   =         0.00000000
  -V(xc)+E(xc)   XCENC  =       127.25017179
  PAW double counting   =      3851.33269441    -4118.68284910
  entropy T*S    EENTRO =        -0.01258914
  eigenvalues    EBANDS =       356.06356865
  atomic energy  EATOM  =      4310.68367761
  Solvation  Ediel_sol  =         0.00000000
  ---------------------------------------------------
  free energy    TOTEN  =       -25.73615354 eV

  energy without entropy =      -25.72356440  energy(sigma->0) =      -25.73195716


--------------------------------------------------------------------------------------------------------




--------------------------------------- Iteration      1(   5)  ---------------------------------------


     EDDAV:  cpu time    2.7123: real time    2.7188
       DOS:  cpu time    0.0045: real time    0.0045
    CHARGE:  cpu time    0.2042: real time    0.2047
    MIXING:  cpu time    0.0007: real time    0.0007
    --------------------------------------------
      LOOP:  cpu time    2.9217: real time    2.9287

 eigenvalue-minimisations  : 14552
 total energy-change (2. order) :-0.6426217E-02  (-0.6425498E-02)
 number of electron      40.0000082 magnetization      -0.0000000
 augmentation part       22.4366155 magnetization      -0.0000000

 Broyden mixing:
  rms(total) = 0.20115E+01    rms(broyden)= 0.20115E+01
  rms(prec ) = 0.26824E+01
  weight for this iteration     100.00

 Free energy of the ion-electron system (eV)
  ---------------------------------------------------
  alpha Z        PSCENC =       189.89774773
  Ewald energy   TEWEN  =     -3769.84881827
  -Hartree energ DENC   =      -972.41975722
  -exchange      EXHF   =         0.00000000
  -V(xc)+E(xc)   XCENC  =       127.25017179
  PAW double counting   =      3851.33269441    -4118.68284910
  entropy T*S    EENTRO =        -0.01254222
  eigenvalues    EBANDS =       356.05709551
  atomic energy  EATOM  =      4310.68367761
  Solvation  Ediel_sol  =         0.00000000
  ---------------------------------------------------
  free energy    TOTEN  =       -25.74257976 eV

  energy without entropy =      -25.73003754  energy(sigma->0) =      -25.73839902


--------------------------------------------------------------------------------------------------------




--------------------------------------- Iteration      1(   6)  ---------------------------------------


    POTLOK:  cpu time    0.0233: real time    0.0234
    SETDIJ:  cpu time    0.5350: real time    0.5363
     EDDAV:  cpu time    2.3666: real time    2.3722
       DOS:  cpu time    0.0047: real time    0.0047
    CHARGE:  cpu time    0.2112: real time    0.2117
    MIXING:  cpu time    0.0007: real time    0.0007
    --------------------------------------------
      LOOP:  cpu time    3.1415: real time    3.1490

 eigenvalue-minimisations  : 12104
 total energy-change (2. order) : 0.2815066E+01  (-0.4748665E+01)
 number of electron      40.0000090 magnetization      -0.0000000
 augmentation part       25.9112660 magnetization      -0.0000000

 Broyden mixing:
  rms(total) = 0.12264E+01    rms(broyden)= 0.12264E+01
  rms(prec ) = 0.14497E+01
  weight for this iteration     100.00

 eigenvalues of (default mixing * dielectric matrix)
  average eigenvalue GAMMA=   0.7070
  0.7070

 Free energy of the ion-electron system (eV)
  ---------------------------------------------------
  alpha Z        PSCENC =       189.89774773
  Ewald energy   TEWEN  =     -3769.84881827
  -Hartree energ DENC   =      -876.15383921
  -exchange      EXHF   =         0.00000000
  -V(xc)+E(xc)   XCENC  =       122.13684992
  PAW double counting   =      4127.34554246    -4377.20794637
  entropy T*S    EENTRO =        -0.02484465
  eigenvalues    EBANDS =       250.24411716
  atomic energy  EATOM  =      4310.68367761
  Solvation  Ediel_sol  =         0.00000000
  ---------------------------------------------------
  free energy    TOTEN  =       -22.92751361 eV

  energy without entropy =      -22.90266896  energy(sigma->0) =      -22.91923206


--------------------------------------------------------------------------------------------------------




--------------------------------------- Iteration      1(   7)  ---------------------------------------


    POTLOK:  cpu time    0.0224: real time    0.0226
    SETDIJ:  cpu time    0.5146: real time    0.5158
     EDDAV:  cpu time    2.3745: real time    2.3801
       DOS:  cpu time    0.0043: real time    0.0043
    CHARGE:  cpu time    0.2008: real time    0.2013
    MIXING:  cpu time    0.0007: real time    0.0007
    --------------------------------------------
      LOOP:  cpu time    3.1173: real time    3.1248

 eigenvalue-minimisations  : 12256
 total energy-change (2. order) : 0.1240243E+01  (-0.8531926E+00)
 number of electron      40.0000087 magnetization       0.0000000
 augmentation part       24.5164136 magnetization       0.0000000

 Broyden mixing:
  rms(total) = 0.38716E+00    rms(broyden)= 0.38715E+00
  rms(prec ) = 0.42801E+00
  weight for this iteration     100.00

 eigenvalues of (default mixing * dielectric matrix)
  average eigenvalue GAMMA=   0.8867
  1.1618  0.6117

 Free energy of the ion-electron system (eV)
  ---------------------------------------------------
  alpha Z        PSCENC =       189.89774773
  Ewald energy   TEWEN  =     -3769.84881827
  -Hartree energ DENC   =      -904.96631249
  -exchange      EXHF   =         0.00000000
  -V(xc)+E(xc)   XCENC  =       123.58779936
  PAW double counting   =      4284.47952388    -4550.07299363
  entropy T*S    EENTRO =        -0.02811869
  eigenvalues    EBANDS =       294.58022356
  atomic energy  EATOM  =      4310.68367761
  Solvation  Ediel_sol  =         0.00000000
  ---------------------------------------------------
  free energy    TOTEN  =       -21.68727093 eV

  energy without entropy =      -21.65915225  energy(sigma->0) =      -21.67789804


--------------------------------------------------------------------------------------------------------




--------------------------------------- Iteration      1(   8)  ---------------------------------------


    POTLOK:  cpu time    0.0228: real time    0.0229
    SETDIJ:  cpu time    0.5395: real time    0.5408
     EDDAV:  cpu time    2.7128: real time    2.7192
       DOS:  cpu time    0.0042: real time    0.0042
    CHARGE:  cpu time    0.2005: real time    0.2010
    MIXING:  cpu time    0.0006: real time    0.0006
    --------------------------------------------
      LOOP:  cpu time    3.4803: real time    3.4887

 eigenvalue-minimisations  : 14584
 total energy-change (2. order) : 0.2232704E-01  (-0.1346414E-01)
 number of electron      40.0000087 magnetization       0.0000000
 augmentation part       24.5822556 magnetization       0.0000000

 Broyden mixing:
  rms(total) = 0.19192E+00    rms(broyden)= 0.19192E+00
  rms(prec ) = 0.20992E+00
  weight for this iteration     100.00

 eigenvalues of (default mixing * dielectric matrix)
  average eigenvalue GAMMA=   1.0209
  1.8140  0.6243  0.6243

 Free energy of the ion-electron system (eV)
  ---------------------------------------------------
  alpha Z        PSCENC =       189.89774773
  Ewald energy   TEWEN  =     -3769.84881827
  -Hartree energ DENC   =      -896.47987028
  -exchange      EXHF   =         0.00000000
  -V(xc)+E(xc)   XCENC  =       123.11371462
  PAW double counting   =      4462.96988547    -4733.69124376
  entropy T*S    EENTRO =        -0.03402307
  eigenvalues    EBANDS =       291.72398605
  atomic energy  EATOM  =      4310.68367761
  Solvation  Ediel_sol  =         0.00000000
  ---------------------------------------------------
  free energy    TOTEN  =       -21.66494389 eV

  energy without entropy =      -21.63092083  energy(sigma->0) =      -21.65360287


--------------------------------------------------------------------------------------------------------




--------------------------------------- Iteration      1(   9)  ---------------------------------------


    POTLOK:  cpu time    0.0207: real time    0.0208
    SETDIJ:  cpu time    0.4799: real time    0.4810
     EDDAV:  cpu time    2.5231: real time    2.5290
       DOS:  cpu time    0.0042: real time    0.0042
    CHARGE:  cpu time    0.2157: real time    0.2162
    MIXING:  cpu time    0.0007: real time    0.0007
    --------------------------------------------
      LOOP:  cpu time    3.2442: real time    3.2520

 eigenvalue-minimisations  : 14232
 total energy-change (2. order) : 0.3149611E-02  (-0.2817839E-02)
 number of electron      40.0000087 magnetization      -0.0000000
 augmentation part       24.6303252 magnetization      -0.0000000

 Broyden mixing:
  rms(total) = 0.59708E-01    rms(broyden)= 0.59707E-01
  rms(prec ) = 0.68770E-01
  weight for this iteration     100.00

 eigenvalues of (default mixing * dielectric matrix)
  average eigenvalue GAMMA=   1.1621
  2.3285  1.0384  0.6408  0.6408

 Free energy of the ion-electron system (eV)
  ---------------------------------------------------
  alpha Z        PSCENC =       189.89774773
  Ewald energy   TEWEN  =     -3769.84881827
  -Hartree energ DENC   =      -892.98213293
  -exchange      EXHF   =         0.00000000
  -V(xc)+E(xc)   XCENC  =       122.92288452
  PAW double counting   =      4532.18584352    -4804.89857902
  entropy T*S    EENTRO =        -0.03628212
  eigenvalues    EBANDS =       290.41386468
  atomic energy  EATOM  =      4310.68367761
  Solvation  Ediel_sol  =         0.00000000
  ---------------------------------------------------
  free energy    TOTEN  =       -21.66179428 eV

  energy without entropy =      -21.62551216  energy(sigma->0) =      -21.64970024


--------------------------------------------------------------------------------------------------------




--------------------------------------- Iteration      1(  10)  ---------------------------------------


    POTLOK:  cpu time    0.0219: real time    0.0220
    SETDIJ:  cpu time    0.5387: real time    0.5400
     EDDAV:  cpu time    3.1278: real time    3.1351
       DOS:  cpu time    0.0044: real time    0.0044
    CHARGE:  cpu time    0.2155: real time    0.2160
    MIXING:  cpu time    0.0007: real time    0.0007
    --------------------------------------------
      LOOP:  cpu time    3.9090: real time    3.9183

 eigenvalue-minimisations  : 17552
 total energy-change (2. order) : 0.1355425E-03  (-0.9879067E-03)
 number of electron      40.0000087 magnetization      -0.0000000
 augmentation part       24.6561027 magnetization      -0.0000000

 Broyden mixing:
  rms(total) = 0.16888E-01    rms(broyden)= 0.16882E-01
  rms(prec ) = 0.16977E-01
  weight for this iteration     100.00

 eigenvalues of (default mixing * dielectric matrix)
  average eigenvalue GAMMA=   1.1305
  2.5975  1.2435  0.6234  0.6234  0.5649

 Free energy of the ion-electron system (eV)
  ---------------------------------------------------
  alpha Z        PSCENC =       189.89774773
  Ewald energy   TEWEN  =     -3769.84881827
  -Hartree energ DENC   =      -890.17585011
  -exchange      EXHF   =         0.00000000
  -V(xc)+E(xc)   XCENC  =       122.77476626
  PAW double counting   =      4593.24345667    -4867.79504405
  entropy T*S    EENTRO =        -0.03869629
  eigenvalues    EBANDS =       289.59710170
  atomic energy  EATOM  =      4310.68367761
  Solvation  Ediel_sol  =         0.00000000
  ---------------------------------------------------
  free energy    TOTEN  =       -21.66165874 eV

  energy without entropy =      -21.62296245  energy(sigma->0) =      -21.64875998


--------------------------------------------------------------------------------------------------------




--------------------------------------- Iteration      1(  11)  ---------------------------------------


    POTLOK:  cpu time    0.0224: real time    0.0225
    SETDIJ:  cpu time    0.5414: real time    0.5428
     EDDAV:  cpu time    2.4300: real time    2.4359
       DOS:  cpu time    0.0044: real time    0.0044
    CHARGE:  cpu time    0.2129: real time    0.2135
    MIXING:  cpu time    0.0007: real time    0.0007
    --------------------------------------------
      LOOP:  cpu time    3.2117: real time    3.2197

 eigenvalue-minimisations  : 12592
 total energy-change (2. order) :-0.3627043E-03  (-0.1714013E-03)
 number of electron      40.0000087 magnetization      -0.0000000
 augmentation part       24.6602072 magnetization      -0.0000000

 Broyden mixing:
  rms(total) = 0.14383E-01    rms(broyden)= 0.14382E-01
  rms(prec ) = 0.14981E-01
  weight for this iteration     100.00

 eigenvalues of (default mixing * dielectric matrix)
  average eigenvalue GAMMA=   1.1477
  2.7442  1.4574  0.6258  0.6258  0.7164  0.7164

 Free energy of the ion-electron system (eV)
  ---------------------------------------------------
  alpha Z        PSCENC =       189.89774773
  Ewald energy   TEWEN  =     -3769.84881827
  -Hartree energ DENC   =      -889.94237004
  -exchange      EXHF   =         0.00000000
  -V(xc)+E(xc)   XCENC  =       122.76060756
  PAW double counting   =      4598.63473511    -4873.32089717
  entropy T*S    EENTRO =        -0.03910525
  eigenvalues    EBANDS =       289.51240127
  atomic energy  EATOM  =      4310.68367761
  Solvation  Ediel_sol  =         0.00000000
  ---------------------------------------------------
  free energy    TOTEN  =       -21.66202145 eV

  energy without entropy =      -21.62291620  energy(sigma->0) =      -21.64898636


--------------------------------------------------------------------------------------------------------




--------------------------------------- Iteration      1(  12)  ---------------------------------------


    POTLOK:  cpu time    0.0226: real time    0.0227
    SETDIJ:  cpu time    0.5292: real time    0.5305
     EDDAV:  cpu time    3.5388: real time    3.5472
       DOS:  cpu time    0.0045: real time    0.0046
    CHARGE:  cpu time    0.2145: real time    0.2150
    MIXING:  cpu time    0.0008: real time    0.0008
    --------------------------------------------
      LOOP:  cpu time    4.3105: real time    4.3209

 eigenvalue-minimisations  : 20352
 total energy-change (2. order) :-0.5025605E-04  (-0.2352274E-04)
 number of electron      40.0000087 magnetization       0.0000000
 augmentation part       24.6587852 magnetization       0.0000000

 Broyden mixing:
  rms(total) = 0.92607E-02    rms(broyden)= 0.92602E-02
  rms(prec ) = 0.95920E-02
  weight for this iteration     100.00

 eigenvalues of (default mixing * dielectric matrix)
  average eigenvalue GAMMA=   1.3393
  3.4113  2.1720  0.9805  0.9805  0.6404  0.6404  0.5501

 Free energy of the ion-electron system (eV)
  ---------------------------------------------------
  alpha Z        PSCENC =       189.89774773
  Ewald energy   TEWEN  =     -3769.84881827
  -Hartree energ DENC   =      -890.05165820
  -exchange      EXHF   =         0.00000000
  -V(xc)+E(xc)   XCENC  =       122.76368974
  PAW double counting   =      4598.47427516    -4873.10187093
  entropy T*S    EENTRO =        -0.03948910
  eigenvalues    EBANDS =       289.56037456
  atomic energy  EATOM  =      4310.68367761
  Solvation  Ediel_sol  =         0.00000000
  ---------------------------------------------------
  free energy    TOTEN  =       -21.66207170 eV

  energy without entropy =      -21.62258260  energy(sigma->0) =      -21.64890867


--------------------------------------------------------------------------------------------------------




--------------------------------------- Iteration      1(  13)  ---------------------------------------


    POTLOK:  cpu time    0.0225: real time    0.0226
    SETDIJ:  cpu time    0.5232: real time    0.5244
     EDDAV:  cpu time    3.4785: real time    3.4866
       DOS:  cpu time    0.0044: real time    0.0044
    CHARGE:  cpu time    0.2156: real time    0.2161
    MIXING:  cpu time    0.0009: real time    0.0009
    --------------------------------------------
      LOOP:  cpu time    4.2450: real time    4.2551

 eigenvalue-minimisations  : 20160
 total energy-change (2. order) :-0.1966345E-04  (-0.2516742E-04)
 number of electron      40.0000087 magnetization       0.0000000
 augmentation part       24.6576747 magnetization       0.0000000

 Broyden mixing:
  rms(total) = 0.32027E-02    rms(broyden)= 0.32012E-02
  rms(prec ) = 0.33165E-02
  weight for this iteration     100.00

 eigenvalues of (default mixing * dielectric matrix)
  average eigenvalue GAMMA=   1.3566
  3.8532  2.2379  1.0996  1.0996  0.6647  0.6647  0.6165  0.6165

 Free energy of the ion-electron system (eV)
  ---------------------------------------------------
  alpha Z        PSCENC =       189.89774773
  Ewald energy   TEWEN  =     -3769.84881827
  -Hartree energ DENC   =      -890.19628323
  -exchange      EXHF   =         0.00000000
  -V(xc)+E(xc)   XCENC  =       122.76755212
  PAW double counting   =      4597.56864845    -4872.09167611
  entropy T*S    EENTRO =        -0.03995330
  eigenvalues    EBANDS =       289.59701363
  atomic energy  EATOM  =      4310.68367761
  Solvation  Ediel_sol  =         0.00000000
  ---------------------------------------------------
  free energy    TOTEN  =       -21.66209136 eV

  energy without entropy =      -21.62213806  energy(sigma->0) =      -21.64877360


--------------------------------------------------------------------------------------------------------




--------------------------------------- Iteration      1(  14)  ---------------------------------------


    POTLOK:  cpu time    0.0222: real time    0.0223
    SETDIJ:  cpu time    0.5264: real time    0.5276
     EDDAV:  cpu time    2.9428: real time    2.9499
       DOS:  cpu time    0.0044: real time    0.0044
    CHARGE:  cpu time    0.2109: real time    0.2114
    MIXING:  cpu time    0.0008: real time    0.0008
    --------------------------------------------
      LOOP:  cpu time    3.7075: real time    3.7165

 eigenvalue-minimisations  : 18024
 total energy-change (2. order) :-0.7172907E-05  (-0.4127729E-05)
 number of electron      40.0000087 magnetization      -0.0000000
 augmentation part       24.6580183 magnetization      -0.0000000

 Broyden mixing:
  rms(total) = 0.19234E-02    rms(broyden)= 0.19225E-02
  rms(prec ) = 0.21308E-02
  weight for this iteration     100.00

 eigenvalues of (default mixing * dielectric matrix)
  average eigenvalue GAMMA=   1.3525
  4.1066  2.2417  1.3869  1.1400  0.7366  0.7366  0.5816  0.6214  0.6214

 Free energy of the ion-electron system (eV)
  ---------------------------------------------------
  alpha Z        PSCENC =       189.89774773
  Ewald energy   TEWEN  =     -3769.84881827
  -Hartree energ DENC   =      -890.21323010
  -exchange      EXHF   =         0.00000000
  -V(xc)+E(xc)   XCENC  =       122.76709248
  PAW double counting   =      4597.26030183    -4871.75457192
  entropy T*S    EENTRO =        -0.04013921
  eigenvalues    EBANDS =       289.58584132
  atomic energy  EATOM  =      4310.68367761
  Solvation  Ediel_sol  =         0.00000000
  ---------------------------------------------------
  free energy    TOTEN  =       -21.66209854 eV

  energy without entropy =      -21.62195932  energy(sigma->0) =      -21.64871880


--------------------------------------------------------------------------------------------------------




--------------------------------------- Iteration      1(  15)  ---------------------------------------


    POTLOK:  cpu time    0.0248: real time    0.0345
    SETDIJ:  cpu time    0.4997: real time    0.5009
     EDDAV:  cpu time    2.2255: real time    2.2307
       DOS:  cpu time    0.0043: real time    0.0043
    CHARGE:  cpu time    0.2120: real time    0.2125
    MIXING:  cpu time    0.0009: real time    0.0009
    --------------------------------------------
      LOOP:  cpu time    2.9672: real time    2.9839

 eigenvalue-minimisations  : 12464
 total energy-change (2. order) : 0.1602687E-05  (-0.1796126E-05)
[...]
     10       7.2122      1.00000
     11       8.5700      1.00000
     12       8.5890      1.00000
     13       9.0014      1.01095
     14       9.1580      1.03334
     15       9.2393      0.96294
     16       9.2652      0.91050
     17       9.3214      0.74056
     18       9.3705      0.54489
     19       9.6872     -0.02628
     20       9.7336     -0.01591
     21      11.8330     -0.00000
     22      12.6911     -0.00000
     23      15.2407      0.00000
     24      16.2859      0.00000

 k-point   124 :       0.4545    0.2727    0.4545
  band No.  band energies     occupation 
      1       5.1465      1.00000
      2       5.1940      1.00000
      3       5.7073      1.00000
      4       5.7102      1.00000
      5       5.7706      1.00000
      6       5.7935      1.00000
      7       6.2216      1.00000
      8       6.2449      1.00000
      9       7.4023      1.00000
     10       7.4601      1.00000
     11       8.6545      1.00000
     12       8.6780      1.00000
     13       8.8173      1.00025
     14       8.8861      1.00129
     15       9.2149      0.99752
     16       9.2394      0.96276
     17       9.2616      0.91894
     18       9.3068      0.79147
     19       9.7003     -0.02326
     20       9.7336     -0.01591
     21      12.2101     -0.00000
     22      13.0407     -0.00000
     23      14.6872     -0.00000
     24      15.6599      0.00000

 k-point   125 :       0.4545    0.3636    0.4545
  band No.  band energies     occupation 
      1       5.2399      1.00000
      2       5.2825      1.00000
      3       5.6425      1.00000
      4       5.6663      1.00000
      5       5.7650      1.00000
      6       5.7666      1.00000
      7       6.1010      1.00000
      8       6.1154      1.00000
      9       7.6684      1.00000
     10       7.7216      1.00000
     11       8.5690      1.00000
     12       8.5762      1.00000
     13       8.7487      1.00004
     14       8.7858      1.00011
     15       9.1529      1.03425
     16       9.1933      1.01758
     17       9.2395      0.96257
     18       9.2807      0.87128
     19       9.7065     -0.02181
     20       9.7336     -0.01591
     21      12.6470     -0.00000
     22      13.4708     -0.00000
     23      14.1479     -0.00000
     24      15.0607      0.00000

 k-point   126 :       0.4545    0.4545    0.4545
  band No.  band energies     occupation 
      1       5.3430      1.00000
      2       5.3781      1.00000
      3       5.5219      1.00000
      4       5.5515      1.00000
      5       5.8176      1.00000
      6       5.8196      1.00000
      7       6.0148      1.00000
      8       6.0234      1.00000
      9       7.9389      1.00000
     10       7.9848      1.00000
     11       8.2872      1.00000
     12       8.3049      1.00000
     13       8.8230      1.00029
     14       8.8595      1.00071
     15       9.1002      1.03160
     16       9.1320      1.03539
     17       9.2396      0.96243
     18       9.2714      0.89551
     19       9.7091     -0.02123
     20       9.7336     -0.01591
     21      13.1218     -0.00000
     22      13.6256     -0.00000
     23      13.9588     -0.00000
     24      14.4923     -0.00000


--------------------------------------------------------------------------------------------------------


 soft charge-density along one line, spin component           1
         0         1         2         3         4         5         6         7         8         9
 total charge-density along one line
 
 soft charge-density along one line, spin component           2
         0         1         2         3         4         5         6         7         8         9
 total charge-density along one line
 
 pseudopotential strength for first ion, spin component:           1
 -0.253  -0.000   0.000  -0.034   0.000  -0.946  -0.000   0.000
 -0.000  -0.260   0.013  -0.000  -0.035  -0.000  -0.952   0.013
  0.000   0.013  -0.294  -0.000   0.019   0.000   0.013  -0.984
 -0.034  -0.000  -0.000  -0.230  -0.000  -0.032  -0.000  -0.000
  0.000  -0.035   0.019  -0.000  -0.285   0.000  -0.033   0.018
 -0.946  -0.000   0.000  -0.032   0.000  -1.566  -0.000   0.000
 -0.000  -0.952   0.013  -0.000  -0.033  -0.000  -1.572   0.012
  0.000   0.013  -0.984  -0.000   0.018   0.000   0.012  -1.602
 -0.032  -0.000  -0.000  -0.923  -0.000  -0.031  -0.000  -0.000
  0.000  -0.033   0.018  -0.000  -0.976   0.000  -0.032   0.017
  0.000  -0.002   0.000   0.000   0.001   0.000  -0.002   0.000
  0.000  -0.003   0.000   0.000   0.002   0.000  -0.003   0.000
 -0.000  -0.000   0.000  -0.000   0.000  -0.000  -0.000   0.000
 -0.000  -0.000  -0.000  -0.000  -0.000  -0.000  -0.000  -0.000
 -0.000  -0.000  -0.000  -0.000   0.000  -0.000  -0.000  -0.000
 -0.000  -0.000   0.000  -0.000   0.000  -0.000  -0.000   0.000
 -0.000  -0.000  -0.000   0.000  -0.000  -0.000  -0.000  -0.000
 -0.000  -0.000  -0.000  -0.000   0.000  -0.000  -0.000  -0.000
 pseudopotential strength for first ion, spin component:           2
 -0.016  -0.000   0.000   0.004   0.000  -0.720  -0.000   0.000
 -0.000   0.010  -0.017  -0.000   0.013  -0.000  -0.695  -0.016
  0.000  -0.017   0.007  -0.000  -0.024   0.000  -0.016  -0.698
  0.004  -0.000  -0.000  -0.019  -0.000   0.003  -0.000  -0.000
  0.000   0.013  -0.024  -0.000   0.019   0.000   0.012  -0.023
 -0.720  -0.000   0.000   0.003   0.000  -1.350  -0.000   0.000
 -0.000  -0.695  -0.016  -0.000   0.012  -0.000  -1.326  -0.015
  0.000  -0.016  -0.698  -0.000  -0.023   0.000  -0.015  -1.329
  0.003  -0.000  -0.000  -0.722  -0.000   0.003  -0.000  -0.000
  0.000   0.012  -0.023  -0.000  -0.686   0.000   0.011  -0.022
  0.000   0.003   0.000   0.000  -0.002   0.000   0.003   0.000
  0.000   0.005   0.000   0.000  -0.004   0.000   0.005   0.000
  0.000   0.000  -0.000   0.000  -0.000   0.000   0.000  -0.000
  0.000   0.000   0.000   0.000  -0.000   0.000   0.000   0.000
  0.000   0.000  -0.000   0.000   0.000   0.000   0.000  -0.000
  0.000   0.000  -0.000   0.000  -0.000   0.000   0.000  -0.000
  0.000   0.000   0.000   0.000  -0.000   0.000   0.000   0.000
  0.000   0.000  -0.000   0.000   0.000   0.000   0.000  -0.000
 total augmentation occupancy for first ion, spin component:           1
  2.938  -0.000   0.000  -0.395   0.000  -1.339   0.000  -0.000   0.182  -0.000   0.000   0.000  -0.000  -0.000  -0.000   0.000
 -0.000   3.271  -0.030  -0.000  -0.381   0.000  -1.504   0.021   0.000   0.172  -0.007  -0.000   0.001   0.001  -0.000  -0.000
  0.000  -0.030   2.695  -0.000  -0.042  -0.000   0.021  -1.236   0.000   0.030  -0.000  -0.000   0.000  -0.000  -0.000   0.000
 -0.395  -0.000  -0.000   3.217  -0.000   0.182   0.000   0.000  -1.468   0.000   0.000   0.000  -0.000  -0.000  -0.000   0.000
  0.000  -0.381  -0.042  -0.000   3.001  -0.000   0.172   0.030   0.000  -1.383   0.005   0.000  -0.001  -0.001   0.000   0.000
 -1.339   0.000  -0.000   0.182  -0.000   1.488  -0.000   0.000  -0.028   0.000  -0.000  -0.000   0.000   0.000   0.000  -0.000
  0.000  -1.504   0.021   0.000   0.172  -0.000   1.531  -0.015  -0.000  -0.019   0.004   0.000  -0.001  -0.000   0.000   0.000
 -0.000   0.021  -1.236   0.000   0.030   0.000  -0.015   1.487  -0.000  -0.021   0.000   0.000  -0.000   0.000   0.000   0.000
  0.182   0.000   0.000  -1.468   0.000  -0.028  -0.000  -0.000   1.508  -0.000  -0.000  -0.000   0.000   0.000   0.000  -0.000
 -0.000   0.172   0.030   0.000  -1.383   0.000  -0.019  -0.021  -0.000   1.518  -0.003  -0.000   0.000   0.000  -0.000   0.000
  0.000  -0.007  -0.000   0.000   0.005  -0.000   0.004   0.000  -0.000  -0.003   2.336  -0.329  -0.000  -0.000   0.000  -0.000
  0.000  -0.000  -0.000   0.000   0.000  -0.000   0.000   0.000  -0.000  -0.000  -0.329   0.053  -0.000  -0.000   0.000   0.000
 -0.000   0.001   0.000  -0.000  -0.001   0.000  -0.001  -0.000   0.000   0.000  -0.000  -0.000   0.310  -0.000  -0.000  -0.034
 -0.000   0.001  -0.000  -0.000  -0.001   0.000  -0.000   0.000   0.000   0.000  -0.000  -0.000  -0.000   0.310  -0.000   0.000
 -0.000  -0.000  -0.000  -0.000   0.000   0.000   0.000   0.000   0.000  -0.000   0.000   0.000  -0.000  -0.000   0.310   0.000
  0.000  -0.000   0.000   0.000   0.000  -0.000   0.000   0.000  -0.000   0.000  -0.000   0.000  -0.034   0.000   0.000   0.004
  0.000  -0.000  -0.000   0.000   0.000  -0.000  -0.000  -0.000   0.000  -0.000  -0.000   0.000   0.000  -0.034   0.000  -0.000
 -0.000   0.000  -0.000  -0.000  -0.000  -0.000  -0.000  -0.000  -0.000   0.000   0.000  -0.000   0.000   0.000  -0.034  -0.000
 total augmentation occupancy for first ion, spin component:           2
  0.267  -0.000   0.000   0.080   0.000  -0.119   0.000  -0.000  -0.036  -0.000   0.000   0.000  -0.000   0.000   0.005  -0.000
 -0.000   0.440  -0.128  -0.000   0.139   0.000  -0.236   0.076   0.000  -0.068  -0.001  -0.000   0.002   0.004  -0.000   0.000
  0.000  -0.128   0.480  -0.000  -0.181  -0.000   0.076  -0.239   0.000   0.108  -0.000  -0.000  -0.003   0.004   0.000  -0.000
  0.080  -0.000  -0.000   0.210  -0.000  -0.036   0.000   0.000  -0.094   0.000   0.000   0.000   0.000  -0.000   0.004   0.000
  0.000   0.139  -0.181  -0.000   0.538  -0.000  -0.068   0.108   0.000  -0.284   0.001   0.000  -0.004   0.001  -0.000  -0.000
 -0.119   0.000  -0.000  -0.036  -0.000   0.022  -0.000   0.000   0.011   0.000  -0.000  -0.000   0.000  -0.000  -0.006   0.000
  0.000  -0.236   0.076   0.000  -0.068  -0.000   0.099  -0.043  -0.000   0.025   0.001   0.001  -0.002  -0.004   0.000   0.000
 -0.000   0.076  -0.239   0.000   0.108   0.000  -0.043   0.082  -0.000  -0.060   0.000   0.000   0.003  -0.005  -0.000   0.000
 -0.036   0.000   0.000  -0.094   0.000   0.011  -0.000  -0.000   0.015   0.000  -0.000  -0.000  -0.000   0.000  -0.004  -0.000
 -0.000  -0.068   0.108   0.000  -0.284   0.000   0.025  -0.060   0.000   0.117  -0.001  -0.001   0.004  -0.001   0.000   0.000
  0.000  -0.001  -0.000   0.000   0.001  -0.000   0.001   0.000  -0.000  -0.001  -0.050   0.019  -0.005  -0.003   0.000   0.000
  0.000  -0.000  -0.000   0.000   0.000  -0.000   0.001   0.000  -0.000  -0.001   0.019  -0.004  -0.000  -0.000   0.000   0.000
 -0.000   0.002  -0.003   0.000  -0.004   0.000  -0.002   0.003  -0.000   0.004  -0.005  -0.000  -0.003   0.000   0.000   0.001
  0.000   0.004   0.004  -0.000   0.001  -0.000  -0.004  -0.005   0.000  -0.001  -0.003  -0.000   0.000  -0.003   0.000   0.000
  0.005  -0.000   0.000   0.004  -0.000  -0.006   0.000  -0.000  -0.004   0.000   0.000   0.000   0.000   0.000  -0.003  -0.000
 -0.000   0.000  -0.000   0.000  -0.000   0.000   0.000   0.000  -0.000   0.000   0.000   0.000   0.001   0.000  -0.000  -0.000
  0.000   0.000   0.000  -0.000   0.000  -0.000  -0.000  -0.000   0.000  -0.000   0.000   0.000   0.000   0.001  -0.000  -0.000
  0.000  -0.000   0.000   0.000  -0.000  -0.000   0.000  -0.000  -0.000   0.000  -0.000  -0.000  -0.000  -0.000   0.001   0.000


------------------------ aborting loop because EDIFF is reached ----------------------------------------



 ----------------------------------------------------------------------------- 
|                                                                             |
|  ADVICE TO THIS USER RUNNING 'VASP/VAMP'   (HEAR YOUR MASTER'S VOICE ...):  |
|                                                                             |
|      Your highest band is occupied at some k-points! Unless you are         |
|      performing a calculation for an insulator or semiconductor, without    |
|      unoccupied bands, you have included TOO FEW BANDS!! Please increase    |
|      the parameter NBANDS in file INCAR to ensure that the highest band     |
|      is unoccupied at all k-points. It is always recommended to             |
|      include a few unoccupied bands to accelerate the convergence of        |
|      molecular dynamics runs (even for insulators or semiconductors).       |
|      Because the presence of unoccupied bands improves wavefunction         |
|      prediction, and helps to suppress 'band-crossings.'                    |
|      Following all k-points will be listed (with the Fermi weights of       |
|      the highest band given in paranthesis) ... :                           |
|                                                                             |
|                         31       (-0.02641)                                 |
|                         31       (-0.02641)                                 |
|                                                                             |
|      The total occupancy of band no.    24 is  -0.00008 electrons ...       |
|                                                                             |
 ----------------------------------------------------------------------------- 

 


 total charge     
 
# of ion       s       p       d       tot
------------------------------------------
    1        0.500   0.506   8.328   9.334
    2        0.500   0.506   8.328   9.334
    3        0.500   0.506   8.328   9.334
    4        0.500   0.506   8.328   9.334
--------------------------------------------------
tot          2.001   2.022  33.314  37.337
 


 magnetization (x)
 
# of ion       s       p       d       tot
------------------------------------------
    1        0.000  -0.002   0.309   0.307
    2        0.000  -0.002   0.309   0.307
    3       -0.000   0.002  -0.309  -0.307
    4       -0.000   0.002  -0.309  -0.307
--------------------------------------------------
tot          0.000  -0.000   0.000   0.000
 
    CHARGE:  cpu time    0.2231: real time    0.2236
    FORLOC:  cpu time    0.0007: real time    0.0007
    FORNL :  cpu time    0.4598: real time    0.4609
    STRESS:  cpu time    0.9356: real time    0.9379
    FORCOR:  cpu time    0.0210: real time    0.0211
    FORHAR:  cpu time    0.0024: real time    0.0024
    MIXING:  cpu time    0.0009: real time    0.0009
    OFIELD:  cpu time    0.0000: real time    0.0000

  FORCE on cell =-STRESS in cart. coord.  units (eV):
  Direction    XX          YY          ZZ          XY          YZ          ZX
  --------------------------------------------------------------------------------------
  Alpha Z   189.89775   189.89775   189.89775
  Ewald   -1256.61684 -1256.61684 -1256.61679     0.00002    -0.00000     0.00001
  Hartree   296.85442   296.66914   296.76179     0.00000    -0.13101     0.00000
  E(xc)    -220.15599  -220.15001  -220.15300     0.00000     0.00423     0.00000
  Local       4.28421     4.92237     4.60326    -0.00001     0.45124    -0.00001
  n-local   -41.28722   -27.59635   -24.01283    -0.66471    -5.05187    -0.36527
  augment   704.12741   703.85094   703.98916    -0.00001    -0.19549    -0.00001
  Kinetic   318.82158   311.63599   308.63789    -2.26629     2.35906     3.52084
  Fock        0.00000     0.00000     0.00000     0.00000     0.00000     0.00000
  -------------------------------------------------------------------------------------
  Total       0.64159     0.45543     0.54851    -0.00000    -0.13163    -0.00000
  in kB      23.92226    16.98124    20.45175    -0.00000    -4.90804    -0.00000
  external pressure =       20.45 kB  Pullay stress =        0.00 kB


 VOLUME and BASIS-vectors are now :
 -----------------------------------------------------------------------------
  energy-cutoff  :      520.00
  volume of cell :       42.97
      direct lattice vectors                 reciprocal lattice vectors
     2.476700100  0.000000000  0.000000000     0.403763056  0.000000009  0.000000007
    -0.000000200  5.719693860  4.044434200     0.000000000  0.116556355  0.082417791
     0.000000000 -1.429923470  2.022217100     0.000000000 -0.233112709  0.329671164

  length of vectors
     2.476700100  7.005165655  2.476700048     0.403763056  0.142751799  0.403763064


 FORCES acting on ions
    electron-ion (+dipol)            ewald-force                    non-local-force                 convergence-correction
 -----------------------------------------------------------------------------------------------
   -.120E-08 0.339E-01 0.240E-01   0.121E-13 0.000E+00 -.568E-13   -.118E-08 0.338E-01 0.239E-01   -.158E-13 0.377E-03 0.266E-03
   0.120E-08 -.339E-01 -.240E-01   0.707E-14 -.387E-13 -.282E-13   0.118E-08 -.338E-01 -.239E-01   0.143E-12 -.377E-03 -.266E-03
   -.120E-08 0.339E-01 0.240E-01   0.676E-14 0.000E+00 0.000E+00   -.118E-08 0.338E-01 0.239E-01   -.142E-13 0.377E-03 0.266E-03
   0.120E-08 -.339E-01 -.240E-01   0.175E-14 -.783E-15 0.586E-13   0.118E-08 -.338E-01 -.239E-01   0.138E-12 -.377E-03 -.266E-03
 -----------------------------------------------------------------------------------------------
   0.107E-11 0.320E-11 0.229E-11   0.276E-13 -.395E-13 -.265E-13   -.139E-19 -.278E-16 -.139E-16   0.250E-12 0.732E-13 -.541E-13
 
 
 POSITION                                       TOTAL-FORCE (eV/Angst)
 -----------------------------------------------------------------------------------
      0.00000      0.00000      0.00000        -0.000000      0.068071      0.048133
      1.23835      0.71496      2.02222         0.000000     -0.068071     -0.048133
     -0.00000      2.85985      2.02222        -0.000000      0.068071      0.048133
      1.23835      3.57481      4.04443         0.000000     -0.068071     -0.048133
 -----------------------------------------------------------------------------------
    total drift:                                0.000000      0.000000      0.000000


--------------------------------------------------------------------------------------------------------



  FREE ENERGIE OF THE ION-ELECTRON SYSTEM (eV)
  ---------------------------------------------------
  free  energy   TOTEN  =       -21.66209597 eV

  energy  without entropy=      -21.62164363  energy(sigma->0) =      -21.64861186
 


--------------------------------------------------------------------------------------------------------


    POTLOK:  cpu time    0.5318: real time    0.5331


--------------------------------------------------------------------------------------------------------


     LOOP+:  cpu time   56.5134: real time   56.6916
    4ORBIT:  cpu time    0.0000: real time    0.0000
 


 total charge     
 
# of ion       s       p       d       tot
------------------------------------------
    1        0.500   0.506   8.328   9.334
    2        0.500   0.506   8.328   9.334
    3        0.500   0.506   8.328   9.334
    4        0.500   0.506   8.328   9.334
--------------------------------------------------
tot          2.001   2.022  33.314  37.337
 


 magnetization (x)
 
# of ion       s       p       d       tot
------------------------------------------
    1        0.000  -0.002   0.309   0.307
    2        0.000  -0.002   0.309   0.307
    3       -0.000   0.002  -0.309  -0.307
    4       -0.000   0.002  -0.309  -0.307
--------------------------------------------------
tot          0.000  -0.000   0.000   0.000
 

 total amount of memory used by VASP MPI-rank0    70758. kBytes
=======================================================================

   base      :      30000. kBytes
   nonl-proj :      21703. kBytes
   fftplans  :        752. kBytes
   grid      :       2890. kBytes
   one-center:        124. kBytes
   wavefun   :      15289. kBytes
 
  
  
 General timing and accounting informations for this job:
 ========================================================
  
                  Total CPU time used (sec):       58.404
                            User time (sec):       57.810
                          System time (sec):        0.594
                         Elapsed time (sec):       59.165
  
                   Maximum memory used (kb):      105240.
                   Average memory used (kb):           0.
  
                          Minor page faults:        35520
                          Major page faults:            0
                 Voluntary context switches:         1373
