=========================================
SLURM_JOB_ID = 51706460
SLURM_JOB_NODELIST = lnode34
SLURM_GPUS = 
SLURM_CPUS_ON_NODE = 24
SLURM_JOB_PARTITION = lenovo
SLURM_TASK_PID = 400518
CUDA_VISIBLE_DEVICES = 
==========================================
 running on   24 total cores
 distrk:  each k-point on   24 cores,    1 groups
 distr:  one band on    4 cores,    6 groups
 using from now: INCAR     
 vasp.5.4.4.18Apr17-6-g9f103f2a35 (build Apr 28 2018 00:24:27) complex          
  
 POSCAR found type information on POSCAR  Fe O 
 POSCAR found :  2 types and      30 ions
 scaLAPACK will be used
 LDA part: xc-table for Pade appr. of Perdew
 POSCAR, INCAR and KPOINTS ok, starting setup
 FFT: planning ...
 WAVECAR not read
 entering main loop
       N       E                     dE             d eps       ncg     rms          rms(c)
DAV:   1     0.443535316953E+04    0.44354E+04   -0.14970E+05 11496   0.205E+03
DAV:   2     0.476850351189E+03   -0.39585E+04   -0.36060E+04 11424   0.577E+02
DAV:   3    -0.247087388647E+03   -0.72394E+03   -0.64097E+03 11880   0.242E+02
DAV:   4    -0.293903762041E+03   -0.46816E+02   -0.46268E+02 12948   0.610E+01
DAV:   5    -0.294426420019E+03   -0.52266E+00   -0.52124E+00 12720   0.727E+00    0.810E+01
DAV:   6    -0.235331275793E+03    0.59095E+02   -0.25343E+02 14784   0.810E+01    0.914E+01
DAV:   7    -0.211757570480E+03    0.23574E+02   -0.11439E+02 12240   0.635E+01    0.437E+01
DAV:   8    -0.218279144002E+03   -0.65216E+01   -0.21359E+01 12132   0.171E+01    0.265E+01
DAV:   9    -0.222488287074E+03   -0.42091E+01   -0.82434E+00 12576   0.170E+01    0.273E+01
DAV:  10    -0.222117516343E+03    0.37077E+00   -0.24683E+00 12540   0.692E+00    0.186E+01
DAV:  11    -0.221547991956E+03    0.56952E+00   -0.23340E-01 14256   0.283E+00    0.122E+01
DAV:  12    -0.221345692375E+03    0.20230E+00   -0.19405E-01 15156   0.239E+00    0.851E+00
DAV:  13    -0.221340876275E+03    0.48161E-02   -0.11535E-01 13992   0.230E+00    0.466E+00
DAV:  14    -0.221387072639E+03   -0.46196E-01   -0.16093E-01 14808   0.201E+00    0.176E+00
DAV:  15    -0.221405660591E+03   -0.18588E-01   -0.63922E-02 12468   0.676E-01    0.141E+00
DAV:  16    -0.221400378038E+03    0.52826E-02   -0.94156E-03 14100   0.719E-01    0.353E-01
DAV:  17    -0.221401086772E+03   -0.70873E-03   -0.46055E-03 12360   0.174E-01    0.187E-01
DAV:  18    -0.221401342201E+03   -0.25543E-03   -0.22750E-04 13920   0.792E-02    0.922E-02
DAV:  19    -0.221401412699E+03   -0.70498E-04   -0.95496E-05 13800   0.441E-02    0.204E-02
DAV:  20    -0.221401425438E+03   -0.12739E-04   -0.26745E-05 12528   0.167E-02    0.891E-03
DAV:  21    -0.221401428938E+03   -0.34997E-05   -0.23047E-06 12228   0.651E-03    0.102E-02
DAV:  22    -0.221401430035E+03   -0.10971E-05   -0.98129E-07 10836   0.471E-03    0.597E-03
DAV:  23    -0.221401427732E+03    0.23028E-05   -0.24183E-07  8868   0.250E-03    0.176E-03
DAV:  24    -0.221401426826E+03    0.90616E-06   -0.80067E-08  6528   0.785E-04    0.887E-04
DAV:  25    -0.221401427174E+03   -0.34801E-06   -0.11208E-08  6216   0.411E-04    0.245E-04
DAV:  26    -0.221401427221E+03   -0.46894E-07   -0.31435E-09  6204   0.183E-04
   1 F= -.22140143E+03 E0= -.22140143E+03  d E =0.000000E+00  mag=    42.3132
