 vasp.5.4.4.18Apr17-6-g9f103f2a35 (build Apr 28 2018 00:24:27) complex          
  
 executed on             LinuxIFC date 2021.09.06  03:47:31
 running on   24 total cores
 distrk:  each k-point on   24 cores,    1 groups
 distr:  one band on NCORES_PER_BAND=   4 cores,    6 groups


--------------------------------------------------------------------------------------------------------


 INCAR:
 POTCAR:    PAW_PBE Fe_pv 02Aug2007               
 POTCAR:    PAW_PBE O 08Apr2002                   
 POTCAR:    PAW_PBE Fe_pv 02Aug2007               
   VRHFIN =Fe:  3pd7s1                                                          
   LEXCH  = PE                                                                  
   EATOM  =  2457.4239 eV,  180.6156 Ry                                         
                                                                                
   TITEL  = PAW_PBE Fe_pv 02Aug2007                                             
   LULTRA =        F    use ultrasoft PP ?                                      
   IUNSCR =        1    unscreen: 0-lin 1-nonlin 2-no                           
   RPACOR =    1.750    partial core radius                                     
   POMASS =   55.847; ZVAL   =   14.000    mass and valenz                      
   RCORE  =    2.200    outmost cutoff radius                                   
   RWIGS  =    2.200; RWIGS  =    1.164    wigner-seitz radius (au A)           
   ENMAX  =  293.238; ENMIN  =  219.928 eV                                      
   ICORE  =        3    local potential                                         
   LCOR   =        T    correct aug charges                                     
   LPAW   =        T    paw PP                                                  
   EAUG   =  578.342                                                            
   DEXC   =    0.000                                                            
   RMAX   =    2.249    core radius for proj-oper                               
   RAUG   =    1.300    factor for augmentation sphere                          
   RDEP   =    2.296    radius for radial grids                                 
   RDEPT  =    1.766    core radius for aug-charge                              
                                                                                
   Atomic configuration                                                         
    8 entries                                                                   
     n  l   j            E        occ.                                          
     1  0  0.50     -6993.8440   2.0000                                         
     2  0  0.50      -814.6047   2.0000                                         
     2  1  1.50      -693.3689   6.0000                                         
     3  0  0.50       -89.4732   2.0000                                         
     3  1  1.50       -55.6373   6.0000                                         
     3  2  2.50        -3.8151   7.0000                                         
     4  0  0.50        -4.2551   1.0000                                         
     4  3  2.50        -1.3606   0.0000                                         
   Description                                                                  
     l       E           TYP  RCUT    TYP  RCUT                                 
     1    -55.6372668     23  2.000                                             
     1     -5.4423304     23  2.000                                             
     2     -3.8151096     23  2.200                                             
     2     -5.1756922     23  2.200                                             
     0     -4.2550951     23  2.200                                             
     0     27.2116520     23  2.200                                             
     3     -1.3605826     23  2.200                                             
  local pseudopotential read in
  partial core-charges read in
  partial kinetic energy density read in
  atomic valenz-charges read in
  non local Contribution for L=           1  read in
    real space projection operators read in
  non local Contribution for L=           1  read in
    real space projection operators read in
  non local Contribution for L=           2  read in
    real space projection operators read in
  non local Contribution for L=           2  read in
    real space projection operators read in
  non local Contribution for L=           0  read in
    real space projection operators read in
  non local Contribution for L=           0  read in
    real space projection operators read in
    PAW grid and wavefunctions read in
 
   number of l-projection  operators is LMAX  =           6
   number of lm-projection operators is LMMAX =          18
 
 POTCAR:    PAW_PBE O 08Apr2002                   
   VRHFIN =O: s2p4                                                              
   LEXCH  = PE                                                                  
   EATOM  =   432.3788 eV,   31.7789 Ry                                         
                                                                                
   TITEL  = PAW_PBE O 08Apr2002                                                 
   LULTRA =        F    use ultrasoft PP ?                                      
   IUNSCR =        1    unscreen: 0-lin 1-nonlin 2-no                           
   RPACOR =    1.200    partial core radius                                     
   POMASS =   16.000; ZVAL   =    6.000    mass and valenz                      
   RCORE  =    1.520    outmost cutoff radius                                   
   RWIGS  =    1.550; RWIGS  =    0.820    wigner-seitz radius (au A)           
   ENMAX  =  400.000; ENMIN  =  300.000 eV                                      
   ICORE  =        2    local potential                                         
   LCOR   =        T    correct aug charges                                     
   LPAW   =        T    paw PP                                                  
   EAUG   =  605.392                                                            
   DEXC   =    0.000                                                            
   RMAX   =    1.553    core radius for proj-oper                               
   RAUG   =    1.300    factor for augmentation sphere                          
   RDEP   =    1.550    radius for radial grids                                 
   RDEPT  =    1.329    core radius for aug-charge                              
                                                                                
   Atomic configuration                                                         
    4 entries                                                                   
     n  l   j            E        occ.                                          
     1  0  0.50      -514.6923   2.0000                                         
     2  0  0.50       -23.9615   2.0000                                         
     2  1  0.50        -9.0305   4.0000                                         
     3  2  1.50        -9.5241   0.0000                                         
   Description                                                                  
     l       E           TYP  RCUT    TYP  RCUT                                 
     0    -23.9615318     23  1.200                                             
     0     -9.5240782     23  1.200                                             
     1     -9.0304911     23  1.520                                             
     1      8.1634956     23  1.520                                             
     2     -9.5240782      7  1.500                                             
  local pseudopotential read in
  partial core-charges read in
  partial kinetic energy density read in
  kinetic energy density of atom read in
  atomic valenz-charges read in
  non local Contribution for L=           0  read in
    real space projection operators read in
  non local Contribution for L=           0  read in
    real space projection operators read in
  non local Contribution for L=           1  read in
    real space projection operators read in
  non local Contribution for L=           1  read in
    real space projection operators read in
    PAW grid and wavefunctions read in
 
   number of l-projection  operators is LMAX  =           4
   number of lm-projection operators is LMMAX =           8
 
 Optimization of the real space projectors (new method)

 maximal supplied QI-value         = 17.01
 optimisation between [QCUT,QGAM] = [ 12.42, 25.00] = [ 43.16,175.03] Ry 
 Optimized for a Real-space Cutoff    1.31 Angstroem

   l    n(q)    QCUT    max X(q) W(low)/X(q) W(high)/X(q)  e(spline) 
   1      9    12.415     4.267    0.74E-04    0.21E-03    0.25E-06
   1      9    12.415     5.750    0.12E-03    0.34E-03    0.39E-06
   2      9    12.415    53.656    0.15E-03    0.19E-03    0.27E-06
   2      9    12.415    49.521    0.16E-03    0.19E-03    0.28E-06
   0     10    12.415    31.246    0.29E-04    0.71E-04    0.14E-06
   0     10    12.415    12.201    0.24E-04    0.59E-04    0.12E-06
 Optimization of the real space projectors (new method)

 maximal supplied QI-value         = 24.76
 optimisation between [QCUT,QGAM] = [ 12.38, 25.00] = [ 42.90,175.06] Ry 
 Optimized for a Real-space Cutoff    1.16 Angstroem

   l    n(q)    QCUT    max X(q) W(low)/X(q) W(high)/X(q)  e(spline) 
   0      9    12.378    20.381    0.16E-03    0.67E-05    0.31E-06
   0      9    12.378    15.268    0.17E-03    0.81E-05    0.33E-06
   1      8    12.378     5.964    0.20E-03    0.16E-03    0.30E-06
   1      8    12.378     5.382    0.18E-03    0.14E-03    0.26E-06
  PAW_PBE Fe_pv 02Aug2007               :
 energy of atom  1       EATOM=-2457.4239
 kinetic energy error for atom=    0.0055 (will be added to EATOM!!)
  PAW_PBE O 08Apr2002                   :
 energy of atom  2       EATOM= -432.3788
 kinetic energy error for atom=    0.0168 (will be added to EATOM!!)
 
 
 POSCAR: Fe12 O18                                
  positions in direct lattice
  No initial velocities read in
 exchange correlation table for  LEXCH =        8
   RHO(1)=    0.500       N(1)  =     2000
   RHO(2)=  100.500       N(2)  =     4000
 


--------------------------------------------------------------------------------------------------------


 ion  position               nearest neighbor table
   1  0.000  0.000  0.355-  17 1.94  23 1.94  28 1.94  25 2.12  19 2.12  13 2.12
   2  0.000  0.000  0.645-  16 1.94  22 1.94  29 1.94  26 2.12  20 2.12  14 2.12
   3  0.333  0.667  0.022-  30 1.94  24 1.94  18 1.94  27 2.12  21 2.12  15 2.12
   4  0.667  0.333  0.689-  14 1.94  20 1.94  26 1.94  22 2.12  29 2.12  16 2.12
   5  0.333  0.667  0.311-  13 1.94  19 1.94  25 1.94  23 2.12  28 2.12  17 2.12
   6  0.667  0.333  0.978-  27 1.94  21 1.94  15 1.94  30 2.12  24 2.12  18 2.12
   7  0.000  0.000  0.145-  24 1.94  18 1.94  30 1.94  25 2.12  19 2.12  13 2.12
   8  0.000  0.000  0.855-  21 1.94  15 1.94  27 1.94  26 2.12  20 2.12  14 2.12
   9  0.333  0.667  0.811-  20 1.94  14 1.94  26 1.94  27 2.12  21 2.12  15 2.12
  10  0.333  0.667  0.522-  29 1.94  16 1.94  22 1.94  23 2.12  28 2.12  17 2.12
  11  0.667  0.333  0.478-  28 1.94  17 1.94  23 1.94  22 2.12  29 2.12  16 2.12
  12  0.667  0.333  0.189-  19 1.94  13 1.94  25 1.94  30 2.12  24 2.12  18 2.12
  13  0.306  0.000  0.250-   5 1.94  12 1.94   7 2.12   1 2.12
  14  0.694  0.000  0.750-   4 1.94   9 1.94   8 2.12   2 2.12
  15  0.640  0.667  0.917-   6 1.94   8 1.94   9 2.12   3 2.12
  16  0.973  0.333  0.583-  10 1.94   2 1.94   4 2.12  11 2.12
  17  0.027  0.667  0.417-  11 1.94   1 1.94   5 2.12  10 2.12
  18  0.360  0.333  0.083-   3 1.94   7 1.94  12 2.12   6 2.12
  19  0.000  0.306  0.250-  12 1.94   5 1.94   7 2.12   1 2.12
  20  0.000  0.694  0.750-   9 1.94   4 1.94   8 2.12   2 2.12
  21  0.333  0.973  0.917-   6 1.94   8 1.94   9 2.12   3 2.12
  22  0.667  0.640  0.583-  10 1.94   2 1.94   4 2.12  11 2.12
  23  0.333  0.360  0.417-  11 1.94   1 1.94   5 2.12  10 2.12
  24  0.667  0.027  0.083-   3 1.94   7 1.94  12 2.12   6 2.12
  25  0.694  0.694  0.250-  12 1.94   5 1.94   7 2.12   1 2.12
  26  0.306  0.306  0.750-   9 1.94   4 1.94   8 2.12   2 2.12
  27  0.027  0.360  0.917-   6 1.94   8 1.94   9 2.12   3 2.12
  28  0.640  0.973  0.417-  11 1.94   1 1.94   5 2.12  10 2.12
  29  0.360  0.027  0.583-  10 1.94   2 1.94   4 2.12  11 2.12
  30  0.973  0.640  0.083-   3 1.94   7 1.94  12 2.12   6 2.12
 
  LATTYP: Found a hexagonal cell.
 ALAT       =     5.0350995578
 C/A-ratio  =     2.7324385232
  
  Lattice vectors:
  
 A1 = (   5.0351000000,   0.0000000000,   0.0000000000)
 A2 = (  -2.5175500000,   4.3605240000,   0.0000000000)
 A3 = (   0.0000000000,   0.0000000000,  13.7581000000)


Analysis of symmetry for initial positions (statically):
=====================================================================
 Subroutine PRICEL returns following result:
 
  LATTYP: Found a trigonal (rhomboedric) cell.
 ALAT       =     5.4297801492
 COS(alpha) =     0.5700456062
  
  Lattice vectors:
  
 A1 = (  -2.5175449649,  -1.4535109070,  -4.5860425054)
 A2 = (  -0.0000025175,   2.9070174535,  -4.5860287473)
 A3 = (   2.5175474825,  -1.4535065465,  -4.5860287473)
 
   3 primitive cells build up your supercell.
 

 Routine SETGRP: Setting up the symmetry group for a 
 hexagonal supercell.


 Subroutine GETGRP returns: Found 12 space group operations
 (whereof  6 operations were pure point group operations)
 out of a pool of 24 trial point group operations.


The static configuration has the point symmetry S_6 .
 The point group associated with its full space group is D_3d.


Analysis of symmetry for dynamics (positions and initial velocities):
=====================================================================
 Subroutine PRICEL returns following result:
 
  LATTYP: Found a trigonal (rhomboedric) cell.
 ALAT       =     5.4297801492
 COS(alpha) =     0.5700456062
  
  Lattice vectors:
  
 A1 = (  -2.5175449649,  -1.4535109070,  -4.5860425054)
 A2 = (  -0.0000025175,   2.9070174535,  -4.5860287473)
 A3 = (   2.5175474825,  -1.4535065465,  -4.5860287473)
 
   3 primitive cells build up your supercell.
 

 Routine SETGRP: Setting up the symmetry group for a 
 hexagonal supercell.


 Subroutine GETGRP returns: Found 12 space group operations
 (whereof  6 operations were pure point group operations)
 out of a pool of 24 trial point group operations.


The dynamic configuration has the point symmetry S_6 .
 The point group associated with its full space group is D_3d.


Analysis of structural, dynamic, and magnetic symmetry:
=====================================================================
 Subroutine PRICEL returns following result:
 
  LATTYP: Found a trigonal (rhomboedric) cell.
 ALAT       =     5.4297801492
 COS(alpha) =     0.5700456062
  
  Lattice vectors:
  
 A1 = (  -2.5175449649,  -1.4535109070,  -4.5860425054)
 A2 = (  -0.0000025175,   2.9070174535,  -4.5860287473)
 A3 = (   2.5175474825,  -1.4535065465,  -4.5860287473)
 
   3 primitive cells build up your supercell.
 

 Routine SETGRP: Setting up the symmetry group for a 
 hexagonal supercell.


 Subroutine GETGRP returns: Found 12 space group operations
 (whereof  6 operations were pure point group operations)
 out of a pool of 24 trial point group operations.


The magnetic configuration has the point symmetry S_6 .
 The point group associated with its full space group is D_3d.


 Subroutine INISYM returns: Found 12 space group operations
 (whereof  6 operations are pure point group operations),
 and found     3 'primitive' translations

 
 
 KPOINTS: pymatgen with grid density = 2464 / numb

Automatic generation of k-mesh.
Space group operators:
 irot       det(A)        alpha          n_x          n_y          n_z        tau_x        tau_y        tau_z
    1     1.000000     0.000000     1.000000     0.000000     0.000000     0.000000     0.000000     0.000000
    2    -1.000000     0.000000     1.000000     0.000000     0.000000     0.000000     0.000000     0.000000
    3     1.000000   120.000000     0.000000     0.000000    -1.000000     0.000000     0.000000     0.000000
    4    -1.000000   120.000000     0.000000     0.000000    -1.000000     0.000000     0.000000     0.000000
    5     1.000000   120.000000     0.000000     0.000000     1.000000     0.000000     0.000000     0.000000
    6    -1.000000   120.000000     0.000000     0.000000     1.000000     0.000000     0.000000     0.000000
    7     1.000000   180.000000     1.000000     0.000000     0.000000     0.000001    -0.000000    -0.500000
    8    -1.000000   180.000000     1.000000     0.000000     0.000000     0.000001    -0.000000    -0.500000
    9     1.000000   180.000000     0.500000    -0.866025     0.000000     0.000000     0.000000    -0.500000
   10    -1.000000   180.000000     0.500000    -0.866025     0.000000     0.000000     0.000000    -0.500000
   11     1.000000   180.000000    -0.500000    -0.866025     0.000000     0.000000     0.000000    -0.500000
   12    -1.000000   180.000000    -0.500000    -0.866025     0.000000     0.000000     0.000000    -0.500000
 
 Subroutine IBZKPT returns following result:
 ===========================================
 
 Found     14 irreducible k-points:
 
 Following reciprocal coordinates:
            Coordinates               Weight
  0.000000  0.000000  0.000000      1.000000
  0.166667  0.000000  0.000000      6.000000
  0.333333  0.000000  0.000000      6.000000
  0.500000  0.000000  0.000000      3.000000
  0.166667  0.166667  0.000000      6.000000
  0.333333  0.166667  0.000000     12.000000
  0.333333  0.333333  0.000000      2.000000
  0.000000  0.000000  0.500000      1.000000
  0.166667  0.000000  0.500000      6.000000
  0.333333  0.000000  0.500000      6.000000
  0.500000  0.000000  0.500000      3.000000
  0.166667  0.166667  0.500000      6.000000
  0.333333  0.166667  0.500000     12.000000
  0.333333  0.333333  0.500000      2.000000
 
 Following cartesian coordinates:
            Coordinates               Weight
  0.000000  0.000000  0.000000      1.000000
  0.033101  0.019111  0.000000      6.000000
  0.066202  0.038222  0.000000      6.000000
  0.099303  0.057333  0.000000      3.000000
  0.033101  0.057333  0.000000      6.000000
  0.066202  0.076443  0.000000     12.000000
  0.066202  0.114665  0.000000      2.000000
  0.000000  0.000000  0.036342      1.000000
  0.033101  0.019111  0.036342      6.000000
  0.066202  0.038222  0.036342      6.000000
  0.099303  0.057333  0.036342      3.000000
  0.033101  0.057333  0.036342      6.000000
  0.066202  0.076443  0.036342     12.000000
  0.066202  0.114665  0.036342      2.000000
 
 TETIRR: Found     71 inequivalent tetrahedra from      432


--------------------------------------------------------------------------------------------------------




 Dimension of arrays:
   k-points           NKPTS =     14   k-points in BZ     NKDIM =     14   number of bands    NBANDS=    204
   number of dos      NEDOS =    301   number of ions     NIONS =     30
   non local maximal  LDIM  =      6   non local SUM 2l+1 LMDIM =     18
   total plane-waves  NPLWV = 179200
   max r-space proj   IRMAX =   5594   max aug-charges    IRDMAX=  17768
   dimension x,y,z NGX =    40 NGY =   40 NGZ =  112
   dimension x,y,z NGXF=    80 NGYF=   80 NGZF=  224
   support grid    NGXF=    80 NGYF=   80 NGZF=  224
   ions per type =              12  18
   NGX,Y,Z   is equivalent  to a cutoff of  13.21, 13.21, 13.53 a.u.
   NGXF,Y,Z  is equivalent  to a cutoff of  26.41, 26.41, 27.07 a.u.

 SYSTEM =  unknown system                          
 POSCAR =  Fe12 O18                                

 Startparameter for this run:
   NWRITE =      2    write-flag & timer
   PREC   = accura    normal or accurate (medium, high low for compatibility)
   ISTART =      0    job   : 0-new  1-cont  2-samecut
   ICHARG =      2    charge: 1-file 2-atom 10-const
   ISPIN  =      2    spin polarized calculation?
   LNONCOLLINEAR =      F non collinear calculations
   LSORBIT =      F    spin-orbit coupling
   INIWAV =      1    electr: 0-lowe 1-rand  2-diag
   LASPH  =      F    aspherical Exc in radial PAW
   METAGGA=      F    non-selfconsistent MetaGGA calc.

 Electronic Relaxation 1
   ENCUT  =  600.0 eV  44.10 Ry    6.64 a.u.  10.06 10.06 27.48*2*pi/ulx,y,z
   ENINI  =  600.0     initial cutoff
   ENAUG  =  605.4 eV  augmentation charge cutoff
   NELM   =    100;   NELMIN=  2; NELMDL= -5     # of ELM steps 
   EDIFF  = 0.1E-06   stopping-criterion for ELM
   LREAL  =      T    real-space projection
   NLSPLINE    = F    spline interpolate recip. space projectors
   LCOMPAT=      F    compatible to vasp.4.4
   GGA_COMPAT  = T    GGA compatible to vasp.4.4-vasp.4.6
   LMAXPAW     = -100 max onsite density
   LMAXMIX     =    2 max onsite mixed and CHGCAR
   VOSKOWN=      0    Vosko Wilk Nusair interpolation
   ROPT   =   -0.00025  -0.00025
 Ionic relaxation
   EDIFFG = 0.1E-05   stopping-criterion for IOM
   NSW    =      0    number of steps for IOM
   NBLOCK =      1;   KBLOCK =      1    inner block; outer block 
   IBRION =     -1    ionic relax: 0-MD 1-quasi-New 2-CG
   NFREE  =      0    steps in history (QN), initial steepest desc. (CG)
   ISIF   =      3    stress and relaxation
   IWAVPR =     10    prediction:  0-non 1-charg 2-wave 3-comb
   ISYM   =      2    0-nonsym 1-usesym 2-fastsym
   LCORR  =      T    Harris-Foulkes like correction to forces

   POTIM  = 0.5000    time-step for ionic-motion
   TEIN   =    0.0    initial temperature
   TEBEG  =    0.0;   TEEND  =   0.0 temperature during run
   SMASS  =  -3.00    Nose mass-parameter (am)
   estimated Nose-frequenzy (Omega)   =  0.10E-29 period in steps =****** mass=  -0.579E-27a.u.
   SCALEE = 1.0000    scale energy and forces
   NPACO  =    256;   APACO  = 16.0  distance and # of slots for P.C.
   PSTRESS=    0.0 pullay stress

  Mass of Ions in am
   POMASS =  55.85 16.00
  Ionic Valenz
   ZVAL   =  14.00  6.00
  Atomic Wigner-Seitz radii
   RWIGS  =  -1.00 -1.00
  virtual crystal weights 
   VCA    =   1.00  1.00
   NELECT =     276.0000    total number of electrons
   NUPDOWN=      -1.0000    fix difference up-down

 DOS related values:
   EMIN   =  10.00;   EMAX   =-10.00  energy-range for DOS
   EFERMI =   0.00
   ISMEAR =    -5;   SIGMA  =   0.05  broadening in eV -4-tet -1-fermi 0-gaus

 Electronic relaxation 2 (details)
   IALGO  =     38    algorithm
   LDIAG  =      T    sub-space diagonalisation (order eigenvalues)
   LSUBROT=      F    optimize rotation matrix (better conditioning)
   TURBO    =      0    0=normal 1=particle mesh
   IRESTART =      0    0=no restart 2=restart with 2 vectors
   NREBOOT  =      0    no. of reboots
   NMIN     =      0    reboot dimension
   EREF     =   0.00    reference energy to select bands
   IMIX   =      4    mixing-type and parameters
     AMIX     =   0.40;   BMIX     =  1.00
     AMIX_MAG =   1.60;   BMIX_MAG =  1.00
     AMIN     =   0.10
     WC   =   100.;   INIMIX=   1;  MIXPRE=   1;  MAXMIX= -45

 Intra band minimization:
   WEIMIN = 0.0000     energy-eigenvalue tresh-hold
   EBREAK =  0.12E-09  absolut break condition
   DEPER  =   0.30     relativ break condition  

   TIME   =   0.40     timestep for ELM

  volume/ion in A,a.u.               =      10.07        67.95
  Fermi-wavevector in a.u.,A,eV,Ry     =   1.588581  3.001983 34.335534  2.523591
  Thomas-Fermi vector in A             =   2.687563
 
 Write flags
   LWAVE        =      F    write WAVECAR
   LDOWNSAMPLE  =      F    k-point downsampling of WAVECAR
   LCHARG       =      F    write CHGCAR
   LVTOT        =      F    write LOCPOT, total local potential
   LVHAR        =      F    write LOCPOT, Hartree potential only
   LELF         =      F    write electronic localiz. function (ELF)
   LORBIT       =     11    0 simple, 1 ext, 2 COOP (PROOUT), +10 PAW based schemes


 Dipole corrections
   LMONO  =      F    monopole corrections only (constant potential shift)
   LDIPOL =      F    correct potential (dipole corrections)
   IDIPOL =      0    1-x, 2-y, 3-z, 4-all directions 
   EPSILON=  1.0000000 bulk dielectric constant

 Exchange correlation treatment:
   GGA     =    --    GGA type
   LEXCH   =     8    internal setting for exchange type
   VOSKOWN=      0    Vosko Wilk Nusair interpolation
   LHFCALC =     F    Hartree Fock is set to
   LHFONE  =     F    Hartree Fock one center treatment
   AEXX    =    0.0000 exact exchange contribution

 Linear response parameters
   LEPSILON=     F    determine dielectric tensor
   LRPA    =     F    only Hartree local field effects (RPA)
   LNABLA  =     F    use nabla operator in PAW spheres
   LVEL    =     F    velocity operator in full k-point grid
   LINTERFAST=   F  fast interpolation
   KINTER  =     0    interpolate to denser k-point grid
   CSHIFT  =0.1000    complex shift for real part using Kramers Kronig
   OMEGAMAX=  -1.0    maximum frequency
   DEG_THRESHOLD= 0.2000000E-02 threshold for treating states as degnerate
   RTIME   =   -0.100 relaxation time in fs
  (WPLASMAI=    0.000 imaginary part of plasma frequency in eV, 0.658/RTIME)
   DFIELD  = 0.0000000 0.0000000 0.0000000 field for delta impulse in time
 
 Orbital magnetization related:
   ORBITALMAG=     F  switch on orbital magnetization
   LCHIMAG   =     F  perturbation theory with respect to B field
   DQ        =  0.001000  dq finite difference perturbation B field
   LLRAUG    =     F  two centre corrections for induced B field



--------------------------------------------------------------------------------------------------------


 Static calculation
 charge density and potential will be updated during run
 spin polarized calculation
 Variant of blocked Davidson
 Davidson routine will perform the subspace rotation
 perform sub-space diagonalisation
    after iterative eigenvector-optimisation
 modified Broyden-mixing scheme, WC =      100.0
 initial mixing is a Kerker type mixing with AMIX =  0.4000 and BMIX =      1.0000
 Hartree-type preconditioning will be used
 using additional bands           66
 real space projection scheme for non local part
 use partial core corrections
 calculate Harris-corrections to forces 
   (improved forces if not selfconsistent)
 use gradient corrections 
 use of overlap-Matrix (Vanderbilt PP)
 Fermi weights with tetrahedron method with Bloechl corrections


--------------------------------------------------------------------------------------------------------


  energy-cutoff  :      600.00
  volume of cell :      302.07
      direct lattice vectors                 reciprocal lattice vectors
     5.035100000  0.000000000  0.000000000     0.198605787  0.114665118  0.000000000
    -2.517550000  4.360524000  0.000000000     0.000000000  0.229330236  0.000000000
     0.000000000  0.000000000 13.758100000     0.000000000  0.000000000  0.072684455

  length of vectors
     5.035100000  5.035099558 13.758100000     0.229330216  0.229330236  0.072684455


 
 k-points in units of 2pi/SCALE and weight: pymatgen with grid density = 2464 / numb
   0.00000000  0.00000000  0.00000000       0.014
   0.03310096  0.01911085  0.00000000       0.083
   0.06620193  0.03822171  0.00000000       0.083
   0.09930289  0.05733256  0.00000000       0.042
   0.03310096  0.05733256  0.00000000       0.083
   0.06620193  0.07644341  0.00000000       0.167
   0.06620193  0.11466512  0.00000000       0.028
   0.00000000  0.00000000  0.03634223       0.014
   0.03310096  0.01911085  0.03634223       0.083
   0.06620193  0.03822171  0.03634223       0.083
   0.09930289  0.05733256  0.03634223       0.042
   0.03310096  0.05733256  0.03634223       0.083
   0.06620193  0.07644341  0.03634223       0.167
   0.06620193  0.11466512  0.03634223       0.028
 
 k-points in reciprocal lattice and weights: pymatgen with grid density = 2464 / numb
   0.00000000  0.00000000  0.00000000       0.014
   0.16666667  0.00000000  0.00000000       0.083
   0.33333333  0.00000000  0.00000000       0.083
   0.50000000  0.00000000  0.00000000       0.042
   0.16666667  0.16666667  0.00000000       0.083
   0.33333333  0.16666667  0.00000000       0.167
   0.33333333  0.33333333  0.00000000       0.028
   0.00000000  0.00000000  0.50000000       0.014
   0.16666667  0.00000000  0.50000000       0.083
   0.33333333  0.00000000  0.50000000       0.083
   0.50000000  0.00000000  0.50000000       0.042
   0.16666667  0.16666667  0.50000000       0.083
   0.33333333  0.16666667  0.50000000       0.167
   0.33333333  0.33333333  0.50000000       0.028
 
 position of ions in fractional coordinates (direct lattice) 
   0.00000000  0.00000000  0.35532000
   0.00000000  0.00000000  0.64468000
   0.33333300  0.66666700  0.02198700
   0.66666700  0.33333300  0.68865300
   0.33333300  0.66666700  0.31134700
   0.66666700  0.33333300  0.97801300
   0.00000000  0.00000000  0.14468000
   0.00000000  0.00000000  0.85532000
   0.33333300  0.66666700  0.81134700
   0.33333300  0.66666700  0.52198700
   0.66666700  0.33333300  0.47801300
   0.66666700  0.33333300  0.18865300
   0.30618000  0.00000000  0.25000000
   0.69382000  0.00000000  0.75000000
   0.63951300  0.66666700  0.91666700
   0.97284700  0.33333300  0.58333300
   0.02715300  0.66666700  0.41666700
   0.36048700  0.33333300  0.08333300
   0.00000000  0.30618000  0.25000000
   0.00000000  0.69382000  0.75000000
   0.33333300  0.97284700  0.91666700
   0.66666700  0.63951300  0.58333300
   0.33333300  0.36048700  0.41666700
   0.66666700  0.02715300  0.08333300
   0.69382000  0.69382000  0.25000000
   0.30618000  0.30618000  0.75000000
   0.02715300  0.36048700  0.91666700
   0.63951300  0.97284700  0.41666700
   0.36048700  0.02715300  0.58333300
   0.97284700  0.63951300  0.08333300
 
 position of ions in cartesian coordinates  (Angst):
   0.00000000  0.00000000  4.88852809
   0.00000000  0.00000000  8.86957191
  -0.00000252  2.90701745  0.30249934
   2.51755252  1.45350655  9.47455684
  -0.00000252  2.90701745  4.28354316
   2.51755252  1.45350655 13.45560066
   0.00000000  0.00000000  1.99052191
   0.00000000  0.00000000 11.76757809
  -0.00000252  2.90701745 11.16259316
  -0.00000252  2.90701745  7.18154934
   2.51755252  1.45350655  6.57655066
   2.51755252  1.45350655  2.59550684
   1.54164692  0.00000000  3.43952500
   3.49345308  0.00000000 10.31857500
   1.54164440  2.90701745 12.61159625
   4.05919944  1.45350655  8.02555375
  -1.54164944  2.90701745  5.73254625
   0.97590560  1.45350655  1.14650375
  -0.77082346  1.33510524  3.43952500
  -1.74672654  3.02541876 10.31857500
  -0.77082598  4.24212269 12.61159625
   1.74672906  2.78861178  8.02555375
   0.77082094  1.57191222  5.73254625
   3.28837598  0.11840131  1.14650375
   1.74672654  3.02541876  3.43952500
   0.77082346  1.33510524 10.31857500
  -0.77082598  1.57191222 12.61159625
   0.77082094  4.24212269  5.73254625
   1.74672906  0.11840131  8.02555375
   3.28837598  2.78861178  1.14650375
 


--------------------------------------------------------------------------------------------------------


 k-point  1 :   0.0000 0.0000 0.0000  plane waves:   10069
 k-point  2 :   0.1667 0.0000 0.0000  plane waves:   10075
 k-point  3 :   0.3333 0.0000 0.0000  plane waves:   10068
 k-point  4 :   0.5000 0.0000 0.0000  plane waves:   10052
 k-point  5 :   0.1667 0.1667 0.0000  plane waves:   10092
 k-point  6 :   0.3333 0.1667 0.0000  plane waves:   10095
 k-point  7 :   0.3333 0.3333 0.0000  plane waves:   10110
 k-point  8 :   0.0000 0.0000 0.5000  plane waves:    9978
 k-point  9 :   0.1667 0.0000 0.5000  plane waves:   10054
 k-point 10 :   0.3333 0.0000 0.5000  plane waves:   10096
 k-point 11 :   0.5000 0.0000 0.5000  plane waves:   10108
 k-point 12 :   0.1667 0.1667 0.5000  plane waves:   10070
 k-point 13 :   0.3333 0.1667 0.5000  plane waves:   10110
 k-point 14 :   0.3333 0.3333 0.5000  plane waves:   10110

 maximum and minimum number of plane-waves per node :      2547     2485

 maximum number of plane-waves:     10110
 maximum index in each direction: 
   IXMAX=   10   IYMAX=   10   IZMAX=   27
   IXMIN=  -10   IYMIN=  -10   IZMIN=  -27


 real space projection operators:
  total allocation   :      13332.75 KBytes
  max/ min on nodes  :       3338.31       3324.81


 parallel 3D FFT for wavefunctions:
    minimum data exchange during FFTs selected (reduces bandwidth)
 parallel 3D FFT for charge:
    minimum data exchange during FFTs selected (reduces bandwidth)


 total amount of memory used by VASP MPI-rank0    90518. kBytes
=======================================================================

   base      :      30000. kBytes
   nonlr-proj:       6945. kBytes
   fftplans  :       3650. kBytes
   grid      :       9372. kBytes
   one-center:        248. kBytes
   wavefun   :      40303. kBytes
 
     INWAV:  cpu time    0.0000: real time    0.0001
 Broyden mixing: mesh for mixing (old mesh)
   NGX = 21   NGY = 21   NGZ = 55
  (NGX  = 80   NGY  = 80   NGZ  =224)
  gives a total of  24255 points

 initial charge density was supplied:
 charge density of overlapping atoms calculated
 number of electron     276.0000000 magnetization      70.8000000
 keeping initial charge density in first step


--------------------------------------------------------------------------------------------------------


 Maximum index for non-local projection operator         1368
 Maximum index for augmentation-charges         1315 (set IRDMAX)


--------------------------------------------------------------------------------------------------------


 First call to EWALD:  gamma=   0.264
 Maximum number of real-space cells 4x 4x 2
 Maximum number of reciprocal cells 2x 2x 5

    FEWALD:  cpu time    0.0018: real time    0.0018


--------------------------------------- Iteration      1(   1)  ---------------------------------------


    POTLOK:  cpu time    0.0874: real time    0.0890
    SETDIJ:  cpu time    0.0131: real time    0.0131
     EDDAV:  cpu time   12.1849: real time   12.2252
 BZINTS: Fermi energy: 29.269365;276.000000 electrons
         Band energy:1418.994549;  BLOECHL correction: -0.099563
       DOS:  cpu time    0.0442: real time    0.0443
    --------------------------------------------
      LOOP:  cpu time   12.3296: real time   12.3717

 eigenvalue-minimisations  : 11496
 total energy-change (2. order) : 0.4435353E+04  (-0.1497030E+05)
 number of electron     276.0000000 magnetization      70.8000000
 augmentation part      276.0000000 magnetization      70.8000000

 Free energy of the ion-electron system (eV)
  ---------------------------------------------------
  alpha Z        PSCENC =      1362.55286497
  Ewald energy   TEWEN  =    -25513.06237826
  -Hartree energ DENC   =    -10371.14386019
  -exchange      EXHF   =         0.00000000
  -V(xc)+E(xc)   XCENC  =      1375.27778806
  PAW double counting   =     30224.59406688   -31333.39571732
  entropy T*S    EENTRO =         0.00000000
  eigenvalues    EBANDS =      1418.99454910
  atomic energy  EATOM  =     37271.53585629
  Solvation  Ediel_sol  =         0.00000000
  ---------------------------------------------------
  free energy    TOTEN  =      4435.35316953 eV

  energy without entropy =     4435.35316953  energy(sigma->0) =     4435.35316953


--------------------------------------------------------------------------------------------------------




--------------------------------------- Iteration      1(   2)  ---------------------------------------


     EDDAV:  cpu time   11.8807: real time   11.9214
 BZINTS: Fermi energy: 11.536244;276.000000 electrons
         Band energy:***********;  BLOECHL correction: -0.038700
       DOS:  cpu time    0.0449: real time    0.0450
    --------------------------------------------
      LOOP:  cpu time   11.9256: real time   11.9664

 eigenvalue-minimisations  : 11424
 total energy-change (2. order) :-0.3958503E+04  (-0.3605994E+04)
 number of electron     276.0000000 magnetization      70.8000000
 augmentation part      276.0000000 magnetization      70.8000000

 Free energy of the ion-electron system (eV)
  ---------------------------------------------------
  alpha Z        PSCENC =      1362.55286497
  Ewald energy   TEWEN  =    -25513.06237826
  -Hartree energ DENC   =    -10371.14386019
  -exchange      EXHF   =         0.00000000
  -V(xc)+E(xc)   XCENC  =      1375.27778806
  PAW double counting   =     30224.59406688   -31333.39571732
  entropy T*S    EENTRO =         0.00000000
  eigenvalues    EBANDS =     -2539.50826924
  atomic energy  EATOM  =     37271.53585629
  Solvation  Ediel_sol  =         0.00000000
  ---------------------------------------------------
  free energy    TOTEN  =       476.85035119 eV

  energy without entropy =      476.85035119  energy(sigma->0) =      476.85035119


--------------------------------------------------------------------------------------------------------




--------------------------------------- Iteration      1(   3)  ---------------------------------------


     EDDAV:  cpu time   12.7365: real time   12.7689
 BZINTS: Fermi energy:  8.568683;276.000000 electrons
         Band energy:***********;  BLOECHL correction:  0.000000
       DOS:  cpu time    0.0072: real time    0.0072
    --------------------------------------------
      LOOP:  cpu time   12.7437: real time   12.7760

 eigenvalue-minimisations  : 11880
 total energy-change (2. order) :-0.7239377E+03  (-0.6409674E+03)
 number of electron     276.0000000 magnetization      70.8000000
 augmentation part      276.0000000 magnetization      70.8000000

 Free energy of the ion-electron system (eV)
  ---------------------------------------------------
  alpha Z        PSCENC =      1362.55286497
  Ewald energy   TEWEN  =    -25513.06237826
  -Hartree energ DENC   =    -10371.14386019
  -exchange      EXHF   =         0.00000000
  -V(xc)+E(xc)   XCENC  =      1375.27778806
  PAW double counting   =     30224.59406688   -31333.39571732
  entropy T*S    EENTRO =         0.00000000
  eigenvalues    EBANDS =     -3263.44600908
  atomic energy  EATOM  =     37271.53585629
  Solvation  Ediel_sol  =         0.00000000
  ---------------------------------------------------
  free energy    TOTEN  =      -247.08738865 eV

  energy without entropy =     -247.08738865  energy(sigma->0) =     -247.08738865


--------------------------------------------------------------------------------------------------------




--------------------------------------- Iteration      1(   4)  ---------------------------------------


     EDDAV:  cpu time   13.3178: real time   13.3523
 BZINTS: Fermi energy:  8.308653;276.000000 electrons
         Band energy:***********;  BLOECHL correction:  0.000000
       DOS:  cpu time    0.0072: real time    0.0073
    --------------------------------------------
      LOOP:  cpu time   13.3251: real time   13.3596

 eigenvalue-minimisations  : 12948
 total energy-change (2. order) :-0.4681637E+02  (-0.4626835E+02)
 number of electron     276.0000000 magnetization      70.8000000
 augmentation part      276.0000000 magnetization      70.8000000

 Free energy of the ion-electron system (eV)
  ---------------------------------------------------
  alpha Z        PSCENC =      1362.55286497
  Ewald energy   TEWEN  =    -25513.06237826
  -Hartree energ DENC   =    -10371.14386019
  -exchange      EXHF   =         0.00000000
  -V(xc)+E(xc)   XCENC  =      1375.27778806
  PAW double counting   =     30224.59406688   -31333.39571732
  entropy T*S    EENTRO =         0.00000000
  eigenvalues    EBANDS =     -3310.26238247
  atomic energy  EATOM  =     37271.53585629
  Solvation  Ediel_sol  =         0.00000000
  ---------------------------------------------------
  free energy    TOTEN  =      -293.90376204 eV

  energy without entropy =     -293.90376204  energy(sigma->0) =     -293.90376204


--------------------------------------------------------------------------------------------------------




--------------------------------------- Iteration      1(   5)  ---------------------------------------


     EDDAV:  cpu time   12.9224: real time   12.9558
 BZINTS: Fermi energy:  8.285501;276.000000 electrons
         Band energy:***********;  BLOECHL correction:  0.000000
       DOS:  cpu time    0.0073: real time    0.0073
    CHARGE:  cpu time    0.4277: real time    0.4288
    MIXING:  cpu time    0.0020: real time    0.0021
    --------------------------------------------
      LOOP:  cpu time   13.3593: real time   13.3940

 eigenvalue-minimisations  : 12720
 total energy-change (2. order) :-0.5226580E+00  (-0.5212447E+00)
 number of electron     275.9999996 magnetization      67.8179404
 augmentation part      108.0267262 magnetization      47.0429957

 Broyden mixing:
  rms(total) = 0.80962E+01    rms(broyden)= 0.80960E+01
  rms(prec ) = 0.88422E+01
  weight for this iteration     100.00

 Free energy of the ion-electron system (eV)
  ---------------------------------------------------
  alpha Z        PSCENC =      1362.55286497
  Ewald energy   TEWEN  =    -25513.06237826
  -Hartree energ DENC   =    -10371.14386019
  -exchange      EXHF   =         0.00000000
  -V(xc)+E(xc)   XCENC  =      1375.27778806
  PAW double counting   =     30224.59406688   -31333.39571732
  entropy T*S    EENTRO =         0.00000000
  eigenvalues    EBANDS =     -3310.78504045
  atomic energy  EATOM  =     37271.53585629
  Solvation  Ediel_sol  =         0.00000000
  ---------------------------------------------------
  free energy    TOTEN  =      -294.42642002 eV

  energy without entropy =     -294.42642002  energy(sigma->0) =     -294.42642002


--------------------------------------------------------------------------------------------------------




--------------------------------------- Iteration      1(   6)  ---------------------------------------


    POTLOK:  cpu time    0.0820: real time    0.0823
    SETDIJ:  cpu time    0.0130: real time    0.0130
     EDDAV:  cpu time   14.5653: real time   14.6020
 BZINTS: Fermi energy:  5.536285;276.000000 electrons
         Band energy:***********;  BLOECHL correction: -0.054768
       DOS:  cpu time    0.0496: real time    0.0498
    CHARGE:  cpu time    0.4408: real time    0.4420
    MIXING:  cpu time    0.0021: real time    0.0021
    --------------------------------------------
      LOOP:  cpu time   15.1528: real time   15.1912

 eigenvalue-minimisations  : 14784
 total energy-change (2. order) : 0.5909514E+02  (-0.2534286E+02)
 number of electron     275.9999989 magnetization      62.9829420
 augmentation part      120.7430797 magnetization      54.4252704

 Broyden mixing:
  rms(total) = 0.91376E+01    rms(broyden)= 0.91372E+01
  rms(prec ) = 0.97886E+01
  weight for this iteration     100.00

 eigenvalues of (default mixing * dielectric matrix)
  average eigenvalue GAMMA=   0.3182
  0.3182

 Free energy of the ion-electron system (eV)
  ---------------------------------------------------
  alpha Z        PSCENC =      1362.55286497
  Ewald energy   TEWEN  =    -25513.06237826
  -Hartree energ DENC   =     -9965.96605079
  -exchange      EXHF   =         0.00000000
  -V(xc)+E(xc)   XCENC  =      1376.65883210
  PAW double counting   =     31435.39598895   -32502.34351888
  entropy T*S    EENTRO =         0.00000000
  eigenvalues    EBANDS =     -3700.10287017
  atomic energy  EATOM  =     37271.53585629
  Solvation  Ediel_sol  =         0.00000000
  ---------------------------------------------------
  free energy    TOTEN  =      -235.33127579 eV

  energy without entropy =     -235.33127579  energy(sigma->0) =     -235.33127579


--------------------------------------------------------------------------------------------------------




--------------------------------------- Iteration      1(   7)  ---------------------------------------


    POTLOK:  cpu time    0.0808: real time    0.0811
    SETDIJ:  cpu time    0.0131: real time    0.0132
     EDDAV:  cpu time   12.5521: real time   12.5842
 BZINTS: Fermi energy:  7.085214;276.000000 electrons
         Band energy:***********;  BLOECHL correction: -0.036275
       DOS:  cpu time    0.0484: real time    0.0487
    CHARGE:  cpu time    0.4361: real time    0.4371
    MIXING:  cpu time    0.0020: real time    0.0020
    --------------------------------------------
      LOOP:  cpu time   13.1325: real time   13.1663

 eigenvalue-minimisations  : 12240
 total energy-change (2. order) : 0.2357371E+02  (-0.1143919E+02)
 number of electron     275.9999994 magnetization      58.7917484
 augmentation part      109.3572598 magnetization      40.3118303

 Broyden mixing:
  rms(total) = 0.43717E+01    rms(broyden)= 0.43715E+01
  rms(prec ) = 0.45319E+01
  weight for this iteration     100.00

 eigenvalues of (default mixing * dielectric matrix)
  average eigenvalue GAMMA=   0.6790
  1.0280  0.3299

 Free energy of the ion-electron system (eV)
  ---------------------------------------------------
  alpha Z        PSCENC =      1362.55286497
  Ewald energy   TEWEN  =    -25513.06237826
  -Hartree energ DENC   =    -10208.19172980
  -exchange      EXHF   =         0.00000000
  -V(xc)+E(xc)   XCENC  =      1372.41273522
  PAW double counting   =     32868.85389154   -33997.39806277
  entropy T*S    EENTRO =         0.00000000
  eigenvalues    EBANDS =     -3368.46074767
  atomic energy  EATOM  =     37271.53585629
  Solvation  Ediel_sol  =         0.00000000
  ---------------------------------------------------
  free energy    TOTEN  =      -211.75757048 eV

  energy without entropy =     -211.75757048  energy(sigma->0) =     -211.75757048


--------------------------------------------------------------------------------------------------------




--------------------------------------- Iteration      1(   8)  ---------------------------------------


    POTLOK:  cpu time    0.0815: real time    0.0818
    SETDIJ:  cpu time    0.0128: real time    0.0129
     EDDAV:  cpu time   12.4813: real time   12.5130
 BZINTS: Fermi energy:  6.451088;276.000000 electrons
         Band energy:***********;  BLOECHL correction: -0.034134
       DOS:  cpu time    0.0501: real time    0.0502
    CHARGE:  cpu time    0.4369: real time    0.4380
    MIXING:  cpu time    0.0021: real time    0.0021
    --------------------------------------------
      LOOP:  cpu time   13.0647: real time   13.0979

 eigenvalue-minimisations  : 12132
 total energy-change (2. order) :-0.6521574E+01  (-0.2135876E+01)
 number of electron     275.9999994 magnetization      51.9218476
 augmentation part      111.2699426 magnetization      35.0062232

 Broyden mixing:
  rms(total) = 0.26490E+01    rms(broyden)= 0.26490E+01
  rms(prec ) = 0.27092E+01
  weight for this iteration     100.00

 eigenvalues of (default mixing * dielectric matrix)
  average eigenvalue GAMMA=   1.0775
  2.2666  0.5839  0.3821

 Free energy of the ion-electron system (eV)
  ---------------------------------------------------
  alpha Z        PSCENC =      1362.55286497
  Ewald energy   TEWEN  =    -25513.06237826
  -Hartree energ DENC   =    -10073.18112783
  -exchange      EXHF   =         0.00000000
  -V(xc)+E(xc)   XCENC  =      1366.43546228
  PAW double counting   =     34229.85093781   -35370.18313982
  entropy T*S    EENTRO =         0.00000000
  eigenvalues    EBANDS =     -3492.22761944
  atomic energy  EATOM  =     37271.53585629
  Solvation  Ediel_sol  =         0.00000000
  ---------------------------------------------------
  free energy    TOTEN  =      -218.27914400 eV

  energy without entropy =     -218.27914400  energy(sigma->0) =     -218.27914400


--------------------------------------------------------------------------------------------------------




--------------------------------------- Iteration      1(   9)  ---------------------------------------


    POTLOK:  cpu time    0.0811: real time    0.0814
    SETDIJ:  cpu time    0.0131: real time    0.0131
     EDDAV:  cpu time   12.4097: real time   12.4413
 BZINTS: Fermi energy:  5.878379;276.000000 electrons
         Band energy:***********;  BLOECHL correction: -0.039006
       DOS:  cpu time    0.0495: real time    0.0496
    CHARGE:  cpu time    0.4356: real time    0.4367
    MIXING:  cpu time    0.0021: real time    0.0021
    --------------------------------------------
      LOOP:  cpu time   12.9911: real time   13.0241

 eigenvalue-minimisations  : 12576
 total energy-change (2. order) :-0.4209143E+01  (-0.8243413E+00)
 number of electron     275.9999993 magnetization      50.9223695
 augmentation part      114.1634614 magnetization      37.8297085

 Broyden mixing:
  rms(total) = 0.27306E+01    rms(broyden)= 0.27305E+01
  rms(prec ) = 0.28627E+01
  weight for this iteration     100.00

 eigenvalues of (default mixing * dielectric matrix)
  average eigenvalue GAMMA=   1.1011
  2.8502  0.8035  0.3753  0.3753

 Free energy of the ion-electron system (eV)
  ---------------------------------------------------
  alpha Z        PSCENC =      1362.55286497
  Ewald energy   TEWEN  =    -25513.06237826
  -Hartree energ DENC   =     -9932.78064436
  -exchange      EXHF   =         0.00000000
  -V(xc)+E(xc)   XCENC  =      1362.34303825
  PAW double counting   =     36524.31312174   -37693.50175855
  entropy T*S    EENTRO =         0.00000000
  eigenvalues    EBANDS =     -3603.88838716
  atomic energy  EATOM  =     37271.53585629
  Solvation  Ediel_sol  =         0.00000000
  ---------------------------------------------------
  free energy    TOTEN  =      -222.48828707 eV

  energy without entropy =     -222.48828707  energy(sigma->0) =     -222.48828707


--------------------------------------------------------------------------------------------------------




--------------------------------------- Iteration      1(  10)  ---------------------------------------


    POTLOK:  cpu time    0.0791: real time    0.0794
    SETDIJ:  cpu time    0.0127: real time    0.0128
     EDDAV:  cpu time   12.6488: real time   12.6808
 BZINTS: Fermi energy:  5.958943;276.000000 electrons
         Band energy:***********;  BLOECHL correction: -0.037320
       DOS:  cpu time    0.0487: real time    0.0488
    CHARGE:  cpu time    0.4384: real time    0.4395
    MIXING:  cpu time    0.0024: real time    0.0024
    --------------------------------------------
      LOOP:  cpu time   13.2302: real time   13.2637

 eigenvalue-minimisations  : 12540
 total energy-change (2. order) : 0.3707707E+00  (-0.2468341E+00)
 number of electron     275.9999993 magnetization      50.6153841
 augmentation part      113.4336083 magnetization      37.3166122

 Broyden mixing:
  rms(total) = 0.18644E+01    rms(broyden)= 0.18644E+01
  rms(prec ) = 0.19758E+01
  weight for this iteration     100.00

 eigenvalues of (default mixing * dielectric matrix)
  average eigenvalue GAMMA=   1.0187
  2.6163  0.3735  0.7702  0.6666  0.6666

 Free energy of the ion-electron system (eV)
  ---------------------------------------------------
  alpha Z        PSCENC =      1362.55286497
  Ewald energy   TEWEN  =    -25513.06237826
  -Hartree energ DENC   =     -9948.92501163
  -exchange      EXHF   =         0.00000000
  -V(xc)+E(xc)   XCENC  =      1360.90289168
  PAW double counting   =     36551.20428517   -37723.63173363
  entropy T*S    EENTRO =         0.00000000
  eigenvalues    EBANDS =     -3582.69429094
  atomic energy  EATOM  =     37271.53585629
  Solvation  Ediel_sol  =         0.00000000
  ---------------------------------------------------
  free energy    TOTEN  =      -222.11751634 eV

  energy without entropy =     -222.11751634  energy(sigma->0) =     -222.11751634


--------------------------------------------------------------------------------------------------------




--------------------------------------- Iteration      1(  11)  ---------------------------------------


    POTLOK:  cpu time    0.0853: real time    0.0857
    SETDIJ:  cpu time    0.0133: real time    0.0133
     EDDAV:  cpu time   14.3842: real time   14.4210
 BZINTS: Fermi energy:  6.020522;276.000000 electrons
         Band energy:***********;  BLOECHL correction: -0.034083
       DOS:  cpu time    0.0497: real time    0.0498
    CHARGE:  cpu time    0.4368: real time    0.4379
    MIXING:  cpu time    0.0025: real time    0.0025
    --------------------------------------------
      LOOP:  cpu time   14.9718: real time   15.0102

 eigenvalue-minimisations  : 14256
 total energy-change (2. order) : 0.5695244E+00  (-0.2334007E-01)
 number of electron     275.9999993 magnetization      49.3056555
 augmentation part      113.0128838 magnetization      35.6221925

 Broyden mixing:
  rms(total) = 0.12227E+01    rms(broyden)= 0.12227E+01
  rms(prec ) = 0.12966E+01
  weight for this iteration     100.00

 eigenvalues of (default mixing * dielectric matrix)
  average eigenvalue GAMMA=   1.0455
  2.5825  0.9730  0.9730  0.3786  0.7984  0.5673

 Free energy of the ion-electron system (eV)
  ---------------------------------------------------
  alpha Z        PSCENC =      1362.55286497
  Ewald energy   TEWEN  =    -25513.06237826
  -Hartree energ DENC   =     -9960.07741097
  -exchange      EXHF   =         0.00000000
  -V(xc)+E(xc)   XCENC  =      1360.22984796
  PAW double counting   =     36381.44945373   -37551.87688191
  entropy T*S    EENTRO =         0.00000000
  eigenvalues    EBANDS =     -3572.29934377
  atomic energy  EATOM  =     37271.53585629
  Solvation  Ediel_sol  =         0.00000000
  ---------------------------------------------------
  free energy    TOTEN  =      -221.54799196 eV

  energy without entropy =     -221.54799196  energy(sigma->0) =     -221.54799196


--------------------------------------------------------------------------------------------------------




--------------------------------------- Iteration      1(  12)  ---------------------------------------


    POTLOK:  cpu time    0.0813: real time    0.0816
    SETDIJ:  cpu time    0.0131: real time    0.0131
     EDDAV:  cpu time   14.8393: real time   14.8768
 BZINTS: Fermi energy:  6.080513;276.000000 electrons
         Band energy:***********;  BLOECHL correction: -0.033538
       DOS:  cpu time    0.0484: real time    0.0485
    CHARGE:  cpu time    0.4318: real time    0.4330
    MIXING:  cpu time    0.0024: real time    0.0024
    --------------------------------------------
      LOOP:  cpu time   15.4163: real time   15.4555

 eigenvalue-minimisations  : 15156
 total energy-change (2. order) : 0.2022996E+00  (-0.1940481E-01)
 number of electron     275.9999993 magnetization      46.8426790
 augmentation part      112.6935683 magnetization      33.0594175

 Broyden mixing:
  rms(total) = 0.85126E+00    rms(broyden)= 0.85125E+00
  rms(prec ) = 0.89289E+00
  weight for this iteration     100.00

 eigenvalues of (default mixing * dielectric matrix)
  average eigenvalue GAMMA=   1.0982
  2.0871  1.7836  1.4150  0.3772  0.7522  0.6361  0.6361

 Free energy of the ion-electron system (eV)
  ---------------------------------------------------
  alpha Z        PSCENC =      1362.55286497
  Ewald energy   TEWEN  =    -25513.06237826
  -Hartree energ DENC   =     -9973.17451206
  -exchange      EXHF   =         0.00000000
  -V(xc)+E(xc)   XCENC  =      1359.59367812
  PAW double counting   =     36266.23967556   -37435.62412235
  entropy T*S    EENTRO =         0.00000000
  eigenvalues    EBANDS =     -3559.40675464
  atomic energy  EATOM  =     37271.53585629
  Solvation  Ediel_sol  =         0.00000000
  ---------------------------------------------------
  free energy    TOTEN  =      -221.34569238 eV

  energy without entropy =     -221.34569238  energy(sigma->0) =     -221.34569238


--------------------------------------------------------------------------------------------------------




--------------------------------------- Iteration      1(  13)  ---------------------------------------


    POTLOK:  cpu time    0.0802: real time    0.0805
    SETDIJ:  cpu time    0.0128: real time    0.0128
     EDDAV:  cpu time   13.9235: real time   13.9587
 BZINTS: Fermi energy:  6.141561;276.000000 electrons
         Band energy:***********;  BLOECHL correction: -0.034468
       DOS:  cpu time    0.0479: real time    0.0480
    CHARGE:  cpu time    0.4337: real time    0.4347
    MIXING:  cpu time    0.0025: real time    0.0025
    --------------------------------------------
      LOOP:  cpu time   14.5006: real time   14.5373

 eigenvalue-minimisations  : 13992
 total energy-change (2. order) : 0.4816100E-02  (-0.1153518E-01)
 number of electron     275.9999993 magnetization      43.9218922
 augmentation part      112.4145912 magnetization      30.3832797

 Broyden mixing:
  rms(total) = 0.46582E+00    rms(broyden)= 0.46581E+00
  rms(prec ) = 0.48906E+00
  weight for this iteration     100.00

 eigenvalues of (default mixing * dielectric matrix)
  average eigenvalue GAMMA=   1.3977
  3.4457  3.4457  0.3775  0.9323  0.9323  0.7233  0.7233  0.6013

 Free energy of the ion-electron system (eV)
  ---------------------------------------------------
  alpha Z        PSCENC =      1362.55286497
  Ewald energy   TEWEN  =    -25513.06237826
  -Hartree energ DENC   =     -9991.51833886
  -exchange      EXHF   =         0.00000000
  -V(xc)+E(xc)   XCENC  =      1358.76339106
  PAW double counting   =     36034.38503110   -37200.71432801
  entropy T*S    EENTRO =         0.00000000
  eigenvalues    EBANDS =     -3543.28297456
  atomic energy  EATOM  =     37271.53585629
  Solvation  Ediel_sol  =         0.00000000
  ---------------------------------------------------
  free energy    TOTEN  =      -221.34087628 eV

  energy without entropy =     -221.34087628  energy(sigma->0) =     -221.34087628


--------------------------------------------------------------------------------------------------------




--------------------------------------- Iteration      1(  14)  ---------------------------------------


    POTLOK:  cpu time    0.0808: real time    0.0811
    SETDIJ:  cpu time    0.0131: real time    0.0131
     EDDAV:  cpu time   14.7809: real time   14.8184
 BZINTS: Fermi energy:  6.174143;276.000000 electrons
         Band energy:***********;  BLOECHL correction: -0.032747
       DOS:  cpu time    0.0486: real time    0.0487
    CHARGE:  cpu time    0.4311: real time    0.4323
    MIXING:  cpu time    0.0027: real time    0.0027
    --------------------------------------------
      LOOP:  cpu time   15.3572: real time   15.3963

 eigenvalue-minimisations  : 14808
 total energy-change (2. order) :-0.4619636E-01  (-0.1609290E-01)
 number of electron     275.9999994 magnetization      43.0257834
 augmentation part      112.2284135 magnetization      29.8713383

 Broyden mixing:
  rms(total) = 0.17642E+00    rms(broyden)= 0.17640E+00
  rms(prec ) = 0.18370E+00
  weight for this iteration     100.00

 eigenvalues of (default mixing * dielectric matrix)
  average eigenvalue GAMMA=   1.5086
  5.3679  2.7750  1.2378  0.3774  0.8427  0.8427  0.8793  0.6271  0.6271

 Free energy of the ion-electron system (eV)
  ---------------------------------------------------
  alpha Z        PSCENC =      1362.55286497
  Ewald energy   TEWEN  =    -25513.06237826
  -Hartree energ DENC   =    -10004.21557861
  -exchange      EXHF   =         0.00000000
  -V(xc)+E(xc)   XCENC  =      1357.66323166
  PAW double counting   =     35832.90627618   -36996.20635274
  entropy T*S    EENTRO =         0.00000000
  eigenvalues    EBANDS =     -3532.56099212
  atomic energy  EATOM  =     37271.53585629
  Solvation  Ediel_sol  =         0.00000000
  ---------------------------------------------------
  free energy    TOTEN  =      -221.38707264 eV

  energy without entropy =     -221.38707264  energy(sigma->0) =     -221.38707264


--------------------------------------------------------------------------------------------------------




--------------------------------------- Iteration      1(  15)  ---------------------------------------


    POTLOK:  cpu time    0.0811: real time    0.0814
    SETDIJ:  cpu time    0.0130: real time    0.0130
     EDDAV:  cpu time   12.8531: real time   12.8856
 BZINTS: Fermi energy:  6.159116;276.000000 electrons
         Band energy:***********;  BLOECHL correction: -0.033036
       DOS:  cpu time    0.0493: real time    0.0494
    CHARGE:  cpu time    0.4340: real time    0.4351
    MIXING:  cpu time    0.0031: real time    0.0031
    --------------------------------------------
      LOOP:  cpu time   13.4336: real time   13.4676

 eigenvalue-minimisations  : 12468
 total energy-change (2. order) :-0.1858795E-01  (-0.6392234E-02)
 number of electron     275.9999994 magnetization      42.6003885
 augmentation part      112.2845739 magnetization      29.6198918

 Broyden mixing:
  rms(total) = 0.14125E+00    rms(broyden)= 0.14124E+00
  rms(prec ) = 0.14983E+00
  weight for this iteration     100.00

 eigenvalues of (default mixing * dielectric matrix)
  average eigenvalue GAMMA=   1.5453
  6.1080  2.8478  1.3670  1.0725  0.3775  0.8492  0.8492  0.6929  0.6929  0.5957

 Free energy of the ion-electron system (eV)
  ---------------------------------------------------
  alpha Z        PSCENC =      1362.55286497
  Ewald energy   TEWEN  =    -25513.06237826
  -Hartree energ DENC   =    -10002.70255785
  -exchange      EXHF   =         0.00000000
  -V(xc)+E(xc)   XCENC  =      1357.17245539
  PAW double counting   =     35821.35342589   -36984.29950331
  entropy T*S    EENTRO =         0.00000000
  eigenvalues    EBANDS =     -3533.95582370
  atomic energy  EATOM  =     37271.53585629
  Solvation  Ediel_sol  =         0.00000000
  ---------------------------------------------------
  free energy    TOTEN  =      -221.40566059 eV

  energy without entropy =     -221.40566059  energy(sigma->0) =     -221.40566059


--------------------------------------------------------------------------------------------------------




--------------------------------------- Iteration      1(  16)  ---------------------------------------


    POTLOK:  cpu time    0.0811: real time    0.0814
    SETDIJ:  cpu time    0.0128: real time    0.0128
     EDDAV:  cpu time   14.3210: real time   14.3574
 BZINTS: Fermi energy:  6.181165;276.000000 electrons
         Band energy:***********;  BLOECHL correction: -0.032885
       DOS:  cpu time    0.0456: real time    0.0458
    CHARGE:  cpu time    0.4329: real time    0.4339
    MIXING:  cpu time    0.0030: real time    0.0030
    --------------------------------------------
      LOOP:  cpu time   14.8964: real time   14.9343

 eigenvalue-minimisations  : 14100
 total energy-change (2. order) : 0.5282553E-02  (-0.9415614E-03)
 number of electron     275.9999994 magnetization      42.4701433
 augmentation part      112.1911644 magnetization      29.4846695

 Broyden mixing:
  rms(total) = 0.35339E-01    rms(broyden)= 0.35332E-01
  rms(prec ) = 0.36862E-01
  weight for this iteration     100.00

 eigenvalues of (default mixing * dielectric matrix)
  average eigenvalue GAMMA=   1.5340
  6.2864  2.7866  1.3147  1.3147  1.1030  0.3775  0.8145  0.8145  0.7271  0.7271
  0.6081

 Free energy of the ion-electron system (eV)
  ---------------------------------------------------
  alpha Z        PSCENC =      1362.55286497
  Ewald energy   TEWEN  =    -25513.06237826
  -Hartree energ DENC   =    -10007.42600629
  -exchange      EXHF   =         0.00000000
  -V(xc)+E(xc)   XCENC  =      1357.07197200
  PAW double counting   =     35780.39874266   -36943.27450290
  entropy T*S    EENTRO =         0.00000000
  eigenvalues    EBANDS =     -3529.19692651
  atomic energy  EATOM  =     37271.53585629
  Solvation  Ediel_sol  =         0.00000000
  ---------------------------------------------------
  free energy    TOTEN  =      -221.40037804 eV

  energy without entropy =     -221.40037804  energy(sigma->0) =     -221.40037804


--------------------------------------------------------------------------------------------------------




--------------------------------------- Iteration      1(  17)  ---------------------------------------


    POTLOK:  cpu time    0.0806: real time    0.0810
    SETDIJ:  cpu time    0.0130: real time    0.0130
     EDDAV:  cpu time   12.8628: real time   12.8953
 BZINTS: Fermi energy:  6.182060;276.000000 electrons
         Band energy:***********;  BLOECHL correction: -0.032835
       DOS:  cpu time    0.0486: real time    0.0487
    CHARGE:  cpu time    0.4315: real time    0.4326
    MIXING:  cpu time    0.0031: real time    0.0031
    --------------------------------------------
      LOOP:  cpu time   13.4396: real time   13.4738

 eigenvalue-minimisations  : 12360
 total energy-change (2. order) :-0.7087344E-03  (-0.4605547E-03)
 number of electron     275.9999994 magnetization      42.3755947
 augmentation part      112.1880450 magnetization      29.4036488

 Broyden mixing:
  rms(total) = 0.18651E-01    rms(broyden)= 0.18648E-01
  rms(prec ) = 0.19232E-01
  weight for this iteration     100.00

 eigenvalues of (default mixing * dielectric matrix)
  average eigenvalue GAMMA=   1.5581
  6.4768  2.7595  2.4575  1.0746  1.0746  0.3775  0.8919  0.8919  0.7175  0.7175
  0.6034  0.6544

 Free energy of the ion-electron system (eV)
  ---------------------------------------------------
  alpha Z        PSCENC =      1362.55286497
  Ewald energy   TEWEN  =    -25513.06237826
  -Hartree energ DENC   =    -10007.10657497
  -exchange      EXHF   =         0.00000000
  -V(xc)+E(xc)   XCENC  =      1357.01062005
  PAW double counting   =     35800.40681449   -36963.83661212
  entropy T*S    EENTRO =         0.00000000
  eigenvalues    EBANDS =     -3528.90167722
  atomic energy  EATOM  =     37271.53585629
  Solvation  Ediel_sol  =         0.00000000
  ---------------------------------------------------
  free energy    TOTEN  =      -221.40108677 eV

  energy without entropy =     -221.40108677  energy(sigma->0) =     -221.40108677


--------------------------------------------------------------------------------------------------------




--------------------------------------- Iteration      1(  18)  ---------------------------------------


    POTLOK:  cpu time    0.0802: real time    0.0806
    SETDIJ:  cpu time    0.0129: real time    0.0129
     EDDAV:  cpu time   13.7003: real time   13.7348
 BZINTS: Fermi energy:  6.182360;276.000000 electrons
         Band energy:***********;  BLOECHL correction: -0.032968
       DOS:  cpu time    0.0499: real time    0.0502
    CHARGE:  cpu time    0.4299: real time    0.4309
    MIXING:  cpu time    0.0032: real time    0.0032
    --------------------------------------------
      LOOP:  cpu time   14.2763: real time   14.3125

 eigenvalue-minimisations  : 13920
 total energy-change (2. order) :-0.2554287E-03  (-0.2274989E-04)
 number of electron     275.9999994 magnetization      42.3238217
 augmentation part      112.1836904 magnetization      29.3693858

 Broyden mixing:
  rms(total) = 0.92204E-02    rms(broyden)= 0.92188E-02
  rms(prec ) = 0.96005E-02
  weight for this iteration     100.00

 eigenvalues of (default mixing * dielectric matrix)
  average eigenvalue GAMMA=   1.5285
  6.6078  2.8356  2.4535  1.1479  1.1479  0.9571  0.9571  0.3775  0.7364  0.7364
  0.6939  0.6095  0.6095

 Free energy of the ion-electron system (eV)
  ---------------------------------------------------
  alpha Z        PSCENC =      1362.55286497
  Ewald energy   TEWEN  =    -25513.06237826
  -Hartree energ DENC   =    -10007.35869671
  -exchange      EXHF   =         0.00000000
  -V(xc)+E(xc)   XCENC  =      1356.96334642
  PAW double counting   =     35798.96910408   -36962.45027405
  entropy T*S    EENTRO =         0.00000000
  eigenvalues    EBANDS =     -3528.55116494
  atomic energy  EATOM  =     37271.53585629
  Solvation  Ediel_sol  =         0.00000000
  ---------------------------------------------------
  free energy    TOTEN  =      -221.40134220 eV

  energy without entropy =     -221.40134220  energy(sigma->0) =     -221.40134220


--------------------------------------------------------------------------------------------------------




--------------------------------------- Iteration      1(  19)  ---------------------------------------


    POTLOK:  cpu time    0.0787: real time    0.0791
    SETDIJ:  cpu time    0.0129: real time    0.0129
     EDDAV:  cpu time   13.2643: real time   13.2977
 BZINTS: Fermi energy:  6.183347;276.000000 electrons
         Band energy:***********;  BLOECHL correction: -0.033041
       DOS:  cpu time    0.0485: real time    0.0486
    CHARGE:  cpu time    0.4312: real time    0.4323
    MIXING:  cpu time    0.0035: real time    0.0035
    --------------------------------------------
      LOOP:  cpu time   13.8391: real time   13.8743

 eigenvalue-minimisations  : 13800
 total energy-change (2. order) :-0.7049833E-04  (-0.9549587E-05)
 number of electron     275.9999994 magnetization      42.3127726
 augmentation part      112.1791803 magnetization      29.3666287

 Broyden mixing:
  rms(total) = 0.20434E-02    rms(broyden)= 0.20406E-02
  rms(prec ) = 0.21797E-02
  weight for this iteration     100.00

 eigenvalues of (default mixing * dielectric matrix)
  average eigenvalue GAMMA=   1.5131
  6.6807  2.8531  2.4271  1.2854  1.2854  1.0002  1.0002  0.3775  0.7816  0.7816
  0.7427  0.7427  0.6124  0.6124

 Free energy of the ion-electron system (eV)
  ---------------------------------------------------
  alpha Z        PSCENC =      1362.55286497
  Ewald energy   TEWEN  =    -25513.06237826
  -Hartree energ DENC   =    -10007.70530702
  -exchange      EXHF   =         0.00000000
  -V(xc)+E(xc)   XCENC  =      1356.94267635
  PAW double counting   =     35794.48201391   -36957.90901511
  entropy T*S    EENTRO =         0.00000000
  eigenvalues    EBANDS =     -3528.23812383
  atomic energy  EATOM  =     37271.53585629
  Solvation  Ediel_sol  =         0.00000000
  ---------------------------------------------------
  free energy    TOTEN  =      -221.40141270 eV

  energy without entropy =     -221.40141270  energy(sigma->0) =     -221.40141270


--------------------------------------------------------------------------------------------------------




--------------------------------------- Iteration      1(  20)  ---------------------------------------


    POTLOK:  cpu time    0.0804: real time    0.0807
    SETDIJ:  cpu time    0.0127: real time    0.0127
     EDDAV:  cpu time   12.7569: real time   12.7892
 BZINTS: Fermi energy:  6.183753;276.000000 electrons
         Band energy:***********;  BLOECHL correction: -0.033052
       DOS:  cpu time    0.0484: real time    0.0486
    CHARGE:  cpu time    0.4320: real time    0.4330
    MIXING:  cpu time    0.0034: real time    0.0035
    --------------------------------------------
      LOOP:  cpu time   13.3339: real time   13.3677

 eigenvalue-minimisations  : 12528
 total energy-change (2. order) :-0.1273912E-04  (-0.2674525E-05)
 number of electron     275.9999994 magnetization      42.3083237
 augmentation part      112.1780473 magnetization      29.3637960

 Broyden mixing:
  rms(total) = 0.89107E-03    rms(broyden)= 0.89036E-03
  rms(prec ) = 0.91181E-03
  weight for this iteration     100.00

 eigenvalues of (default mixing * dielectric matrix)
  average eigenvalue GAMMA=   1.4983
  6.7131  2.9457  2.4048  1.7795  1.0160  1.0160  1.0406  1.0406  0.3775  0.7371
  0.7371  0.6036  0.7247  0.6694  0.6694

 Free energy of the ion-electron system (eV)
  ---------------------------------------------------
  alpha Z        PSCENC =      1362.55286497
  Ewald energy   TEWEN  =    -25513.06237826
  -Hartree energ DENC   =    -10007.80060044
  -exchange      EXHF   =         0.00000000
  -V(xc)+E(xc)   XCENC  =      1356.93791898
  PAW double counting   =     35794.15268301   -36957.58295384
  entropy T*S    EENTRO =         0.00000000
  eigenvalues    EBANDS =     -3528.13481615
  atomic energy  EATOM  =     37271.53585629
  Solvation  Ediel_sol  =         0.00000000
  ---------------------------------------------------
  free energy    TOTEN  =      -221.40142544 eV

  energy without entropy =     -221.40142544  energy(sigma->0) =     -221.40142544


--------------------------------------------------------------------------------------------------------




--------------------------------------- Iteration      1(  21)  ---------------------------------------


    POTLOK:  cpu time    0.0799: real time    0.0802
    SETDIJ:  cpu time    0.0129: real time    0.0130
     EDDAV:  cpu time   12.7570: real time   12.7893
 BZINTS: Fermi energy:  6.184006;276.000000 electrons
         Band energy:***********;  BLOECHL correction: -0.033055
       DOS:  cpu time    0.0497: real time    0.0498
    CHARGE:  cpu time    0.4392: real time    0.4404
    MIXING:  cpu time    0.0036: real time    0.0037
    --------------------------------------------
      LOOP:  cpu time   13.3423: real time   13.3762

 eigenvalue-minimisations  : 12228
 total energy-change (2. order) :-0.3499728E-05  (-0.2304738E-06)
 number of electron     275.9999994 magnetization      42.3098039
 augmentation part      112.1772385 magnetization      29.3656047

 Broyden mixing:
  rms(total) = 0.10223E-02    rms(broyden)= 0.10222E-02
  rms(prec ) = 0.10786E-02
  weight for this iteration     100.00

 eigenvalues of (default mixing * dielectric matrix)
  average eigenvalue GAMMA=   1.4949
  6.7202  2.9857  2.3226  2.2598  1.1546  1.1546  1.0073  1.0073  0.3775  0.7877
  0.7877  0.7277  0.7277  0.6761  0.6109  0.6109

 Free energy of the ion-electron system (eV)
  ---------------------------------------------------
  alpha Z        PSCENC =      1362.55286497
  Ewald energy   TEWEN  =    -25513.06237826
  -Hartree energ DENC   =    -10007.86110503
  -exchange      EXHF   =         0.00000000
  -V(xc)+E(xc)   XCENC  =      1356.93761332
  PAW double counting   =     35793.68578743   -36957.11957940
  entropy T*S    EENTRO =         0.00000000
  eigenvalues    EBANDS =     -3528.07048825
  atomic energy  EATOM  =     37271.53585629
  Solvation  Ediel_sol  =         0.00000000
  ---------------------------------------------------
  free energy    TOTEN  =      -221.40142894 eV

  energy without entropy =     -221.40142894  energy(sigma->0) =     -221.40142894


--------------------------------------------------------------------------------------------------------




--------------------------------------- Iteration      1(  22)  ---------------------------------------


    POTLOK:  cpu time    0.0827: real time    0.0830
    SETDIJ:  cpu time    0.0131: real time    0.0132
     EDDAV:  cpu time   11.5191: real time   11.5481
 BZINTS: Fermi energy:  6.183888;276.000000 electrons
         Band energy:***********;  BLOECHL correction: -0.033056
       DOS:  cpu time    0.0474: real time    0.0475
    CHARGE:  cpu time    0.4359: real time    0.4371
    MIXING:  cpu time    0.0038: real time    0.0038
    --------------------------------------------
      LOOP:  cpu time   12.1021: real time   12.1327

 eigenvalue-minimisations  : 10836
 total energy-change (2. order) :-0.1097076E-05  (-0.9812948E-07)
 number of electron     275.9999994 magnetization      42.3123961
 augmentation part      112.1778004 magnetization      29.3682875

 Broyden mixing:
  rms(total) = 0.59704E-03    rms(broyden)= 0.59703E-03
  rms(prec ) = 0.62086E-03
  weight for this iteration     100.00

 eigenvalues of (default mixing * dielectric matrix)
  average eigenvalue GAMMA=   1.4768
  6.7053  2.9883  2.5141  2.2487  1.2439  1.2439  1.0138  1.0138  0.3775  0.8554
  0.8554  0.7260  0.7260  0.7159  0.6059  0.6354  0.6354

 Free energy of the ion-electron system (eV)
  ---------------------------------------------------
  alpha Z        PSCENC =      1362.55286497
  Ewald energy   TEWEN  =    -25513.06237826
  -Hartree energ DENC   =    -10007.83440258
  -exchange      EXHF   =         0.00000000
  -V(xc)+E(xc)   XCENC  =      1356.93769364
  PAW double counting   =     35793.87373081   -36957.30915853
  entropy T*S    EENTRO =         0.00000000
  eigenvalues    EBANDS =     -3528.09563639
  atomic energy  EATOM  =     37271.53585629
  Solvation  Ediel_sol  =         0.00000000
  ---------------------------------------------------
  free energy    TOTEN  =      -221.40143004 eV

  energy without entropy =     -221.40143004  energy(sigma->0) =     -221.40143004


--------------------------------------------------------------------------------------------------------




--------------------------------------- Iteration      1(  23)  ---------------------------------------


    POTLOK:  cpu time    0.0808: real time    0.0811
    SETDIJ:  cpu time    0.0130: real time    0.0130
     EDDAV:  cpu time   10.2451: real time   10.2710
 BZINTS: Fermi energy:  6.183844;276.000000 electrons
         Band energy:***********;  BLOECHL correction: -0.033054
       DOS:  cpu time    0.0499: real time    0.0500
    CHARGE:  cpu time    0.4360: real time    0.4372
    MIXING:  cpu time    0.0040: real time    0.0040
    --------------------------------------------
      LOOP:  cpu time   10.8289: real time   10.8564

 eigenvalue-minimisations  :  8868
 total energy-change (2. order) : 0.2302761E-05  (-0.2418268E-07)
 number of electron     275.9999994 magnetization      42.3131469
 augmentation part      112.1780384 magnetization      29.3686843

 Broyden mixing:
  rms(total) = 0.17550E-03    rms(broyden)= 0.17547E-03
  rms(prec ) = 0.18455E-03
  weight for this iteration     100.00

 eigenvalues of (default mixing * dielectric matrix)
  average eigenvalue GAMMA=   1.4817
  6.6980  3.0327  2.6375  2.2536  1.4343  1.4343  1.0391  1.0391  0.3775  0.9315
  0.9315  0.8273  0.7333  0.7333  0.6701  0.6701  0.6137  0.6137

 Free energy of the ion-electron system (eV)
  ---------------------------------------------------
  alpha Z        PSCENC =      1362.55286497
  Ewald energy   TEWEN  =    -25513.06237826
  -Hartree energ DENC   =    -10007.81743041
  -exchange      EXHF   =         0.00000000
  -V(xc)+E(xc)   XCENC  =      1356.93886404
  PAW double counting   =     35794.13100472   -36957.57121141
  entropy T*S    EENTRO =         0.00000000
  eigenvalues    EBANDS =     -3528.10899768
  atomic energy  EATOM  =     37271.53585629
  Solvation  Ediel_sol  =         0.00000000
  ---------------------------------------------------
  free energy    TOTEN  =      -221.40142773 eV

  energy without entropy =     -221.40142773  energy(sigma->0) =     -221.40142773


--------------------------------------------------------------------------------------------------------




--------------------------------------- Iteration      1(  24)  ---------------------------------------


    POTLOK:  cpu time    0.0803: real time    0.0806
    SETDIJ:  cpu time    0.0127: real time    0.0127
     EDDAV:  cpu time    8.3405: real time    8.3615
 BZINTS: Fermi energy:  6.183841;276.000000 electrons
         Band energy:***********;  BLOECHL correction: -0.033053
       DOS:  cpu time    0.0491: real time    0.0492
    CHARGE:  cpu time    0.4372: real time    0.4384
    MIXING:  cpu time    0.0042: real time    0.0042
    --------------------------------------------
      LOOP:  cpu time    8.9239: real time    8.9466

 eigenvalue-minimisations  :  6528
 total energy-change (2. order) : 0.9061623E-06  (-0.8006716E-08)
 number of electron     275.9999994 magnetization      42.3132406
 augmentation part      112.1780667 magnetization      29.3686719

 Broyden mixing:
  rms(total) = 0.88654E-04    rms(broyden)= 0.88638E-04
  rms(prec ) = 0.93458E-04
  weight for this iteration     100.00

 eigenvalues of (default mixing * dielectric matrix)
[...]
 -0.000  -0.002   0.000   0.000  -0.001   0.000   0.000   0.000  -0.006   0.000   0.000  -0.000  -0.000   0.009  -0.000  -0.000
 total augmentation occupancy for first ion, spin component:           2
 -0.003  -0.000   0.000  -0.010   0.000   0.000   0.002   0.001  -0.000   0.000   0.000  -0.003  -0.002   0.000  -0.000  -0.000
 -0.000  -0.003   0.000  -0.000  -0.010   0.000   0.000   0.000  -0.001  -0.000   0.000  -0.000   0.000   0.002   0.000  -0.000
 -0.000  -0.000  -0.003  -0.000   0.000  -0.010   0.000  -0.000   0.000   0.001  -0.002  -0.000   0.000  -0.000  -0.002   0.003
 -0.010  -0.000  -0.000   0.021  -0.000  -0.000  -0.085  -0.050  -0.000   0.002   0.013   0.049   0.032   0.000  -0.001  -0.008
  0.000  -0.010  -0.000  -0.000   0.017   0.000   0.000   0.000   0.076  -0.000  -0.000   0.000   0.000  -0.043   0.000   0.000
  0.000  -0.000  -0.010  -0.000   0.000   0.021   0.013  -0.002  -0.000  -0.050   0.085  -0.008   0.001   0.000   0.032  -0.049
  0.002   0.000   0.000  -0.085   0.000   0.013   4.294   0.575   0.000  -0.179   0.000  -2.428  -0.469  -0.000   0.166   0.002
  0.001   0.000  -0.000  -0.050  -0.000  -0.002   0.575   5.019   0.000   0.000  -0.179  -0.468  -3.024  -0.000   0.003   0.166
 -0.000  -0.001   0.000  -0.000   0.076  -0.000  -0.000   0.000   4.389   0.000  -0.000   0.000  -0.000  -2.384  -0.000   0.000
  0.000  -0.000   0.001   0.002   0.000  -0.050  -0.179   0.000   0.000   5.019  -0.575   0.166  -0.003  -0.000  -3.024   0.468
  0.000   0.000  -0.002   0.013  -0.000   0.085  -0.000  -0.179  -0.000  -0.575   4.294  -0.002   0.166   0.000   0.469  -2.428
 -0.003  -0.000  -0.000   0.049   0.000  -0.008  -2.428  -0.468   0.000   0.166  -0.002   1.294   0.331   0.000  -0.129  -0.000
 -0.002   0.000   0.000   0.032   0.000   0.001  -0.469  -3.024  -0.000  -0.003   0.166   0.331   1.750   0.000  -0.000  -0.129
  0.000   0.002  -0.000   0.000  -0.043   0.000  -0.000  -0.000  -2.384  -0.000   0.000  -0.000   0.000   1.232   0.000  -0.000
 -0.000  -0.000  -0.002  -0.001   0.000   0.032   0.166   0.003  -0.000  -3.024   0.469  -0.129  -0.000   0.000   1.750  -0.331
 -0.000  -0.000   0.003  -0.008   0.000  -0.049   0.002   0.166   0.000   0.468  -2.428  -0.000  -0.129  -0.000  -0.331   1.294
 -0.000   0.000  -0.000  -0.000   0.001  -0.000   0.000  -0.000   0.044  -0.000  -0.000  -0.000   0.000  -0.022   0.000   0.000
 -0.000   0.000   0.000   0.000   0.001  -0.000   0.000  -0.000   0.007  -0.000  -0.000   0.000   0.000  -0.005  -0.000   0.000


------------------------ aborting loop because EDIFF is reached ----------------------------------------


 


 total charge     
 
# of ion       s       p       d       tot
------------------------------------------
    1        0.284   6.340   5.852  12.476
    2        0.284   6.340   5.855  12.478
    3        0.284   6.340   5.862  12.486
    4        0.284   6.340   5.852  12.475
    5        0.284   6.340   5.854  12.478
    6        0.284   6.340   5.865  12.489
    7        0.284   6.340   5.851  12.474
    8        0.284   6.340   5.853  12.477
    9        0.283   6.340   5.854  12.477
   10        0.283   6.340   5.868  12.492
   11        0.283   6.340   5.866  12.489
   12        0.283   6.340   5.857  12.480
   13        1.568   3.416   0.000   4.984
   14        1.568   3.415   0.000   4.983
   15        1.568   3.416   0.000   4.984
   16        1.568   3.416   0.000   4.985
   17        1.568   3.417   0.000   4.985
   18        1.568   3.416   0.000   4.984
   19        1.567   3.403   0.000   4.970
   20        1.567   3.403   0.000   4.970
   21        1.567   3.404   0.000   4.971
   22        1.567   3.404   0.000   4.971
   23        1.567   3.404   0.000   4.971
   24        1.567   3.404   0.000   4.971
   25        1.569   3.417   0.000   4.986
   26        1.569   3.416   0.000   4.985
   27        1.569   3.418   0.000   4.987
   28        1.569   3.419   0.000   4.988
   29        1.569   3.418   0.000   4.988
   30        1.569   3.418   0.000   4.987
--------------------------------------------------
tot         31.630 137.501  70.289 239.420
 


 magnetization (x)
 
# of ion       s       p       d       tot
------------------------------------------
    1        0.024   0.036   3.139   3.199
    2        0.024   0.036   3.136   3.197
    3        0.025   0.036   3.133   3.193
    4        0.025   0.036   3.139   3.199
    5        0.025   0.036   3.139   3.200
    6        0.025   0.036   3.131   3.191
    7        0.024   0.036   3.123   3.184
    8        0.024   0.036   3.120   3.181
    9        0.025   0.036   3.121   3.182
   10        0.025   0.036   3.115   3.175
   11        0.025   0.036   3.117   3.178
   12        0.025   0.036   3.121   3.182
   13        0.020   0.139   0.000   0.159
   14        0.020   0.138   0.000   0.159
   15        0.020   0.139   0.000   0.159
   16        0.020   0.140   0.000   0.160
   17        0.020   0.140   0.000   0.160
   18        0.020   0.139   0.000   0.159
   19        0.021   0.143   0.000   0.165
   20        0.021   0.143   0.000   0.164
   21        0.021   0.144   0.000   0.165
   22        0.021   0.144   0.000   0.165
   23        0.021   0.144   0.000   0.165
   24        0.021   0.144   0.000   0.165
   25        0.020   0.135   0.000   0.156
   26        0.020   0.135   0.000   0.155
   27        0.020   0.136   0.000   0.157
   28        0.020   0.137   0.000   0.158
   29        0.020   0.137   0.000   0.157
   30        0.020   0.137   0.000   0.157
--------------------------------------------------
tot          0.668   2.944  37.534  41.146
 
    CHARGE:  cpu time    0.4312: real time    0.4324
    FORLOC:  cpu time    0.0091: real time    0.0091
    FORNL :  cpu time    3.0999: real time    3.1078
    STRESS:  cpu time    9.2898: real time    9.3132
    FORCOR:  cpu time    0.0863: real time    0.0865
    FORHAR:  cpu time    0.0155: real time    0.0156
    MIXING:  cpu time    0.0042: real time    0.0042
    OFIELD:  cpu time    0.0001: real time    0.0001

  FORCE on cell =-STRESS in cart. coord.  units (eV):
  Direction    XX          YY          ZZ          XY          YZ          ZX
  --------------------------------------------------------------------------------------
  Alpha Z  1362.55286  1362.55286  1362.55286
  Ewald   -8201.75422 -8201.75360 -9109.63806     0.00000     0.00002    -0.00000
  Hartree  3503.94449  3503.94435  2999.91964    -0.00000     0.00001    -0.00000
  E(xc)   -1615.76199 -1615.76205 -1617.32615    -0.00004     0.00000    -0.00000
  Local    -164.66614  -164.66707  1231.25855    -0.00108    -0.00004     0.00000
  n-local  -743.74349  -742.63434  -745.20732    -4.17281     0.49519     0.12173
  augment  1844.98362  1844.98435  1846.86677     0.00091    -0.00000     0.00001
  Kinetic  4006.39109  4008.49170  4024.23865     7.64727    -1.98055    -5.05714
  Fock        0.00000     0.00000     0.00000     0.00000     0.00000     0.00000
  -------------------------------------------------------------------------------------
  Total      -6.44879    -6.44879    -7.33505     0.00000    -0.00000     0.00000
  in kB     -34.20451   -34.20450   -38.90528     0.00000    -0.00000     0.00000
  external pressure =      -35.77 kB  Pullay stress =        0.00 kB


 VOLUME and BASIS-vectors are now :
 -----------------------------------------------------------------------------
  energy-cutoff  :      600.00
  volume of cell :      302.07
      direct lattice vectors                 reciprocal lattice vectors
     5.035100000  0.000000000  0.000000000     0.198605787  0.114665118  0.000000000
    -2.517550000  4.360524000  0.000000000     0.000000000  0.229330236  0.000000000
     0.000000000  0.000000000 13.758100000     0.000000000  0.000000000  0.072684455

  length of vectors
     5.035100000  5.035099558 13.758100000     0.229330216  0.229330236  0.072684455


 FORCES acting on ions
    electron-ion (+dipol)            ewald-force                    non-local-force                 convergence-correction
 -----------------------------------------------------------------------------------------------
   0.156E-03 0.366E-03 -.126E+03   -.101E-02 0.523E-03 0.128E+03   -.173E-17 0.000E+00 -.289E+01   -.578E-08 0.343E-08 -.652E-05
   -.402E-03 0.579E-03 0.126E+03   0.101E-02 -.523E-03 -.128E+03   -.113E-16 0.434E-17 0.289E+01   0.903E-08 -.554E-08 0.652E-05
   -.134E-03 0.533E-03 -.126E+03   0.314E-02 -.187E-02 0.128E+03   -.130E-17 -.434E-18 -.289E+01   0.153E-06 -.891E-07 -.833E-07
   -.328E-03 0.645E-03 -.126E+03   -.220E-02 0.121E-02 0.128E+03   0.694E-17 -.304E-17 -.289E+01   -.143E-06 0.822E-07 0.211E-05
   0.817E-04 0.300E-03 0.126E+03   0.220E-02 -.121E-02 -.128E+03   0.304E-17 -.867E-18 0.289E+01   0.146E-06 -.843E-07 -.210E-05
   -.112E-03 0.412E-03 0.126E+03   -.314E-02 0.187E-02 -.128E+03   -.434E-17 0.867E-18 0.289E+01   -.150E-06 0.870E-07 0.835E-07
   0.566E-03 -.105E-02 0.126E+03   0.964E-03 -.523E-03 -.128E+03   0.108E-17 0.434E-18 0.289E+01   0.930E-08 -.495E-08 0.652E-05
   0.104E-02 -.127E-02 -.126E+03   -.964E-03 0.523E-03 0.128E+03   0.325E-17 0.304E-17 -.289E+01   -.619E-08 0.295E-08 -.652E-05
   0.105E-02 -.133E-02 0.126E+03   0.215E-02 -.121E-02 -.128E+03   0.434E-18 0.260E-17 0.289E+01   0.146E-06 -.845E-07 -.210E-05
   0.750E-03 -.110E-02 -.126E+03   0.319E-02 -.187E-02 0.128E+03   0.137E-16 -.434E-18 -.289E+01   0.154E-06 -.886E-07 -.832E-07
   0.856E-03 -.121E-02 0.126E+03   -.319E-02 0.187E-02 -.128E+03   0.130E-17 0.217E-17 0.289E+01   -.150E-06 0.866E-07 0.836E-07
   0.556E-03 -.988E-03 -.126E+03   -.215E-02 0.121E-02 0.128E+03   0.115E-16 0.000E+00 -.289E+01   -.143E-06 0.825E-07 0.211E-05
   -.424E+02 -.134E-02 0.215E-03   0.418E+02 0.106E-02 -.470E-03   0.677E+00 0.163E-17 0.358E-17   0.699E-05 0.357E-07 -.347E-08
   0.424E+02 -.864E-04 -.336E-03   -.418E+02 -.106E-02 0.470E-03   -.677E+00 -.114E-17 0.244E-17   -.699E-05 -.380E-07 0.160E-08
   -.424E+02 -.315E-02 -.585E-02   0.418E+02 0.570E-03 -.997E-03   0.677E+00 0.201E-17 0.683E-17   0.699E-05 -.298E-07 -.195E-05
   -.424E+02 0.236E-02 0.545E-02   0.418E+02 -.163E-02 0.147E-02   0.677E+00 -.651E-18 -.108E-18   0.704E-05 -.943E-08 0.195E-05
   0.424E+02 -.378E-02 -.557E-02   -.418E+02 0.163E-02 -.147E-02   -.677E+00 -.332E-17 -.206E-17   -.704E-05 0.719E-08 -.195E-05
   0.424E+02 0.173E-02 0.572E-02   -.418E+02 -.570E-03 0.997E-03   -.677E+00 -.293E-17 0.228E-17   -.699E-05 0.275E-07 0.194E-05
   0.212E+02 -.367E+02 -.307E-03   -.209E+02 0.362E+02 0.438E-03   -.339E+00 0.586E+00 -.781E-17   -.346E-05 0.607E-05 0.155E-08
   -.212E+02 0.367E+02 0.193E-03   0.209E+02 -.362E+02 -.438E-03   0.339E+00 -.586E+00 -.694E-17   0.346E-05 -.607E-05 -.345E-08
   0.212E+02 -.367E+02 -.554E-02   -.209E+02 0.362E+02 -.150E-02   -.339E+00 0.586E+00 0.000E+00   -.353E-05 0.609E-05 -.195E-05
   0.212E+02 -.367E+02 0.575E-02   -.209E+02 0.362E+02 0.964E-03   -.339E+00 0.586E+00 -.867E-18   -.352E-05 0.604E-05 0.194E-05
   -.212E+02 0.367E+02 -.587E-02   0.209E+02 -.362E+02 -.964E-03   0.339E+00 -.586E+00 0.347E-17   0.352E-05 -.604E-05 -.195E-05
   -.212E+02 0.367E+02 0.543E-02   0.209E+02 -.362E+02 0.150E-02   0.339E+00 -.586E+00 -.694E-17   0.353E-05 -.609E-05 0.195E-05
   0.212E+02 0.367E+02 0.944E-04   -.209E+02 -.362E+02 0.322E-04   -.339E+00 -.586E+00 0.260E-17   -.352E-05 -.611E-05 0.189E-08
   -.212E+02 -.367E+02 0.144E-03   0.209E+02 0.362E+02 -.322E-04   0.339E+00 0.586E+00 0.000E+00   0.353E-05 0.610E-05 0.181E-08
   0.212E+02 0.367E+02 -.409E-02   -.209E+02 -.362E+02 -.303E-02   -.339E+00 -.586E+00 -.390E-17   -.344E-05 -.608E-05 -.195E-05
   -.212E+02 -.367E+02 -.404E-02   0.209E+02 0.362E+02 -.310E-02   0.339E+00 0.586E+00 0.694E-17   0.354E-05 0.602E-05 -.195E-05
   0.212E+02 0.367E+02 0.428E-02   -.209E+02 -.362E+02 0.310E-02   -.339E+00 -.586E+00 -.130E-17   -.354E-05 -.602E-05 0.195E-05
   -.212E+02 -.367E+02 0.433E-02   0.209E+02 0.362E+02 0.303E-02   0.339E+00 0.586E+00 0.781E-17   0.345E-05 0.607E-05 0.195E-05
 -----------------------------------------------------------------------------------------------
   0.149E-01 -.165E-01 -.113E-04   -.995E-13 -.995E-13 -.192E-12   -.555E-16 0.222E-15 0.894E-15   0.275E-07 -.185E-07 0.160E-08
 
 
 POSITION                                       TOTAL-FORCE (eV/Angst)
 -----------------------------------------------------------------------------------
      0.00000      0.00000      4.88853        -0.000000     -0.000000     -0.927077
      0.00000      0.00000      8.86957        -0.000000     -0.000000      0.927077
     -0.00000      2.90702      0.30250        -0.000000     -0.000000     -0.927077
      2.51755      1.45351      9.47456        -0.000000     -0.000000     -0.927077
     -0.00000      2.90702      4.28354        -0.000000     -0.000000      0.927077
      2.51755      1.45351     13.45560        -0.000000     -0.000000      0.927077
      0.00000      0.00000      1.99052        -0.000000     -0.000000      0.927077
      0.00000      0.00000     11.76758        -0.000000     -0.000000     -0.927077
     -0.00000      2.90702     11.16259        -0.000000     -0.000000      0.927077
     -0.00000      2.90702      7.18155        -0.000000     -0.000000     -0.927077
      2.51755      1.45351      6.57655        -0.000000     -0.000000      0.927077
      2.51755      1.45351      2.59551        -0.000000     -0.000000     -0.927077
      1.54165      0.00000      3.43953         0.086283     -0.000000      0.000000
      3.49345      0.00000     10.31858        -0.086283     -0.000000      0.000000
      1.54164      2.90702     12.61160         0.086283     -0.000000      0.000000
      4.05920      1.45351      8.02555         0.086283     -0.000000      0.000000
     -1.54165      2.90702      5.73255        -0.086283     -0.000000      0.000000
      0.97591      1.45351      1.14650        -0.086283     -0.000000      0.000000
     -0.77082      1.33511      3.43953        -0.043141      0.074723      0.000000
     -1.74673      3.02542     10.31858         0.043141     -0.074723      0.000000
     -0.77083      4.24212     12.61160        -0.043141      0.074723      0.000000
      1.74673      2.78861      8.02555        -0.043141      0.074723      0.000000
      0.77082      1.57191      5.73255         0.043141     -0.074723      0.000000
      3.28838      0.11840      1.14650         0.043141     -0.074723      0.000000
      1.74673      3.02542      3.43953        -0.043141     -0.074723      0.000000
      0.77082      1.33511     10.31858         0.043141      0.074723      0.000000
     -0.77083      1.57191     12.61160        -0.043141     -0.074723      0.000000
      0.77082      4.24212      5.73255         0.043141      0.074723      0.000000
      1.74673      0.11840      8.02555        -0.043141     -0.074723      0.000000
      3.28838      2.78861      1.14650         0.043141      0.074723      0.000000
 -----------------------------------------------------------------------------------
    total drift:                                0.014947     -0.016508     -0.000011


--------------------------------------------------------------------------------------------------------



  FREE ENERGIE OF THE ION-ELECTRON SYSTEM (eV)
  ---------------------------------------------------
  free  energy   TOTEN  =      -221.40142722 eV

  energy  without entropy=     -221.40142722  energy(sigma->0) =     -221.40142722
 


--------------------------------------------------------------------------------------------------------


    POTLOK:  cpu time    0.0937: real time    0.0939


--------------------------------------------------------------------------------------------------------


     LOOP+:  cpu time  349.6783: real time  350.5925
    4ORBIT:  cpu time    0.0000: real time    0.0000
 


 total charge     
 
# of ion       s       p       d       tot
------------------------------------------
    1        0.284   6.340   5.852  12.476
    2        0.284   6.340   5.855  12.478
    3        0.284   6.340   5.862  12.486
    4        0.284   6.340   5.852  12.475
    5        0.284   6.340   5.854  12.478
    6        0.284   6.340   5.865  12.489
    7        0.284   6.340   5.851  12.474
    8        0.284   6.340   5.853  12.477
    9        0.283   6.340   5.854  12.477
   10        0.283   6.340   5.868  12.492
   11        0.283   6.340   5.866  12.489
   12        0.283   6.340   5.857  12.480
   13        1.568   3.416   0.000   4.984
   14        1.568   3.415   0.000   4.983
   15        1.568   3.416   0.000   4.984
   16        1.568   3.416   0.000   4.985
   17        1.568   3.417   0.000   4.985
   18        1.568   3.416   0.000   4.984
   19        1.567   3.403   0.000   4.970
   20        1.567   3.403   0.000   4.970
   21        1.567   3.404   0.000   4.971
   22        1.567   3.404   0.000   4.971
   23        1.567   3.404   0.000   4.971
   24        1.567   3.404   0.000   4.971
   25        1.569   3.417   0.000   4.986
   26        1.569   3.416   0.000   4.985
   27        1.569   3.418   0.000   4.987
   28        1.569   3.419   0.000   4.988
   29        1.569   3.418   0.000   4.988
   30        1.569   3.418   0.000   4.987
--------------------------------------------------
tot         31.630 137.501  70.289 239.420
 


 magnetization (x)
 
# of ion       s       p       d       tot
------------------------------------------
    1        0.024   0.036   3.139   3.199
    2        0.024   0.036   3.136   3.197
    3        0.025   0.036   3.133   3.193
    4        0.025   0.036   3.139   3.199
    5        0.025   0.036   3.139   3.200
    6        0.025   0.036   3.131   3.191
    7        0.024   0.036   3.123   3.184
    8        0.024   0.036   3.120   3.181
    9        0.025   0.036   3.121   3.182
   10        0.025   0.036   3.115   3.175
   11        0.025   0.036   3.117   3.178
   12        0.025   0.036   3.121   3.182
   13        0.020   0.139   0.000   0.159
   14        0.020   0.138   0.000   0.159
   15        0.020   0.139   0.000   0.159
   16        0.020   0.140   0.000   0.160
   17        0.020   0.140   0.000   0.160
   18        0.020   0.139   0.000   0.159
   19        0.021   0.143   0.000   0.165
   20        0.021   0.143   0.000   0.164
   21        0.021   0.144   0.000   0.165
   22        0.021   0.144   0.000   0.165
   23        0.021   0.144   0.000   0.165
   24        0.021   0.144   0.000   0.165
   25        0.020   0.135   0.000   0.156
   26        0.020   0.135   0.000   0.155
   27        0.020   0.136   0.000   0.157
   28        0.020   0.137   0.000   0.158
   29        0.020   0.137   0.000   0.157
   30        0.020   0.137   0.000   0.157
--------------------------------------------------
tot          0.668   2.944  37.534  41.146
 
 BZINTS: Fermi energy:  6.183822;276.000000 electrons
         Band energy:***********;  BLOECHL correction: -0.033053

 total amount of memory used by VASP MPI-rank0    90518. kBytes
=======================================================================

   base      :      30000. kBytes
   nonlr-proj:       6945. kBytes
   fftplans  :       3650. kBytes
   grid      :       9372. kBytes
   one-center:        248. kBytes
   wavefun   :      40303. kBytes
 
  
  
 General timing and accounting informations for this job:
 ========================================================
  
                  Total CPU time used (sec):      356.868
                            User time (sec):      355.479
                          System time (sec):        1.389
                         Elapsed time (sec):      357.857
  
                   Maximum memory used (kb):      134996.
                   Average memory used (kb):           0.
  
                          Minor page faults:        62361
                          Major page faults:            0
                 Voluntary context switches:          198
