 vasp.5.4.4.18Apr17-6-g9f103f2a35 (build Apr 28 2018 00:24:27) complex          
  
 executed on             LinuxIFC date 2021.04.15  22:17:53
 running on    8 total cores
 distrk:  each k-point on    8 cores,    1 groups
 distr:  one band on NCORES_PER_BAND=   4 cores,    2 groups


--------------------------------------------------------------------------------------------------------


 INCAR:
 POTCAR:    PAW_PBE Eu 23Dec2003                  
 POTCAR:    PAW_PBE O 08Apr2002                   
 POTCAR:    PAW_PBE Eu 23Dec2003                  
   VRHFIN =Eu : [core=Kr4d]                                                     
   LEXCH  = PE                                                                  
   EATOM  =  2619.8085 eV,  192.5505 Ry                                         
                                                                                
   TITEL  = PAW_PBE Eu 23Dec2003                                                
   LULTRA =        F    use ultrasoft PP ?                                      
   IUNSCR =        1    unscreen: 0-lin 1-nonlin 2-no                           
   RPACOR =    2.300    partial core radius                                     
   POMASS =  151.965; ZVAL   =   17.000    mass and valenz                      
   RCORE  =    2.800    outmost cutoff radius                                   
   RWIGS  =    2.800; RWIGS  =    1.482    wigner-seitz radius (au A)           
   ENMAX  =  249.668; ENMIN  =  187.251 eV                                      
   RCLOC  =    2.308    cutoff for local pot                                    
   LCOR   =        T    correct aug charges                                     
   LPAW   =        T    paw PP                                                  
   EAUG   =  549.628                                                            
   DEXC   =    0.000                                                            
   RMAX   =    2.870    core radius for proj-oper                               
   RAUG   =    1.300    factor for augmentation sphere                          
   RDEP   =    2.887    radius for radial grids                                 
   RDEPT  =    2.221    core radius for aug-charge                              
                                                                                
   Atomic configuration                                                         
   14 entries                                                                   
     n  l   j            E        occ.                                          
     1  0  0.50    -48354.7667   2.0000                                         
     2  0  0.50     -7939.6472   2.0000                                         
     2  1  1.50     -7072.6637   6.0000                                         
     3  0  0.50     -1747.1875   2.0000                                         
     3  1  1.50     -1477.5221   6.0000                                         
     3  2  2.50     -1117.4686  10.0000                                         
     4  0  0.50      -346.8682   2.0000                                         
     4  1  1.50      -258.1962   6.0000                                         
     4  2  2.50      -134.7724  10.0000                                         
     5  0  0.50       -44.6510   2.0000                                         
     6  0  0.50        -3.6227   2.0000                                         
     5  1  1.50       -23.7639   6.0000                                         
     5  2  2.50        -1.3130   0.0000                                         
     4  3  2.50        -2.7310   7.0000                                         
   Description                                                                  
     l       E           TYP  RCUT    TYP  RCUT                                 
     0    -44.6510453     23  2.400                                             
     0     -3.6226685     23  2.400                                             
     1    -23.7638687     23  2.400                                             
     1     27.2116520     23  2.400                                             
     2     -1.3129622     23  2.500                                             
     2     13.6058260     23  2.500                                             
     3     -2.7309948     23  2.800                                             
     3     -3.4014565     23  2.800                                             
  local pseudopotential read in
  partial core-charges read in
  partial kinetic energy density read in
  atomic valenz-charges read in
  non local Contribution for L=           0  read in
    real space projection operators read in
  non local Contribution for L=           0  read in
    real space projection operators read in
  non local Contribution for L=           1  read in
    real space projection operators read in
  non local Contribution for L=           1  read in
    real space projection operators read in
  non local Contribution for L=           2  read in
    real space projection operators read in
  non local Contribution for L=           2  read in
    real space projection operators read in
  non local Contribution for L=           3  read in
    real space projection operators read in
  non local Contribution for L=           3  read in
    real space projection operators read in
    PAW grid and wavefunctions read in
 
   number of l-projection  operators is LMAX  =           8
   number of lm-projection operators is LMMAX =          32
 
 POTCAR:    PAW_PBE O 08Apr2002                   
   VRHFIN =O: s2p4                                                              
   LEXCH  = PE                                                                  
   EATOM  =   432.3788 eV,   31.7789 Ry                                         
                                                                                
   TITEL  = PAW_PBE O 08Apr2002                                                 
   LULTRA =        F    use ultrasoft PP ?                                      
   IUNSCR =        1    unscreen: 0-lin 1-nonlin 2-no                           
   RPACOR =    1.200    partial core radius                                     
   POMASS =   16.000; ZVAL   =    6.000    mass and valenz                      
   RCORE  =    1.520    outmost cutoff radius                                   
   RWIGS  =    1.550; RWIGS  =    0.820    wigner-seitz radius (au A)           
   ENMAX  =  400.000; ENMIN  =  300.000 eV                                      
   ICORE  =        2    local potential                                         
   LCOR   =        T    correct aug charges                                     
   LPAW   =        T    paw PP                                                  
   EAUG   =  605.392                                                            
   DEXC   =    0.000                                                            
   RMAX   =    1.553    core radius for proj-oper                               
   RAUG   =    1.300    factor for augmentation sphere                          
   RDEP   =    1.550    radius for radial grids                                 
   RDEPT  =    1.329    core radius for aug-charge                              
                                                                                
   Atomic configuration                                                         
    4 entries                                                                   
     n  l   j            E        occ.                                          
     1  0  0.50      -514.6923   2.0000                                         
     2  0  0.50       -23.9615   2.0000                                         
     2  1  0.50        -9.0305   4.0000                                         
     3  2  1.50        -9.5241   0.0000                                         
   Description                                                                  
     l       E           TYP  RCUT    TYP  RCUT                                 
     0    -23.9615318     23  1.200                                             
     0     -9.5240782     23  1.200                                             
     1     -9.0304911     23  1.520                                             
     1      8.1634956     23  1.520                                             
     2     -9.5240782      7  1.500                                             
  local pseudopotential read in
  partial core-charges read in
  partial kinetic energy density read in
  kinetic energy density of atom read in
  atomic valenz-charges read in
  non local Contribution for L=           0  read in
    real space projection operators read in
  non local Contribution for L=           0  read in
    real space projection operators read in
  non local Contribution for L=           1  read in
    real space projection operators read in
  non local Contribution for L=           1  read in
    real space projection operators read in
    PAW grid and wavefunctions read in
 
   number of l-projection  operators is LMAX  =           4
   number of lm-projection operators is LMMAX =           8
 

 ----------------------------------------------------------------------------- 
|                                                                             |
|  ADVICE TO THIS USER RUNNING 'VASP/VAMP'   (HEAR YOUR MASTER'S VOICE ...):  |
|                                                                             |
|      You have a (more or less) 'small supercell' and for smaller cells      |
|      it is recommended  to use the reciprocal-space projection scheme!      |
|      The real space optimization is not  efficient for small cells and it   |
|      is also less accurate ...                                              |
|      Therefore set LREAL=.FALSE. in the  INCAR file                         |
|                                                                             |
 ----------------------------------------------------------------------------- 

 Optimization of the real space projectors (new method)

 maximal supplied QI-value         = 13.42
 optimisation between [QCUT,QGAM] = [ 11.67, 23.35] = [ 38.16,152.62] Ry 
 Optimized for a Real-space Cutoff    1.63 Angstroem

   l    n(q)    QCUT    max X(q) W(low)/X(q) W(high)/X(q)  e(spline) 
   0     11    11.673    10.400    0.14E-04    0.18E-05    0.24E-07
   0     11    11.673    10.768    0.21E-04    0.32E-05    0.49E-07
   1     11    11.673     4.094    0.40E-05    0.13E-04    0.93E-07
   1     11    11.673     4.009    0.11E-04    0.46E-04    0.33E-06
   2     10    11.673    29.030    0.79E-04    0.60E-04    0.70E-06
   2     10    11.673    19.941    0.80E-04    0.60E-04    0.71E-06
   3     10    11.673    88.889    0.23E-03    0.29E-03    0.30E-06
   3     10    11.673    76.102    0.23E-03    0.30E-03    0.30E-06
 Optimization of the real space projectors (new method)

 maximal supplied QI-value         = 24.76
 optimisation between [QCUT,QGAM] = [ 11.64, 23.27] = [ 37.91,151.63] Ry 
 Optimized for a Real-space Cutoff    1.14 Angstroem

   l    n(q)    QCUT    max X(q) W(low)/X(q) W(high)/X(q)  e(spline) 
   0      8    11.635    20.381    0.10E-03    0.33E-03    0.24E-06
   0      8    11.635    15.268    0.11E-03    0.35E-03    0.26E-06
   1      7    11.635     5.964    0.24E-03    0.31E-03    0.30E-06
   1      7    11.635     5.382    0.22E-03    0.25E-03    0.26E-06
  PAW_PBE Eu 23Dec2003                  :
 energy of atom  1       EATOM=-2619.8085
 kinetic energy error for atom=    0.0015 (will be added to EATOM!!)
  PAW_PBE O 08Apr2002                   :
 energy of atom  2       EATOM= -432.3788
 kinetic energy error for atom=    0.0208 (will be added to EATOM!!)
 
 
 POSCAR: Eu2 O2                                  
  positions in direct lattice
  No initial velocities read in
 exchange correlation table for  LEXCH =        8
   RHO(1)=    0.500       N(1)  =     2000
   RHO(2)=  100.500       N(2)  =     4000
 


--------------------------------------------------------------------------------------------------------


 ion  position               nearest neighbor table
   1  0.500  0.500  0.500-   4 2.54   4 2.54   3 2.54   3 2.54   3 2.54   3 2.54
   2  0.000  0.000  0.000-   3 2.54   3 2.54   4 2.54   4 2.54   4 2.54   4 2.54
   3  0.000  0.000  0.500-   2 2.54   2 2.54   1 2.54   1 2.54   1 2.54   1 2.54
   4  0.500  0.500  0.000-   1 2.54   1 2.54   2 2.54   2 2.54   2 2.54   2 2.54
 
  LATTYP: Found a triclinic cell.
 ALAT       =     3.5926460000
 B/A-ratio  =     1.7320167830
 C/A-ratio  =     0.9999802849
 COS(alpha) =     0.0000011509
 COS(beta)  =     0.0000022268
 COS(gamma) =     0.5773403977
  
  Lattice vectors:
  
 A1 = (  -3.5926460000,   0.0000000000,   0.0000000000)
 A2 = (  -3.5925140000,   4.1483960000,   2.9333340000)
 A3 = (  -0.0000080000,   2.0741620000,  -2.9333340000)


Analysis of symmetry for initial positions (statically):
=====================================================================
 Subroutine PRICEL returns following result:
 
  LATTYP: Found a triclinic cell.
 ALAT       =     6.2225631744
 B/A-ratio  =     0.5773462592
 C/A-ratio  =     0.5773567985
 COS(alpha) =     0.0000001242
 COS(beta)  =     0.2886895351
 COS(gamma) =     0.8660197790
  
  Lattice vectors:
  
 A1 = (   5.3888990000,  -1.0371170000,  -2.9333340000)
 A2 = (   1.7962530000,  -1.0371170000,  -2.9333340000)
 A3 = (   1.7963850000,   3.1112790000,   0.0000000000)
 
   2 primitive cells build up your supercell.
 

 Routine SETGRP: Setting up the symmetry group for a 
 triclinic supercell.


 Subroutine GETGRP returns: Found  2 space group operations
 (whereof  2 operations were pure point group operations)
 out of a pool of  2 trial point group operations.


The static configuration has the point symmetry S_2 .


Analysis of symmetry for dynamics (positions and initial velocities):
=====================================================================
 Subroutine PRICEL returns following result:
 
  LATTYP: Found a triclinic cell.
 ALAT       =     6.2225631744
 B/A-ratio  =     0.5773462592
 C/A-ratio  =     0.5773567985
 COS(alpha) =     0.0000001242
 COS(beta)  =     0.2886895351
 COS(gamma) =     0.8660197790
  
  Lattice vectors:
  
 A1 = (   5.3888990000,  -1.0371170000,  -2.9333340000)
 A2 = (   1.7962530000,  -1.0371170000,  -2.9333340000)
 A3 = (   1.7963850000,   3.1112790000,   0.0000000000)
 
   2 primitive cells build up your supercell.
 

 Routine SETGRP: Setting up the symmetry group for a 
 triclinic supercell.


 Subroutine GETGRP returns: Found  2 space group operations
 (whereof  2 operations were pure point group operations)
 out of a pool of  2 trial point group operations.


The dynamic configuration has the point symmetry S_2 .


Analysis of structural, dynamic, and magnetic symmetry:
=====================================================================
 Subroutine PRICEL returns:
 Original cell was already a primitive cell.
 

 Routine SETGRP: Setting up the symmetry group for a 
 triclinic supercell.


 Subroutine GETGRP returns: Found  2 space group operations
 (whereof  2 operations were pure point group operations)
 out of a pool of  2 trial point group operations.


The magnetic configuration has the point symmetry S_2 .


 Subroutine INISYM returns: Found  2 space group operations
 (whereof  2 operations are pure point group operations),
 and found     1 'primitive' translations

 
 
 KPOINTS: pymatgen v2019.10.16 with grid density =

Automatic generation of k-mesh.
Space group operators:
 irot       det(A)        alpha          n_x          n_y          n_z        tau_x        tau_y        tau_z
    1     1.000000     0.000001     1.000000     0.000000     0.000000     0.000000     0.000000     0.000000
    2    -1.000000     0.000001     1.000000     0.000000     0.000000     0.000000     0.000000     0.000000
 
 Subroutine IBZKPT returns following result:
 ===========================================
 
 Found    485 irreducible k-points:
 
 Following reciprocal coordinates:
            Coordinates               Weight
  0.000000  0.000000  0.000000      1.000000
  0.090909  0.000000  0.000000      2.000000
  0.181818  0.000000  0.000000      2.000000
  0.272727  0.000000  0.000000      2.000000
  0.363636  0.000000  0.000000      2.000000
  0.454545  0.000000  0.000000      2.000000
 -0.000000  0.090909  0.000000      2.000000
  0.090909  0.090909  0.000000      2.000000
  0.181818  0.090909  0.000000      2.000000
  0.272727  0.090909  0.000000      2.000000
  0.363636  0.090909  0.000000      2.000000
  0.454545  0.090909 -0.000000      2.000000
 -0.454545  0.090909 -0.000000      2.000000
 -0.363636  0.090909 -0.000000      2.000000
 -0.272727  0.090909  0.000000      2.000000
 -0.181818  0.090909 -0.000000      2.000000
 -0.090909  0.090909  0.000000      2.000000
 -0.000000  0.181818  0.000000      2.000000
  0.090909  0.181818  0.000000      2.000000
  0.181818  0.181818  0.000000      2.000000
  0.272727  0.181818 -0.000000      2.000000
  0.363636  0.181818  0.000000      2.000000
  0.454545  0.181818  0.000000      2.000000
 -0.454545  0.181818 -0.000000      2.000000
 -0.363636  0.181818 -0.000000      2.000000
 -0.272727  0.181818 -0.000000      2.000000
 -0.181818  0.181818  0.000000      2.000000
 -0.090909  0.181818  0.000000      2.000000
 -0.000000  0.272727  0.000000      2.000000
  0.090909  0.272727  0.000000      2.000000
  0.181818  0.272727 -0.000000      2.000000
  0.272727  0.272727  0.000000      2.000000
  0.363636  0.272727  0.000000      2.000000
  0.454545  0.272727 -0.000000      2.000000
 -0.454545  0.272727 -0.000000      2.000000
 -0.363636  0.272727 -0.000000      2.000000
 -0.272727  0.272727  0.000000      2.000000
 -0.181818  0.272727 -0.000000      2.000000
 -0.090909  0.272727  0.000000      2.000000
 -0.000000  0.363636  0.000000      2.000000
  0.090909  0.363636  0.000000      2.000000
  0.181818  0.363636  0.000000      2.000000
  0.272727  0.363636  0.000000      2.000000
  0.363636  0.363636  0.000000      2.000000
  0.454545  0.363636 -0.000000      2.000000
 -0.454545  0.363636 -0.000000      2.000000
 -0.363636  0.363636  0.000000      2.000000
 -0.272727  0.363636  0.000000      2.000000
 -0.181818  0.363636  0.000000      2.000000
 -0.090909  0.363636  0.000000      2.000000
  0.000000  0.454545  0.000000      2.000000
  0.090909  0.454545  0.000000      2.000000
  0.181818  0.454545  0.000000      2.000000
  0.272727  0.454545  0.000000      2.000000
  0.363636  0.454545  0.000000      2.000000
  0.454545  0.454545  0.000000      2.000000
 -0.454545  0.454545 -0.000000      2.000000
 -0.363636  0.454545 -0.000000      2.000000
 -0.272727  0.454545  0.000000      2.000000
 -0.181818  0.454545  0.000000      2.000000
 -0.090909  0.454545  0.000000      2.000000
  0.000000  0.000000  0.125000      2.000000
  0.090909  0.000000  0.125000      2.000000
  0.181818  0.000000  0.125000      2.000000
  0.272727  0.000000  0.125000      2.000000
  0.363636  0.000000  0.125000      2.000000
  0.454545  0.000000  0.125000      2.000000
 -0.454545  0.000000  0.125000      2.000000
 -0.363636  0.000000  0.125000      2.000000
 -0.272727  0.000000  0.125000      2.000000
 -0.181818  0.000000  0.125000      2.000000
 -0.090909  0.000000  0.125000      2.000000
  0.000000  0.090909  0.125000      2.000000
  0.090909  0.090909  0.125000      2.000000
  0.181818  0.090909  0.125000      2.000000
  0.272727  0.090909  0.125000      2.000000
  0.363636  0.090909  0.125000      2.000000
  0.454545  0.090909  0.125000      2.000000
 -0.454545  0.090909  0.125000      2.000000
 -0.363636  0.090909  0.125000      2.000000
 -0.272727  0.090909  0.125000      2.000000
 -0.181818  0.090909  0.125000      2.000000
 -0.090909  0.090909  0.125000      2.000000
  0.000000  0.181818  0.125000      2.000000
  0.090909  0.181818  0.125000      2.000000
  0.181818  0.181818  0.125000      2.000000
  0.272727  0.181818  0.125000      2.000000
  0.363636  0.181818  0.125000      2.000000
  0.454545  0.181818  0.125000      2.000000
 -0.454545  0.181818  0.125000      2.000000
 -0.363636  0.181818  0.125000      2.000000
 -0.272727  0.181818  0.125000      2.000000
 -0.181818  0.181818  0.125000      2.000000
 -0.090909  0.181818  0.125000      2.000000
  0.000000  0.272727  0.125000      2.000000
  0.090909  0.272727  0.125000      2.000000
  0.181818  0.272727  0.125000      2.000000
  0.272727  0.272727  0.125000      2.000000
  0.363636  0.272727  0.125000      2.000000
  0.454545  0.272727  0.125000      2.000000
 -0.454545  0.272727  0.125000      2.000000
 -0.363636  0.272727  0.125000      2.000000
 -0.272727  0.272727  0.125000      2.000000
 -0.181818  0.272727  0.125000      2.000000
 -0.090909  0.272727  0.125000      2.000000
  0.000000  0.363636  0.125000      2.000000
  0.090909  0.363636  0.125000      2.000000
  0.181818  0.363636  0.125000      2.000000
  0.272727  0.363636  0.125000      2.000000
  0.363636  0.363636  0.125000      2.000000
  0.454545  0.363636  0.125000      2.000000
 -0.454545  0.363636  0.125000      2.000000
 -0.363636  0.363636  0.125000      2.000000
 -0.272727  0.363636  0.125000      2.000000
 -0.181818  0.363636  0.125000      2.000000
 -0.090909  0.363636  0.125000      2.000000
  0.000000  0.454545  0.125000      2.000000
  0.090909  0.454545  0.125000      2.000000
  0.181818  0.454545  0.125000      2.000000
  0.272727  0.454545  0.125000      2.000000
  0.363636  0.454545  0.125000      2.000000
  0.454545  0.454545  0.125000      2.000000
 -0.454545  0.454545  0.125000      2.000000
 -0.363636  0.454545  0.125000      2.000000
 -0.272727  0.454545  0.125000      2.000000
 -0.181818  0.454545  0.125000      2.000000
 -0.090909  0.454545  0.125000      2.000000
  0.000000 -0.454545  0.125000      2.000000
  0.090909 -0.454545  0.125000      2.000000
  0.181818 -0.454545  0.125000      2.000000
  0.272727 -0.454545  0.125000      2.000000
  0.363636 -0.454545  0.125000      2.000000
  0.454545 -0.454545  0.125000      2.000000
 -0.454545 -0.454545  0.125000      2.000000
 -0.363636 -0.454545  0.125000      2.000000
 -0.272727 -0.454545  0.125000      2.000000
 -0.181818 -0.454545  0.125000      2.000000
 -0.090909 -0.454545  0.125000      2.000000
  0.000000 -0.363636  0.125000      2.000000
  0.090909 -0.363636  0.125000      2.000000
  0.181818 -0.363636  0.125000      2.000000
  0.272727 -0.363636  0.125000      2.000000
  0.363636 -0.363636  0.125000      2.000000
  0.454545 -0.363636  0.125000      2.000000
 -0.454545 -0.363636  0.125000      2.000000
 -0.363636 -0.363636  0.125000      2.000000
 -0.272727 -0.363636  0.125000      2.000000
 -0.181818 -0.363636  0.125000      2.000000
 -0.090909 -0.363636  0.125000      2.000000
  0.000000 -0.272727  0.125000      2.000000
  0.090909 -0.272727  0.125000      2.000000
  0.181818 -0.272727  0.125000      2.000000
  0.272727 -0.272727  0.125000      2.000000
  0.363636 -0.272727  0.125000      2.000000
  0.454545 -0.272727  0.125000      2.000000
 -0.454545 -0.272727  0.125000      2.000000
 -0.363636 -0.272727  0.125000      2.000000
 -0.272727 -0.272727  0.125000      2.000000
 -0.181818 -0.272727  0.125000      2.000000
 -0.090909 -0.272727  0.125000      2.000000
  0.000000 -0.181818  0.125000      2.000000
  0.090909 -0.181818  0.125000      2.000000
  0.181818 -0.181818  0.125000      2.000000
  0.272727 -0.181818  0.125000      2.000000
  0.363636 -0.181818  0.125000      2.000000
  0.454545 -0.181818  0.125000      2.000000
 -0.454545 -0.181818  0.125000      2.000000
 -0.363636 -0.181818  0.125000      2.000000
 -0.272727 -0.181818  0.125000      2.000000
 -0.181818 -0.181818  0.125000      2.000000
 -0.090909 -0.181818  0.125000      2.000000
  0.000000 -0.090909  0.125000      2.000000
  0.090909 -0.090909  0.125000      2.000000
  0.181818 -0.090909  0.125000      2.000000
  0.272727 -0.090909  0.125000      2.000000
  0.363636 -0.090909  0.125000      2.000000
  0.454545 -0.090909  0.125000      2.000000
 -0.454545 -0.090909  0.125000      2.000000
 -0.363636 -0.090909  0.125000      2.000000
 -0.272727 -0.090909  0.125000      2.000000
 -0.181818 -0.090909  0.125000      2.000000
 -0.090909 -0.090909  0.125000      2.000000
  0.000000  0.000000  0.250000      2.000000
  0.090909  0.000000  0.250000      2.000000
  0.181818  0.000000  0.250000      2.000000
  0.272727  0.000000  0.250000      2.000000
  0.363636  0.000000  0.250000      2.000000
  0.454545  0.000000  0.250000      2.000000
 -0.454545  0.000000  0.250000      2.000000
 -0.363636  0.000000  0.250000      2.000000
 -0.272727  0.000000  0.250000      2.000000
 -0.181818  0.000000  0.250000      2.000000
 -0.090909  0.000000  0.250000      2.000000
  0.000000  0.090909  0.250000      2.000000
  0.090909  0.090909  0.250000      2.000000
  0.181818  0.090909  0.250000      2.000000
  0.272727  0.090909  0.250000      2.000000
  0.363636  0.090909  0.250000      2.000000
  0.454545  0.090909  0.250000      2.000000
 -0.454545  0.090909  0.250000      2.000000
 -0.363636  0.090909  0.250000      2.000000
 -0.272727  0.090909  0.250000      2.000000
 -0.181818  0.090909  0.250000      2.000000
 -0.090909  0.090909  0.250000      2.000000
  0.000000  0.181818  0.250000      2.000000
  0.090909  0.181818  0.250000      2.000000
  0.181818  0.181818  0.250000      2.000000
  0.272727  0.181818  0.250000      2.000000
  0.363636  0.181818  0.250000      2.000000
  0.454545  0.181818  0.250000      2.000000
 -0.454545  0.181818  0.250000      2.000000
 -0.363636  0.181818  0.250000      2.000000
 -0.272727  0.181818  0.250000      2.000000
 -0.181818  0.181818  0.250000      2.000000
 -0.090909  0.181818  0.250000      2.000000
  0.000000  0.272727  0.250000      2.000000
  0.090909  0.272727  0.250000      2.000000
  0.181818  0.272727  0.250000      2.000000
  0.272727  0.272727  0.250000      2.000000
  0.363636  0.272727  0.250000      2.000000
  0.454545  0.272727  0.250000      2.000000
 -0.454545  0.272727  0.250000      2.000000
 -0.363636  0.272727  0.250000      2.000000
 -0.272727  0.272727  0.250000      2.000000
 -0.181818  0.272727  0.250000      2.000000
 -0.090909  0.272727  0.250000      2.000000
  0.000000  0.363636  0.250000      2.000000
  0.090909  0.363636  0.250000      2.000000
  0.181818  0.363636  0.250000      2.000000
  0.272727  0.363636  0.250000      2.000000
  0.363636  0.363636  0.250000      2.000000
  0.454545  0.363636  0.250000      2.000000
 -0.454545  0.363636  0.250000      2.000000
 -0.363636  0.363636  0.250000      2.000000
 -0.272727  0.363636  0.250000      2.000000
 -0.181818  0.363636  0.250000      2.000000
 -0.090909  0.363636  0.250000      2.000000
  0.000000  0.454545  0.250000      2.000000
  0.090909  0.454545  0.250000      2.000000
  0.181818  0.454545  0.250000      2.000000
  0.272727  0.454545  0.250000      2.000000
  0.363636  0.454545  0.250000      2.000000
  0.454545  0.454545  0.250000      2.000000
 -0.454545  0.454545  0.250000      2.000000
 -0.363636  0.454545  0.250000      2.000000
 -0.272727  0.454545  0.250000      2.000000
 -0.181818  0.454545  0.250000      2.000000
 -0.090909  0.454545  0.250000      2.000000
  0.000000 -0.454545  0.250000      2.000000
  0.090909 -0.454545  0.250000      2.000000
  0.181818 -0.454545  0.250000      2.000000
  0.272727 -0.454545  0.250000      2.000000
  0.363636 -0.454545  0.250000      2.000000
  0.454545 -0.454545  0.250000      2.000000
 -0.454545 -0.454545  0.250000      2.000000
 -0.363636 -0.454545  0.250000      2.000000
 -0.272727 -0.454545  0.250000      2.000000
 -0.181818 -0.454545  0.250000      2.000000
 -0.090909 -0.454545  0.250000      2.000000
  0.000000 -0.363636  0.250000      2.000000
  0.090909 -0.363636  0.250000      2.000000
  0.181818 -0.363636  0.250000      2.000000
  0.272727 -0.363636  0.250000      2.000000
  0.363636 -0.363636  0.250000      2.000000
  0.454545 -0.363636  0.250000      2.000000
 -0.454545 -0.363636  0.250000      2.000000
 -0.363636 -0.363636  0.250000      2.000000
 -0.272727 -0.363636  0.250000      2.000000
 -0.181818 -0.363636  0.250000      2.000000
 -0.090909 -0.363636  0.250000      2.000000
  0.000000 -0.272727  0.250000      2.000000
  0.090909 -0.272727  0.250000      2.000000
  0.181818 -0.272727  0.250000      2.000000
  0.272727 -0.272727  0.250000      2.000000
  0.363636 -0.272727  0.250000      2.000000
  0.454545 -0.272727  0.250000      2.000000
 -0.454545 -0.272727  0.250000      2.000000
 -0.363636 -0.272727  0.250000      2.000000
 -0.272727 -0.272727  0.250000      2.000000
 -0.181818 -0.272727  0.250000      2.000000
 -0.090909 -0.272727  0.250000      2.000000
  0.000000 -0.181818  0.250000      2.000000
  0.090909 -0.181818  0.250000      2.000000
  0.181818 -0.181818  0.250000      2.000000
  0.272727 -0.181818  0.250000      2.000000
  0.363636 -0.181818  0.250000      2.000000
  0.454545 -0.181818  0.250000      2.000000
 -0.454545 -0.181818  0.250000      2.000000
 -0.363636 -0.181818  0.250000      2.000000
 -0.272727 -0.181818  0.250000      2.000000
 -0.181818 -0.181818  0.250000      2.000000
 -0.090909 -0.181818  0.250000      2.000000
  0.000000 -0.090909  0.250000      2.000000
  0.090909 -0.090909  0.250000      2.000000
  0.181818 -0.090909  0.250000      2.000000
  0.272727 -0.090909  0.250000      2.000000
  0.363636 -0.090909  0.250000      2.000000
  0.454545 -0.090909  0.250000      2.000000
 -0.454545 -0.090909  0.250000      2.000000
 -0.363636 -0.090909  0.250000      2.000000
 -0.272727 -0.090909  0.250000      2.000000
 -0.181818 -0.090909  0.250000      2.000000
 -0.090909 -0.090909  0.250000      2.000000
  0.000000  0.000000  0.375000      2.000000
  0.090909  0.000000  0.375000      2.000000
  0.181818  0.000000  0.375000      2.000000
  0.272727  0.000000  0.375000      2.000000
  0.363636  0.000000  0.375000      2.000000
  0.454545  0.000000  0.375000      2.000000
 -0.454545  0.000000  0.375000      2.000000
 -0.363636  0.000000  0.375000      2.000000
 -0.272727  0.000000  0.375000      2.000000
 -0.181818  0.000000  0.375000      2.000000
 -0.090909  0.000000  0.375000      2.000000
  0.000000  0.090909  0.375000      2.000000
  0.090909  0.090909  0.375000      2.000000
  0.181818  0.090909  0.375000      2.000000
  0.272727  0.090909  0.375000      2.000000
  0.363636  0.090909  0.375000      2.000000
  0.454545  0.090909  0.375000      2.000000
 -0.454545  0.090909  0.375000      2.000000
 -0.363636  0.090909  0.375000      2.000000
 -0.272727  0.090909  0.375000      2.000000
 -0.181818  0.090909  0.375000      2.000000
 -0.090909  0.090909  0.375000      2.000000
  0.000000  0.181818  0.375000      2.000000
  0.090909  0.181818  0.375000      2.000000
  0.181818  0.181818  0.375000      2.000000
  0.272727  0.181818  0.375000      2.000000
  0.363636  0.181818  0.375000      2.000000
  0.454545  0.181818  0.375000      2.000000
 -0.454545  0.181818  0.375000      2.000000
 -0.363636  0.181818  0.375000      2.000000
 -0.272727  0.181818  0.375000      2.000000
 -0.181818  0.181818  0.375000      2.000000
 -0.090909  0.181818  0.375000      2.000000
  0.000000  0.272727  0.375000      2.000000
  0.090909  0.272727  0.375000      2.000000
  0.181818  0.272727  0.375000      2.000000
  0.272727  0.272727  0.375000      2.000000
  0.363636  0.272727  0.375000      2.000000
  0.454545  0.272727  0.375000      2.000000
 -0.454545  0.272727  0.375000      2.000000
 -0.363636  0.272727  0.375000      2.000000
 -0.272727  0.272727  0.375000      2.000000
 -0.181818  0.272727  0.375000      2.000000
 -0.090909  0.272727  0.375000      2.000000
  0.000000  0.363636  0.375000      2.000000
  0.090909  0.363636  0.375000      2.000000
  0.181818  0.363636  0.375000      2.000000
  0.272727  0.363636  0.375000      2.000000
  0.363636  0.363636  0.375000      2.000000
  0.454545  0.363636  0.375000      2.000000
 -0.454545  0.363636  0.375000      2.000000
 -0.363636  0.363636  0.375000      2.000000
 -0.272727  0.363636  0.375000      2.000000
 -0.181818  0.363636  0.375000      2.000000
 -0.090909  0.363636  0.375000      2.000000
  0.000000  0.454545  0.375000      2.000000
  0.090909  0.454545  0.375000      2.000000
  0.181818  0.454545  0.375000      2.000000
  0.272727  0.454545  0.375000      2.000000
  0.363636  0.454545  0.375000      2.000000
  0.454545  0.454545  0.375000      2.000000
 -0.454545  0.454545  0.375000      2.000000
 -0.363636  0.454545  0.375000      2.000000
 -0.272727  0.454545  0.375000      2.000000
 -0.181818  0.454545  0.375000      2.000000
 -0.090909  0.454545  0.375000      2.000000
 -0.000000 -0.454545  0.375000      2.000000
  0.090909 -0.454545  0.375000      2.000000
  0.181818 -0.454545  0.375000      2.000000
  0.272727 -0.454545  0.375000      2.000000
  0.363636 -0.454545  0.375000      2.000000
  0.454545 -0.454545  0.375000      2.000000
 -0.454545 -0.454545  0.375000      2.000000
 -0.363636 -0.454545  0.375000      2.000000
 -0.272727 -0.454545  0.375000      2.000000
 -0.181818 -0.454545  0.375000      2.000000
 -0.090909 -0.454545  0.375000      2.000000
  0.000000 -0.363636  0.375000      2.000000
  0.090909 -0.363636  0.375000      2.000000
  0.181818 -0.363636  0.375000      2.000000
  0.272727 -0.363636  0.375000      2.000000
  0.363636 -0.363636  0.375000      2.000000
  0.454545 -0.363636  0.375000      2.000000
 -0.454545 -0.363636  0.375000      2.000000
 -0.363636 -0.363636  0.375000      2.000000
 -0.272727 -0.363636  0.375000      2.000000
 -0.181818 -0.363636  0.375000      2.000000
 -0.090909 -0.363636  0.375000      2.000000
  0.000000 -0.272727  0.375000      2.000000
  0.090909 -0.272727  0.375000      2.000000
  0.181818 -0.272727  0.375000      2.000000
  0.272727 -0.272727  0.375000      2.000000
  0.363636 -0.272727  0.375000      2.000000
  0.454545 -0.272727  0.375000      2.000000
 -0.454545 -0.272727  0.375000      2.000000
 -0.363636 -0.272727  0.375000      2.000000
 -0.272727 -0.272727  0.375000      2.000000
 -0.181818 -0.272727  0.375000      2.000000
 -0.090909 -0.272727  0.375000      2.000000
  0.000000 -0.181818  0.375000      2.000000
  0.090909 -0.181818  0.375000      2.000000
  0.181818 -0.181818  0.375000      2.000000
  0.272727 -0.181818  0.375000      2.000000
  0.363636 -0.181818  0.375000      2.000000
  0.454545 -0.181818  0.375000      2.000000
 -0.454545 -0.181818  0.375000      2.000000
 -0.363636 -0.181818  0.375000      2.000000
 -0.272727 -0.181818  0.375000      2.000000
 -0.181818 -0.181818  0.375000      2.000000
 -0.090909 -0.181818  0.375000      2.000000
  0.000000 -0.090909  0.375000      2.000000
  0.090909 -0.090909  0.375000      2.000000
  0.181818 -0.090909  0.375000      2.000000
  0.272727 -0.090909  0.375000      2.000000
  0.363636 -0.090909  0.375000      2.000000
  0.454545 -0.090909  0.375000      2.000000
 -0.454545 -0.090909  0.375000      2.000000
 -0.363636 -0.090909  0.375000      2.000000
 -0.272727 -0.090909  0.375000      2.000000
 -0.181818 -0.090909  0.375000      2.000000
 -0.090909 -0.090909  0.375000      2.000000
  0.000000  0.000000  0.500000      1.000000
  0.090909  0.000000  0.500000      2.000000
  0.181818  0.000000  0.500000      2.000000
  0.272727  0.000000  0.500000      2.000000
  0.363636  0.000000  0.500000      2.000000
  0.454545  0.000000  0.500000      2.000000
  0.000000  0.090909  0.500000      2.000000
  0.090909  0.090909  0.500000      2.000000
  0.181818  0.090909  0.500000      2.000000
  0.272727  0.090909  0.500000      2.000000
  0.363636  0.090909  0.500000      2.000000
  0.454545  0.090909  0.500000      2.000000
 -0.454545  0.090909  0.500000      2.000000
 -0.363636  0.090909  0.500000      2.000000
 -0.272727  0.090909  0.500000      2.000000
 -0.181818  0.090909  0.500000      2.000000
 -0.090909  0.090909  0.500000      2.000000
  0.000000  0.181818  0.500000      2.000000
  0.090909  0.181818  0.500000      2.000000
  0.181818  0.181818  0.500000      2.000000
  0.272727  0.181818  0.500000      2.000000
  0.363636  0.181818  0.500000      2.000000
  0.454545  0.181818  0.500000      2.000000
 -0.454545  0.181818  0.500000      2.000000
 -0.363636  0.181818  0.500000      2.000000
 -0.272727  0.181818  0.500000      2.000000
 -0.181818  0.181818  0.500000      2.000000
 -0.090909  0.181818  0.500000      2.000000
  0.000000  0.272727  0.500000      2.000000
  0.090909  0.272727  0.500000      2.000000
  0.181818  0.272727  0.500000      2.000000
  0.272727  0.272727  0.500000      2.000000
  0.363636  0.272727  0.500000      2.000000
  0.454545  0.272727  0.500000      2.000000
 -0.454545  0.272727  0.500000      2.000000
 -0.363636  0.272727  0.500000      2.000000
 -0.272727  0.272727  0.500000      2.000000
 -0.181818  0.272727  0.500000      2.000000
 -0.090909  0.272727  0.500000      2.000000
  0.000000  0.363636  0.500000      2.000000
  0.090909  0.363636  0.500000      2.000000
  0.181818  0.363636  0.500000      2.000000
  0.272727  0.363636  0.500000      2.000000
  0.363636  0.363636  0.500000      2.000000
  0.454545  0.363636  0.500000      2.000000
 -0.454545  0.363636  0.500000      2.000000
 -0.363636  0.363636  0.500000      2.000000
 -0.272727  0.363636  0.500000      2.000000
 -0.181818  0.363636  0.500000      2.000000
 -0.090909  0.363636  0.500000      2.000000
  0.000000  0.454545  0.500000      2.000000
  0.090909  0.454545  0.500000      2.000000
  0.181818  0.454545  0.500000      2.000000
  0.272727  0.454545  0.500000      2.000000
  0.363636  0.454545  0.500000      2.000000
  0.454545  0.454545  0.500000      2.000000
 -0.454545  0.454545  0.500000      2.000000
 -0.363636  0.454545  0.500000      2.000000
 -0.272727  0.454545  0.500000      2.000000
 -0.181818  0.454545  0.500000      2.000000
 -0.090909  0.454545  0.500000      2.000000
 
 Following cartesian coordinates:
            Coordinates               Weight
  0.000000  0.000000  0.000000      1.000000
  0.000000 -0.014610  0.020661      2.000000
  0.000000 -0.029219  0.041323      2.000000
  0.000000 -0.043829  0.061984      2.000000
  0.000000 -0.058438  0.082645      2.000000
  0.000000 -0.073048  0.103306      2.000000
  0.025304 -0.000001 -0.000000      2.000000
  0.025304 -0.014610  0.020661      2.000000
  0.025304 -0.029220  0.041322      2.000000
  0.025304 -0.043829  0.061983      2.000000
  0.025304 -0.058439  0.082645      2.000000
  0.025304 -0.073049  0.103306      2.000000
  0.025304  0.073048 -0.103307      2.000000
  0.025304  0.058438 -0.082646      2.000000
  0.025304  0.043828 -0.061984      2.000000
  0.025304  0.029219 -0.041323      2.000000
  0.025304  0.014609 -0.020662      2.000000
  0.050608 -0.000001 -0.000001      2.000000
  0.050608 -0.014611  0.020660      2.000000
  0.050608 -0.029220  0.041322      2.000000
  0.050608 -0.043830  0.061983      2.000000
  0.050608 -0.058439  0.082644      2.000000
  0.050608 -0.073049  0.103306      2.000000
  0.050608  0.073047 -0.103307      2.000000
  0.050608  0.058437 -0.082646      2.000000
  0.050608  0.043828 -0.061985      2.000000
  0.050608  0.029218 -0.041323      2.000000
  0.050608  0.014609 -0.020662      2.000000
  0.075913 -0.000002 -0.000001      2.000000
  0.075913 -0.014611  0.020660      2.000000
  0.075913 -0.029221  0.041321      2.000000
  0.075913 -0.043830  0.061983      2.000000
  0.075913 -0.058440  0.082644      2.000000
  0.075913 -0.073050  0.103305      2.000000
  0.075913  0.073046 -0.103308      2.000000
  0.075913  0.058437 -0.082646      2.000000
  0.075913  0.043827 -0.061985      2.000000
  0.075913  0.029218 -0.041324      2.000000
  0.075913  0.014608 -0.020663      2.000000
  0.101217 -0.000002 -0.000002      2.000000
  0.101217 -0.014612  0.020660      2.000000
  0.101217 -0.029221  0.041321      2.000000
  0.101217 -0.043831  0.061982      2.000000
  0.101217 -0.058440  0.082643      2.000000
  0.101217 -0.073050  0.103305      2.000000
  0.101217  0.073046 -0.103308      2.000000
  0.101217  0.058436 -0.082647      2.000000
  0.101217  0.043827 -0.061986      2.000000
  0.101217  0.029217 -0.041324      2.000000
  0.101217  0.014608 -0.020663      2.000000
  0.126521 -0.000003 -0.000002      2.000000
  0.126521 -0.014612  0.020659      2.000000
  0.126521 -0.029222  0.041320      2.000000
  0.126521 -0.043831  0.061982      2.000000
  0.126521 -0.058441  0.082643      2.000000
  0.126521 -0.073051  0.103304      2.000000
  0.126521  0.073045 -0.103308      2.000000
  0.126521  0.058436 -0.082647      2.000000
  0.126521  0.043826 -0.061986      2.000000
  0.126521  0.029217 -0.041325      2.000000
  0.126521  0.014607 -0.020663      2.000000
  0.000000  0.020088  0.014204      2.000000
  0.000000  0.005479  0.034866      2.000000
  0.000000 -0.009131  0.055527      2.000000
  0.000000 -0.023741  0.076188      2.000000
  0.000000 -0.038350  0.096849      2.000000
  0.000000 -0.052960  0.117511      2.000000
  0.000000  0.093136 -0.089102      2.000000
  0.000000  0.078527 -0.068441      2.000000
  0.000000  0.063917 -0.047779      2.000000
  0.000000  0.049307 -0.027118      2.000000
  0.000000  0.034698 -0.006457      2.000000
  0.025304  0.020088  0.014204      2.000000
  0.025304  0.005478  0.034865      2.000000
  0.025304 -0.009132  0.055526      2.000000
  0.025304 -0.023741  0.076188      2.000000
  0.025304 -0.038351  0.096849      2.000000
  0.025304 -0.052960  0.117510      2.000000
  0.025304  0.093136 -0.089102      2.000000
  0.025304  0.078526 -0.068441      2.000000
  0.025304  0.063917 -0.047780      2.000000
  0.025304  0.049307 -0.027119      2.000000
  0.025304  0.034697 -0.006457      2.000000
  0.050608  0.020087  0.014204      2.000000
  0.050608  0.005478  0.034865      2.000000
  0.050608 -0.009132  0.055526      2.000000
  0.050608 -0.023742  0.076187      2.000000
  0.050608 -0.038351  0.096849      2.000000
  0.050608 -0.052961  0.117510      2.000000
  0.050608  0.093135 -0.089103      2.000000
  0.050608  0.078526 -0.068442      2.000000
  0.050608  0.063916 -0.047780      2.000000
  0.050608  0.049306 -0.027119      2.000000
  0.050608  0.034697 -0.006458      2.000000
  0.075913  0.020087  0.014203      2.000000
  0.075913  0.005477  0.034864      2.000000
  0.075913 -0.009133  0.055526      2.000000
  0.075913 -0.023742  0.076187      2.000000
  0.075913 -0.038352  0.096848      2.000000
  0.075913 -0.052961  0.117509      2.000000
  0.075913  0.093135 -0.089103      2.000000
  0.075913  0.078525 -0.068442      2.000000
  0.075913  0.063915 -0.047781      2.000000
  0.075913  0.049306 -0.027119      2.000000
  0.075913  0.034696 -0.006458      2.000000
  0.101217  0.020086  0.014203      2.000000
  0.101217  0.005477  0.034864      2.000000
  0.101217 -0.009133  0.055525      2.000000
  0.101217 -0.023743  0.076186      2.000000
  0.101217 -0.038352  0.096848      2.000000
  0.101217 -0.052962  0.117509      2.000000
  0.101217  0.093134 -0.089104      2.000000
  0.101217  0.078525 -0.068442      2.000000
  0.101217  0.063915 -0.047781      2.000000
  0.101217  0.049305 -0.027120      2.000000
  0.101217  0.034696 -0.006459      2.000000
  0.126521  0.020086  0.014202      2.000000
  0.126521  0.005476  0.034864      2.000000
  0.126521 -0.009134  0.055525      2.000000
  0.126521 -0.023743  0.076186      2.000000
  0.126521 -0.038353  0.096847      2.000000
  0.126521 -0.052962  0.117509      2.000000
  0.126521  0.093134 -0.089104      2.000000
  0.126521  0.078524 -0.068443      2.000000
  0.126521  0.063914 -0.047782      2.000000
  0.126521  0.049305 -0.027120      2.000000
  0.126521  0.034695 -0.006459      2.000000
 -0.126521  0.020091  0.014207      2.000000
 -0.126521  0.005481  0.034868      2.000000
 -0.126521 -0.009128  0.055529      2.000000
 -0.126521 -0.023738  0.076190      2.000000
 -0.126521 -0.038348  0.096852      2.000000
 -0.126521 -0.052957  0.117513      2.000000
 -0.126521  0.093139 -0.089100      2.000000
 -0.126521  0.078529 -0.068439      2.000000
 -0.126521  0.063920 -0.047777      2.000000
 -0.126521  0.049310 -0.027116      2.000000
 -0.126521  0.034700 -0.006455      2.000000
 -0.101217  0.020090  0.014206      2.000000
 -0.101217  0.005481  0.034867      2.000000
 -0.101217 -0.009129  0.055529      2.000000
 -0.101217 -0.023739  0.076190      2.000000
 -0.101217 -0.038348  0.096851      2.000000
 -0.101217 -0.052958  0.117512      2.000000
 -0.101217  0.093138 -0.089100      2.000000
 -0.101217  0.078529 -0.068439      2.000000
 -0.101217  0.063919 -0.047778      2.000000
 -0.101217  0.049309 -0.027116      2.000000
 -0.101217  0.034700 -0.006455      2.000000
 -0.075913  0.020090  0.014206      2.000000
 -0.075913  0.005480  0.034867      2.000000
 -0.075913 -0.009129  0.055528      2.000000
 -0.075913 -0.023739  0.076189      2.000000
 -0.075913 -0.038349  0.096851      2.000000
 -0.075913 -0.052958  0.117512      2.000000
 -0.075913  0.093138 -0.089101      2.000000
 -0.075913  0.078528 -0.068439      2.000000
 -0.075913  0.063919 -0.047778      2.000000
 -0.075913  0.049309 -0.027117      2.000000
 -0.075913  0.034699 -0.006456      2.000000
 -0.050608  0.020089  0.014205      2.000000
 -0.050608  0.005480  0.034867      2.000000
 -0.050608 -0.009130  0.055528      2.000000
 -0.050608 -0.023740  0.076189      2.000000
 -0.050608 -0.038349  0.096850      2.000000
 -0.050608 -0.052959  0.117512      2.000000
 -0.050608  0.093137 -0.089101      2.000000
 -0.050608  0.078528 -0.068440      2.000000
 -0.050608  0.063918 -0.047779      2.000000
 -0.050608  0.049308 -0.027117      2.000000
 -0.050608  0.034699 -0.006456      2.000000
 -0.025304  0.020089  0.014205      2.000000
 -0.025304  0.005479  0.034866      2.000000
 -0.025304 -0.009130  0.055527      2.000000
 -0.025304 -0.023740  0.076189      2.000000
 -0.025304 -0.038350  0.096850      2.000000
 -0.025304 -0.052959  0.117511      2.000000
 -0.025304  0.093137 -0.089102      2.000000
 -0.025304  0.078527 -0.068440      2.000000
 -0.025304  0.063918 -0.047779      2.000000
 -0.025304  0.049308 -0.027118      2.000000
 -0.025304  0.034698 -0.006456      2.000000
  0.000000  0.040176  0.028409      2.000000
  0.000000  0.025567  0.049070      2.000000
  0.000000  0.010957  0.069731      2.000000
  0.000000 -0.003652  0.090393      2.000000
  0.000000 -0.018262  0.111054      2.000000
  0.000000 -0.032872  0.131715      2.000000
  0.000000  0.113224 -0.074898      2.000000
  0.000000  0.098615 -0.054236      2.000000
  0.000000  0.084005 -0.033575      2.000000
  0.000000  0.069396 -0.012914      2.000000
  0.000000  0.054786  0.007747      2.000000
  0.025304  0.040176  0.028408      2.000000
  0.025304  0.025566  0.049070      2.000000
  0.025304  0.010957  0.069731      2.000000
  0.025304 -0.003653  0.090392      2.000000
  0.025304 -0.018263  0.111053      2.000000
  0.025304 -0.032872  0.131715      2.000000
  0.025304  0.113224 -0.074898      2.000000
  0.025304  0.098614 -0.054237      2.000000
  0.025304  0.084005 -0.033575      2.000000
  0.025304  0.069395 -0.012914      2.000000
  0.025304  0.054786  0.007747      2.000000
  0.050608  0.040175  0.028408      2.000000
  0.050608  0.025566  0.049069      2.000000
  0.050608  0.010956  0.069730      2.000000
  0.050608 -0.003653  0.090392      2.000000
  0.050608 -0.018263  0.111053      2.000000
  0.050608 -0.032873  0.131714      2.000000
  0.050608  0.113223 -0.074898      2.000000
  0.050608  0.098614 -0.054237      2.000000
  0.050608  0.084004 -0.033576      2.000000
  0.050608  0.069395 -0.012915      2.000000
  0.050608  0.054785  0.007747      2.000000
  0.075913  0.040175  0.028407      2.000000
  0.075913  0.025565  0.049069      2.000000
  0.075913  0.010956  0.069730      2.000000
  0.075913 -0.003654  0.090391      2.000000
  0.075913 -0.018264  0.111053      2.000000
  0.075913 -0.032873  0.131714      2.000000
  0.075913  0.113223 -0.074899      2.000000
  0.075913  0.098613 -0.054238      2.000000
  0.075913  0.084004 -0.033576      2.000000
  0.075913  0.069394 -0.012915      2.000000
  0.075913  0.054784  0.007746      2.000000
  0.101217  0.040174  0.028407      2.000000
  0.101217  0.025565  0.049068      2.000000
  0.101217  0.010955  0.069730      2.000000
  0.101217 -0.003654  0.090391      2.000000
  0.101217 -0.018264  0.111052      2.000000
  0.101217 -0.032874  0.131713      2.000000
  0.101217  0.113222 -0.074899      2.000000
  0.101217  0.098613 -0.054238      2.000000
  0.101217  0.084003 -0.033577      2.000000
  0.101217  0.069394 -0.012915      2.000000
  0.101217  0.054784  0.007746      2.000000
  0.126521  0.040174  0.028407      2.000000
  0.126521  0.025564  0.049068      2.000000
  0.126521  0.010955  0.069729      2.000000
  0.126521 -0.003655  0.090390      2.000000
  0.126521 -0.018265  0.111052      2.000000
  0.126521 -0.032874  0.131713      2.000000
  0.126521  0.113222 -0.074900      2.000000
  0.126521  0.098612 -0.054238      2.000000
  0.126521  0.084003 -0.033577      2.000000
  0.126521  0.069393 -0.012916      2.000000
  0.126521  0.054783  0.007745      2.000000
 -0.126521  0.040179  0.028411      2.000000
 -0.126521  0.025569  0.049072      2.000000
 -0.126521  0.010960  0.069733      2.000000
 -0.126521 -0.003650  0.090395      2.000000
 -0.126521 -0.018259  0.111056      2.000000
 -0.126521 -0.032869  0.131717      2.000000
 -0.126521  0.113227 -0.074895      2.000000
 -0.126521  0.098617 -0.054234      2.000000
 -0.126521  0.084008 -0.033573      2.000000
 -0.126521  0.069398 -0.012912      2.000000
 -0.126521  0.054789  0.007750      2.000000
 -0.101217  0.040178  0.028410      2.000000
 -0.101217  0.025569  0.049072      2.000000
 -0.101217  0.010959  0.069733      2.000000
 -0.101217 -0.003650  0.090394      2.000000
 -0.101217 -0.018260  0.111056      2.000000
 -0.101217 -0.032870  0.131717      2.000000
 -0.101217  0.113226 -0.074896      2.000000
 -0.101217  0.098617 -0.054235      2.000000
 -0.101217  0.084007 -0.033573      2.000000
 -0.101217  0.069398 -0.012912      2.000000
 -0.101217  0.054788  0.007749      2.000000
 -0.075913  0.040178  0.028410      2.000000
 -0.075913  0.025568  0.049071      2.000000
 -0.075913  0.010959  0.069733      2.000000
 -0.075913 -0.003651  0.090394      2.000000
 -0.075913 -0.018260  0.111055      2.000000
 -0.075913 -0.032870  0.131716      2.000000
 -0.075913  0.113226 -0.074896      2.000000
 -0.075913  0.098616 -0.054235      2.000000
 -0.075913  0.084007 -0.033574      2.000000
 -0.075913  0.069397 -0.012913      2.000000
 -0.075913  0.054788  0.007749      2.000000
 -0.050608  0.040177  0.028410      2.000000
 -0.050608  0.025568  0.049071      2.000000
 -0.050608  0.010958  0.069732      2.000000
 -0.050608 -0.003651  0.090393      2.000000
 -0.050608 -0.018261  0.111055      2.000000
 -0.050608 -0.032871  0.131716      2.000000
 -0.050608  0.113225 -0.074897      2.000000
 -0.050608  0.098616 -0.054235      2.000000
 -0.050608  0.084006 -0.033574      2.000000
 -0.050608  0.069397 -0.012913      2.000000
 -0.050608  0.054787  0.007748      2.000000
 -0.025304  0.040177  0.028409      2.000000
 -0.025304  0.025567  0.049070      2.000000
 -0.025304  0.010958  0.069732      2.000000
 -0.025304 -0.003652  0.090393      2.000000
 -0.025304 -0.018261  0.111054      2.000000
 -0.025304 -0.032871  0.131716      2.000000
 -0.025304  0.113225 -0.074897      2.000000
 -0.025304  0.098615 -0.054236      2.000000
 -0.025304  0.084006 -0.033575      2.000000
 -0.025304  0.069396 -0.012913      2.000000
 -0.025304  0.054787  0.007748      2.000000
  0.000000  0.060265  0.042613      2.000000
  0.000000  0.045655  0.063274      2.000000
  0.000000  0.031045  0.083936      2.000000
  0.000000  0.016436  0.104597      2.000000
  0.000000  0.001826  0.125258      2.000000
  0.000000 -0.012783  0.145919      2.000000
  0.000000  0.133313 -0.060693      2.000000
  0.000000  0.118703 -0.040032      2.000000
  0.000000  0.104093 -0.019371      2.000000
  0.000000  0.089484  0.001291      2.000000
  0.000000  0.074874  0.021952      2.000000
  0.025304  0.060264  0.042613      2.000000
  0.025304  0.045654  0.063274      2.000000
  0.025304  0.031045  0.083935      2.000000
  0.025304  0.016435  0.104597      2.000000
  0.025304  0.001826  0.125258      2.000000
  0.025304 -0.012784  0.145919      2.000000
  0.025304  0.133312 -0.060694      2.000000
  0.025304  0.118703 -0.040032      2.000000
  0.025304  0.104093 -0.019371      2.000000
  0.025304  0.089483  0.001290      2.000000
  0.025304  0.074874  0.021951      2.000000
  0.050608  0.060264  0.042612      2.000000
  0.050608  0.045654  0.063274      2.000000
  0.050608  0.031044  0.083935      2.000000
  0.050608  0.016435  0.104596      2.000000
  0.050608  0.001825  0.125257      2.000000
  0.050608 -0.012784  0.145919      2.000000
  0.050608  0.133312 -0.060694      2.000000
  0.050608  0.118702 -0.040033      2.000000
  0.050608  0.104092 -0.019372      2.000000
  0.050608  0.089483  0.001290      2.000000
  0.050608  0.074873  0.021951      2.000000
  0.075913  0.060263  0.042612      2.000000
  0.075913  0.045653  0.063273      2.000000
  0.075913  0.031044  0.083934      2.000000
  0.075913  0.016434  0.104596      2.000000
  0.075913  0.001825  0.125257      2.000000
  0.075913 -0.012785  0.145918      2.000000
  0.075913  0.133311 -0.060695      2.000000
  0.075913  0.118701 -0.040033      2.000000
  0.075913  0.104092 -0.019372      2.000000
  0.075913  0.089482  0.001289      2.000000
  0.075913  0.074873  0.021951      2.000000
  0.101217  0.060263  0.042611      2.000000
  0.101217  0.045653  0.063273      2.000000
  0.101217  0.031043  0.083934      2.000000
  0.101217  0.016434  0.104595      2.000000
  0.101217  0.001824  0.125257      2.000000
  0.101217 -0.012785  0.145918      2.000000
  0.101217  0.133311 -0.060695      2.000000
  0.101217  0.118701 -0.040034      2.000000
  0.101217  0.104091 -0.019372      2.000000
  0.101217  0.089482  0.001289      2.000000
  0.101217  0.074872  0.021950      2.000000
  0.126521  0.060262  0.042611      2.000000
  0.126521  0.045652  0.063272      2.000000
  0.126521  0.031043  0.083934      2.000000
  0.126521  0.016433  0.104595      2.000000
  0.126521  0.001824  0.125256      2.000000
  0.126521 -0.012786  0.145917      2.000000
  0.126521  0.133310 -0.060695      2.000000
  0.126521  0.118700 -0.040034      2.000000
  0.126521  0.104091 -0.019373      2.000000
  0.126521  0.089481  0.001288      2.000000
  0.126521  0.074872  0.021950      2.000000
 -0.126521  0.060267  0.042615      2.000000
 -0.126521  0.045658  0.063277      2.000000
 -0.126521  0.031048  0.083938      2.000000
 -0.126521  0.016438  0.104599      2.000000
 -0.126521  0.001829  0.125260      2.000000
 -0.126521 -0.012781  0.145922      2.000000
 -0.126521  0.133315 -0.060691      2.000000
 -0.126521  0.118706 -0.040030      2.000000
 -0.126521  0.104096 -0.019369      2.000000
 -0.126521  0.089486  0.001293      2.000000
 -0.126521  0.074877  0.021954      2.000000
 -0.101217  0.060267  0.042615      2.000000
 -0.101217  0.045657  0.063276      2.000000
 -0.101217  0.031047  0.083937      2.000000
 -0.101217  0.016438  0.104599      2.000000
 -0.101217  0.001828  0.125260      2.000000
 -0.101217 -0.012781  0.145921      2.000000
 -0.101217  0.133315 -0.060692      2.000000
 -0.101217  0.118705 -0.040030      2.000000
 -0.101217  0.104095 -0.019369      2.000000
 -0.101217  0.089486  0.001292      2.000000
 -0.101217  0.074876  0.021954      2.000000
 -0.075913  0.060266  0.042614      2.000000
 -0.075913  0.045657  0.063276      2.000000
 -0.075913  0.031047  0.083937      2.000000
 -0.075913  0.016437  0.104598      2.000000
 -0.075913  0.001828  0.125259      2.000000
 -0.075913 -0.012782  0.145921      2.000000
 -0.075913  0.133314 -0.060692      2.000000
 -0.075913  0.118705 -0.040031      2.000000
 -0.075913  0.104095 -0.019369      2.000000
 -0.075913  0.089485  0.001292      2.000000
 -0.075913  0.074876  0.021953      2.000000
 -0.050608  0.060266  0.042614      2.000000
 -0.050608  0.045656  0.063275      2.000000
 -0.050608  0.031046  0.083937      2.000000
 -0.050608  0.016437  0.104598      2.000000
 -0.050608  0.001827  0.125259      2.000000
 -0.050608 -0.012782  0.145920      2.000000
 -0.050608  0.133314 -0.060692      2.000000
 -0.050608  0.118704 -0.040031      2.000000
 -0.050608  0.104094 -0.019370      2.000000
 -0.050608  0.089485  0.001291      2.000000
 -0.050608  0.074875  0.021953      2.000000
 -0.025304  0.060265  0.042614      2.000000
 -0.025304  0.045656  0.063275      2.000000
 -0.025304  0.031046  0.083936      2.000000
 -0.025304  0.016436  0.104597      2.000000
 -0.025304  0.001827  0.125259      2.000000
 -0.025304 -0.012783  0.145920      2.000000
 -0.025304  0.133313 -0.060693      2.000000
 -0.025304  0.118704 -0.040032      2.000000
 -0.025304  0.104094 -0.019370      2.000000
 -0.025304  0.089484  0.001291      2.000000
 -0.025304  0.074875  0.021952      2.000000
  0.000000  0.080353  0.056818      1.000000
  0.000000  0.065743  0.077479      2.000000
  0.000000  0.051134  0.098140      2.000000
  0.000000  0.036524  0.118801      2.000000
  0.000000  0.021914  0.139463      2.000000
  0.000000  0.007305  0.160124      2.000000
  0.025304  0.080352  0.056817      2.000000
  0.025304  0.065743  0.077478      2.000000
  0.025304  0.051133  0.098140      2.000000
  0.025304  0.036523  0.118801      2.000000
  0.025304  0.021914  0.139462      2.000000
  0.025304  0.007304  0.160123      2.000000
  0.025304  0.153400 -0.046489      2.000000
  0.025304  0.138791 -0.025828      2.000000
  0.025304  0.124181 -0.005167      2.000000
  0.025304  0.109572  0.015495      2.000000
  0.025304  0.094962  0.036156      2.000000
  0.050608  0.080352  0.056817      2.000000
  0.050608  0.065742  0.077478      2.000000
  0.050608  0.051133  0.098139      2.000000
  0.050608  0.036523  0.118800      2.000000
  0.050608  0.021913  0.139462      2.000000
  0.050608  0.007304  0.160123      2.000000
  0.050608  0.153400 -0.046490      2.000000
  0.050608  0.138790 -0.025828      2.000000
  0.050608  0.124181 -0.005167      2.000000
  0.050608  0.109571  0.015494      2.000000
  0.050608  0.094961  0.036155      2.000000
  0.075913  0.080351  0.056816      2.000000
  0.075913  0.065742  0.077478      2.000000
  0.075913  0.051132  0.098139      2.000000
  0.075913  0.036522  0.118800      2.000000
  0.075913  0.021913  0.139461      2.000000
  0.075913  0.007303  0.160123      2.000000
  0.075913  0.153399 -0.046490      2.000000
  0.075913  0.138790 -0.025829      2.000000
  0.075913  0.124180 -0.005168      2.000000
  0.075913  0.109570  0.015494      2.000000
  0.075913  0.094961  0.036155      2.000000
  0.101217  0.080351  0.056816      2.000000
  0.101217  0.065741  0.077477      2.000000
  0.101217  0.051132  0.098138      2.000000
  0.101217  0.036522  0.118800      2.000000
  0.101217  0.021912  0.139461      2.000000
  0.101217  0.007303  0.160122      2.000000
  0.101217  0.153399 -0.046491      2.000000
  0.101217  0.138789 -0.025829      2.000000
  0.101217  0.124180 -0.005168      2.000000
  0.101217  0.109570  0.015493      2.000000
  0.101217  0.094960  0.036155      2.000000
  0.126521  0.080350  0.056815      2.000000
  0.126521  0.065741  0.077477      2.000000
  0.126521  0.051131  0.098138      2.000000
  0.126521  0.036521  0.118799      2.000000
  0.126521  0.021912  0.139460      2.000000
  0.126521  0.007302  0.160122      2.000000
  0.126521  0.153398 -0.046491      2.000000
  0.126521  0.138789 -0.025830      2.000000
  0.126521  0.124179 -0.005168      2.000000
  0.126521  0.109569  0.015493      2.000000
  0.126521  0.094960  0.036154      2.000000
 


--------------------------------------------------------------------------------------------------------




 Dimension of arrays:
   k-points           NKPTS =    485   k-points in BZ     NKDIM =    485   number of bands    NBANDS=     28
   number of dos      NEDOS =    301   number of ions     NIONS =      4
   non local maximal  LDIM  =      8   non local SUM 2l+1 LMDIM =     32
   total plane-waves  NPLWV =  31360
   max r-space proj   IRMAX =   8681   max aug-charges    IRDMAX=  27536
   dimension x,y,z NGX =    28 NGY =   28 NGZ =   40
   dimension x,y,z NGXF=    56 NGYF=   56 NGZF=   80
   support grid    NGXF=    56 NGYF=   56 NGZF=   80
   ions per type =               2   2
   NGX,Y,Z   is equivalent  to a cutoff of  12.96, 12.96, 13.09 a.u.
   NGXF,Y,Z  is equivalent  to a cutoff of  25.91, 25.91, 26.18 a.u.

 SYSTEM =  unknown system                          
 POSCAR =  Eu2 O2                                  

 Startparameter for this run:
   NWRITE =      2    write-flag & timer
   PREC   = accura    normal or accurate (medium, high low for compatibility)
   ISTART =      0    job   : 0-new  1-cont  2-samecut
   ICHARG =      2    charge: 1-file 2-atom 10-const
   ISPIN  =      2    spin polarized calculation?
   LNONCOLLINEAR =      F non collinear calculations
   LSORBIT =      F    spin-orbit coupling
   INIWAV =      1    electr: 0-lowe 1-rand  2-diag
   LASPH  =      T    aspherical Exc in radial PAW
   METAGGA=      F    non-selfconsistent MetaGGA calc.

 Electronic Relaxation 1
   ENCUT  =  520.0 eV  38.22 Ry    6.18 a.u.   6.68  6.68  9.45*2*pi/ulx,y,z
   ENINI  =  520.0     initial cutoff
   ENAUG  =  605.4 eV  augmentation charge cutoff
   NELM   =    100;   NELMIN=  2; NELMDL= -5     # of ELM steps 
   EDIFF  = 0.1E-03   stopping-criterion for ELM
   LREAL  =      T    real-space projection
   NLSPLINE    = F    spline interpolate recip. space projectors
   LCOMPAT=      F    compatible to vasp.4.4
   GGA_COMPAT  = T    GGA compatible to vasp.4.4-vasp.4.6
   LMAXPAW     = -100 max onsite density
   LMAXMIX     =    4 max onsite mixed and CHGCAR
   VOSKOWN=      0    Vosko Wilk Nusair interpolation
   ROPT   =   -0.00025  -0.00025
 Ionic relaxation
   EDIFFG = -.1E-01   stopping-criterion for IOM
   NSW    =     99    number of steps for IOM
   NBLOCK =      1;   KBLOCK =     99    inner block; outer block 
   IBRION =      2    ionic relax: 0-MD 1-quasi-New 2-CG
   NFREE  =      1    steps in history (QN), initial steepest desc. (CG)
   ISIF   =      4    stress and relaxation
   IWAVPR =     11    prediction:  0-non 1-charg 2-wave 3-comb
   ISYM   =      2    0-nonsym 1-usesym 2-fastsym
   LCORR  =      T    Harris-Foulkes like correction to forces

   POTIM  = 0.3000    time-step for ionic-motion
   TEIN   =    0.0    initial temperature
   TEBEG  =    0.0;   TEEND  =   0.0 temperature during run
   SMASS  =  -3.00    Nose mass-parameter (am)
   estimated Nose-frequenzy (Omega)   =  0.10E-29 period in steps =****** mass=  -0.295E-27a.u.
   SCALEE = 1.0000    scale energy and forces
   NPACO  =    256;   APACO  = 16.0  distance and # of slots for P.C.
   PSTRESS=    0.0 pullay stress

  Mass of Ions in am
   POMASS = 151.97 16.00
  Ionic Valenz
   ZVAL   =  17.00  6.00
  Atomic Wigner-Seitz radii
   RWIGS  =  -1.00 -1.00
  virtual crystal weights 
   VCA    =   1.00  1.00
   NELECT =      46.0000    total number of electrons
   NUPDOWN=      -1.0000    fix difference up-down

 DOS related values:
   EMIN   =  10.00;   EMAX   =-10.00  energy-range for DOS
   EFERMI =   0.00
   ISMEAR =     0;   SIGMA  =   0.01  broadening in eV -4-tet -1-fermi 0-gaus

 Electronic relaxation 2 (details)
   IALGO  =     68    algorithm
   LDIAG  =      T    sub-space diagonalisation (order eigenvalues)
   LSUBROT=      F    optimize rotation matrix (better conditioning)
   TURBO    =      0    0=normal 1=particle mesh
   IRESTART =      0    0=no restart 2=restart with 2 vectors
   NREBOOT  =      0    no. of reboots
   NMIN     =      0    reboot dimension
   EREF     =   0.00    reference energy to select bands
   IMIX   =      4    mixing-type and parameters
     AMIX     =   0.40;   BMIX     =  1.00
     AMIX_MAG =   1.60;   BMIX_MAG =  1.00
     AMIN     =   0.10
     WC   =   100.;   INIMIX=   1;  MIXPRE=   1;  MAXMIX= -45

 Intra band minimization:
   WEIMIN = 0.0010     energy-eigenvalue tresh-hold
   EBREAK =  0.89E-06  absolut break condition
   DEPER  =   0.30     relativ break condition  

   TIME   =   0.40     timestep for ELM

  volume/ion in A,a.u.               =      16.39       110.63
  Fermi-wavevector in a.u.,A,eV,Ry     =   1.454607  2.748810 28.788334  2.115883
  Thomas-Fermi vector in A             =   2.571738
 
 Write flags
   LWAVE        =      F    write WAVECAR
   LDOWNSAMPLE  =      F    k-point downsampling of WAVECAR
   LCHARG       =      F    write CHGCAR
   LVTOT        =      F    write LOCPOT, total local potential
   LVHAR        =      F    write LOCPOT, Hartree potential only
   LELF         =      F    write electronic localiz. function (ELF)
   LORBIT       =     11    0 simple, 1 ext, 2 COOP (PROOUT), +10 PAW based schemes


 Dipole corrections
   LMONO  =      F    monopole corrections only (constant potential shift)
   LDIPOL =      F    correct potential (dipole corrections)
   IDIPOL =      0    1-x, 2-y, 3-z, 4-all directions 
   EPSILON=  1.0000000 bulk dielectric constant

 Exchange correlation treatment:
   GGA     =    --    GGA type
   LEXCH   =     8    internal setting for exchange type
   VOSKOWN=      0    Vosko Wilk Nusair interpolation
   LHFCALC =     F    Hartree Fock is set to
   LHFONE  =     F    Hartree Fock one center treatment
   AEXX    =    0.0000 exact exchange contribution

 Linear response parameters
   LEPSILON=     F    determine dielectric tensor
   LRPA    =     F    only Hartree local field effects (RPA)
   LNABLA  =     F    use nabla operator in PAW spheres
   LVEL    =     F    velocity operator in full k-point grid
   LINTERFAST=   F  fast interpolation
   KINTER  =     0    interpolate to denser k-point grid
   CSHIFT  =0.1000    complex shift for real part using Kramers Kronig
   OMEGAMAX=  -1.0    maximum frequency
   DEG_THRESHOLD= 0.2000000E-02 threshold for treating states as degnerate
   RTIME   =   -0.100 relaxation time in fs
  (WPLASMAI=    0.000 imaginary part of plasma frequency in eV, 0.658/RTIME)
   DFIELD  = 0.0000000 0.0000000 0.0000000 field for delta impulse in time
 
 Orbital magnetization related:
   ORBITALMAG=     F  switch on orbital magnetization
   LCHIMAG   =     F  perturbation theory with respect to B field
   DQ        =  0.001000  dq finite difference perturbation B field
   LLRAUG    =     F  two centre corrections for induced B field



--------------------------------------------------------------------------------------------------------


 conjugate gradient relaxation of ions
 charge density and potential will be updated during run
 spin polarized calculation
 RMM-DIIS sequential band-by-band and
  variant of blocked Davidson during initial phase
 perform sub-space diagonalisation
    before iterative eigenvector-optimisation
 modified Broyden-mixing scheme, WC =      100.0
 initial mixing is a Kerker type mixing with AMIX =  0.4000 and BMIX =      1.0000
 Hartree-type preconditioning will be used
 using additional bands            5
 real space projection scheme for non local part
 use partial core corrections
 calculate Harris-corrections to forces 
   (improved forces if not selfconsistent)
 use gradient corrections 
 use of overlap-Matrix (Vanderbilt PP)
 Gauss-broadening in eV      SIGMA  =   0.01


--------------------------------------------------------------------------------------------------------


  energy-cutoff  :      520.00
  volume of cell :       65.58
      direct lattice vectors                 reciprocal lattice vectors
     0.000008000 -2.074162000  2.933334000     0.000000000 -0.160705613  0.227273990
     3.592646000  0.000000000  0.000000000     0.278346378 -0.000005547 -0.000004681
     0.000132000  4.148396000  2.933334000     0.000000000  0.160705613  0.113635023

  length of vectors
     3.592575171  3.592646000  5.080712327     0.278351865  0.278346378  0.196822795


 
 k-points in units of 2pi/SCALE and weight: pymatgen v2019.10.16 with grid density =
   0.00000000  0.00000000  0.00000000       0.001
   0.00000000 -0.01460960  0.02066127       0.002
   0.00000000 -0.02921920  0.04132254       0.002
   0.00000000 -0.04382880  0.06198382       0.002
   0.00000000 -0.05843840  0.08264509       0.002
   0.00000000 -0.07304801  0.10330636       0.002
   0.02530422 -0.00000050 -0.00000043       0.002
   0.02530422 -0.01461011  0.02066085       0.002
   0.02530422 -0.02921971  0.04132212       0.002
   0.02530422 -0.04382931  0.06198339       0.002
   0.02530422 -0.05843891  0.08264466       0.002
   0.02530422 -0.07304851  0.10330593       0.002
   0.02530422  0.07304750 -0.10330678       0.002
   0.02530422  0.05843790 -0.08264551       0.002
   0.02530422  0.04382830 -0.06198424       0.002
   0.02530422  0.02921870 -0.04132297       0.002
   0.02530422  0.01460910 -0.02066170       0.002
   0.05060843 -0.00000101 -0.00000085       0.002
   0.05060843 -0.01461061  0.02066042       0.002
   0.05060843 -0.02922021  0.04132169       0.002
   0.05060843 -0.04382981  0.06198296       0.002
   0.05060843 -0.05843941  0.08264424       0.002
   0.05060843 -0.07304901  0.10330551       0.002
   0.05060843  0.07304700 -0.10330721       0.002
   0.05060843  0.05843740 -0.08264594       0.002
   0.05060843  0.04382780 -0.06198467       0.002
   0.05060843  0.02921819 -0.04132339       0.002
   0.05060843  0.01460859 -0.02066212       0.002
   0.07591265 -0.00000151 -0.00000128       0.002
   0.07591265 -0.01461111  0.02066000       0.002
   0.07591265 -0.02922072  0.04132127       0.002
   0.07591265 -0.04383032  0.06198254       0.002
   0.07591265 -0.05843992  0.08264381       0.002
   0.07591265 -0.07304952  0.10330508       0.002
   0.07591265  0.07304649 -0.10330764       0.002
   0.07591265  0.05843689 -0.08264636       0.002
   0.07591265  0.04382729 -0.06198509       0.002
   0.07591265  0.02921769 -0.04132382       0.002
   0.07591265  0.01460809 -0.02066255       0.002
   0.10121686 -0.00000202 -0.00000170       0.002
   0.10121686 -0.01461162  0.02065957       0.002
   0.10121686 -0.02922122  0.04132084       0.002
   0.10121686 -0.04383082  0.06198211       0.002
   0.10121686 -0.05844042  0.08264339       0.002
   0.10121686 -0.07305002  0.10330466       0.002
   0.10121686  0.07304599 -0.10330806       0.002
   0.10121686  0.05843639 -0.08264679       0.002
   0.10121686  0.04382679 -0.06198552       0.002
   0.10121686  0.02921719 -0.04132425       0.002
   0.10121686  0.01460758 -0.02066297       0.002
   0.12652108 -0.00000252 -0.00000213       0.002
   0.12652108 -0.01461212  0.02065914       0.002
   0.12652108 -0.02922172  0.04132042       0.002
   0.12652108 -0.04383132  0.06198169       0.002
   0.12652108 -0.05844093  0.08264296       0.002
   0.12652108 -0.07305053  0.10330423       0.002
   0.12652108  0.07304548 -0.10330849       0.002
   0.12652108  0.05843588 -0.08264722       0.002
   0.12652108  0.04382628 -0.06198594       0.002
   0.12652108  0.02921668 -0.04132467       0.002
   0.12652108  0.01460708 -0.02066340       0.002
   0.00000000  0.02008820  0.01420438       0.002
   0.00000000  0.00547860  0.03486565       0.002
   0.00000000 -0.00913100  0.05552692       0.002
   0.00000000 -0.02374060  0.07618819       0.002
   0.00000000 -0.03835020  0.09684947       0.002
   0.00000000 -0.05295980  0.11751074       0.002
   0.00000000  0.09313621 -0.08910198       0.002
   0.00000000  0.07852661 -0.06844071       0.002
   0.00000000  0.06391701 -0.04777944       0.002
   0.00000000  0.04930740 -0.02711817       0.002
   0.00000000  0.03469780 -0.00645689       0.002
   0.02530422  0.02008770  0.01420395       0.002
   0.02530422  0.00547810  0.03486522       0.002
   0.02530422 -0.00913151  0.05552650       0.002
   0.02530422 -0.02374111  0.07618777       0.002
   0.02530422 -0.03835071  0.09684904       0.002
   0.02530422 -0.05296031  0.11751031       0.002
   0.02530422  0.09313570 -0.08910241       0.002
   0.02530422  0.07852610 -0.06844114       0.002
   0.02530422  0.06391650 -0.04777986       0.002
   0.02530422  0.04930690 -0.02711859       0.002
   0.02530422  0.03469730 -0.00645732       0.002
   0.05060843  0.02008719  0.01420353       0.002
   0.05060843  0.00547759  0.03486480       0.002
   0.05060843 -0.00913201  0.05552607       0.002
   0.05060843 -0.02374161  0.07618734       0.002
   0.05060843 -0.03835121  0.09684861       0.002
   0.05060843 -0.05296081  0.11750989       0.002
   0.05060843  0.09313520 -0.08910283       0.002
   0.05060843  0.07852560 -0.06844156       0.002
   0.05060843  0.06391600 -0.04778029       0.002
   0.05060843  0.04930640 -0.02711902       0.002
   0.05060843  0.03469679 -0.00645775       0.002
   0.07591265  0.02008669  0.01420310       0.002
   0.07591265  0.00547709  0.03486437       0.002
   0.07591265 -0.00913251  0.05552564       0.002
   0.07591265 -0.02374211  0.07618692       0.002
   0.07591265 -0.03835172  0.09684819       0.002
   0.07591265 -0.05296132  0.11750946       0.002
   0.07591265  0.09313469 -0.08910326       0.002
   0.07591265  0.07852509 -0.06844199       0.002
   0.07591265  0.06391549 -0.04778071       0.002
   0.07591265  0.04930589 -0.02711944       0.002
   0.07591265  0.03469629 -0.00645817       0.002
   0.10121686  0.02008618  0.01420268       0.002
   0.10121686  0.00547658  0.03486395       0.002
   0.10121686 -0.00913302  0.05552522       0.002
   0.10121686 -0.02374262  0.07618649       0.002
   0.10121686 -0.03835222  0.09684776       0.002
   0.10121686 -0.05296182  0.11750903       0.002
   0.10121686  0.09313419 -0.08910368       0.002
   0.10121686  0.07852459 -0.06844241       0.002
   0.10121686  0.06391499 -0.04778114       0.002
   0.10121686  0.04930539 -0.02711987       0.002
   0.10121686  0.03469579 -0.00645860       0.002
   0.12652108  0.02008568  0.01420225       0.002
   0.12652108  0.00547608  0.03486352       0.002
   0.12652108 -0.00913352  0.05552479       0.002
   0.12652108 -0.02374312  0.07618607       0.002
   0.12652108 -0.03835272  0.09684734       0.002
   0.12652108 -0.05296233  0.11750861       0.002
   0.12652108  0.09313369 -0.08910411       0.002
   0.12652108  0.07852409 -0.06844284       0.002
   0.12652108  0.06391448 -0.04778157       0.002
   0.12652108  0.04930488 -0.02712029       0.002
   0.12652108  0.03469528 -0.00645902       0.002
  -0.12652108  0.02009072  0.01420651       0.002
  -0.12652108  0.00548112  0.03486778       0.002
  -0.12652108 -0.00912848  0.05552905       0.002
  -0.12652108 -0.02373808  0.07619032       0.002
  -0.12652108 -0.03834768  0.09685159       0.002
  -0.12652108 -0.05295728  0.11751287       0.002
  -0.12652108  0.09313873 -0.08909985       0.002
  -0.12652108  0.07852913 -0.06843858       0.002
  -0.12652108  0.06391953 -0.04777731       0.002
  -0.12652108  0.04930993 -0.02711604       0.002
  -0.12652108  0.03470032 -0.00645477       0.002
  -0.10121686  0.02009022  0.01420608       0.002
  -0.10121686  0.00548062  0.03486735       0.002
  -0.10121686 -0.00912898  0.05552862       0.002
  -0.10121686 -0.02373858  0.07618990       0.002
  -0.10121686 -0.03834819  0.09685117       0.002
  -0.10121686 -0.05295779  0.11751244       0.002
  -0.10121686  0.09313822 -0.08910028       0.002
  -0.10121686  0.07852862 -0.06843901       0.002
  -0.10121686  0.06391902 -0.04777774       0.002
  -0.10121686  0.04930942 -0.02711646       0.002
  -0.10121686  0.03469982 -0.00645519       0.002
  -0.07591265  0.02008971  0.01420565       0.002
  -0.07591265  0.00548011  0.03486693       0.002
  -0.07591265 -0.00912949  0.05552820       0.002
  -0.07591265 -0.02373909  0.07618947       0.002
  -0.07591265 -0.03834869  0.09685074       0.002
  -0.07591265 -0.05295829  0.11751201       0.002
  -0.07591265  0.09313772 -0.08910070       0.002
  -0.07591265  0.07852812 -0.06843943       0.002
  -0.07591265  0.06391852 -0.04777816       0.002
  -0.07591265  0.04930892 -0.02711689       0.002
  -0.07591265  0.03469932 -0.00645562       0.002
  -0.05060843  0.02008921  0.01420523       0.002
  -0.05060843  0.00547961  0.03486650       0.002
  -0.05060843 -0.00912999  0.05552777       0.002
  -0.05060843 -0.02373959  0.07618904       0.002
  -0.05060843 -0.03834919  0.09685032       0.002
  -0.05060843 -0.05295880  0.11751159       0.002
  -0.05060843  0.09313722 -0.08910113       0.002
  -0.05060843  0.07852762 -0.06843986       0.002
  -0.05060843  0.06391801 -0.04777859       0.002
  -0.05060843  0.04930841 -0.02711731       0.002
  -0.05060843  0.03469881 -0.00645604       0.002
  -0.02530422  0.02008871  0.01420480       0.002
  -0.02530422  0.00547910  0.03486608       0.002
  -0.02530422 -0.00913050  0.05552735       0.002
  -0.02530422 -0.02374010  0.07618862       0.002
  -0.02530422 -0.03834970  0.09684989       0.002
  -0.02530422 -0.05295930  0.11751116       0.002
  -0.02530422  0.09313671 -0.08910156       0.002
  -0.02530422  0.07852711 -0.06844028       0.002
  -0.02530422  0.06391751 -0.04777901       0.002
  -0.02530422  0.04930791 -0.02711774       0.002
  -0.02530422  0.03469831 -0.00645647       0.002
   0.00000000  0.04017640  0.02840876       0.002
   0.00000000  0.02556680  0.04907003       0.002
   0.00000000  0.01095720  0.06973130       0.002
   0.00000000 -0.00365240  0.09039257       0.002
   0.00000000 -0.01826200  0.11105384       0.002
   0.00000000 -0.03287160  0.13171512       0.002
   0.00000000  0.11322441 -0.07489760       0.002
   0.00000000  0.09861481 -0.05423633       0.002
   0.00000000  0.08400521 -0.03357506       0.002
   0.00000000  0.06939561 -0.01291379       0.002
   0.00000000  0.05478600  0.00774748       0.002
   0.02530422  0.04017590  0.02840833       0.002
   0.02530422  0.02556630  0.04906960       0.002
   0.02530422  0.01095670  0.06973087       0.002
   0.02530422 -0.00365290  0.09039215       0.002
   0.02530422 -0.01826251  0.11105342       0.002
   0.02530422 -0.03287211  0.13171469       0.002
   0.02530422  0.11322391 -0.07489803       0.002
   0.02530422  0.09861430 -0.05423676       0.002
   0.02530422  0.08400470 -0.03357549       0.002
   0.02530422  0.06939510 -0.01291421       0.002
   0.02530422  0.05478550  0.00774706       0.002
   0.05060843  0.04017539  0.02840790       0.002
   0.05060843  0.02556579  0.04906918       0.002
   0.05060843  0.01095619  0.06973045       0.002
   0.05060843 -0.00365341  0.09039172       0.002
   0.05060843 -0.01826301  0.11105299       0.002
   0.05060843 -0.03287261  0.13171426       0.002
   0.05060843  0.11322340 -0.07489845       0.002
   0.05060843  0.09861380 -0.05423718       0.002
   0.05060843  0.08400420 -0.03357591       0.002
   0.05060843  0.06939460 -0.01291464       0.002
   0.05060843  0.05478500  0.00774663       0.002
   0.07591265  0.04017489  0.02840748       0.002
   0.07591265  0.02556529  0.04906875       0.002
   0.07591265  0.01095569  0.06973002       0.002
   0.07591265 -0.00365391  0.09039129       0.002
   0.07591265 -0.01826351  0.11105257       0.002
   0.07591265 -0.03287312  0.13171384       0.002
   0.07591265  0.11322290 -0.07489888       0.002
   0.07591265  0.09861330 -0.05423761       0.002
   0.07591265  0.08400369 -0.03357634       0.002
   0.07591265  0.06939409 -0.01291506       0.002
   0.07591265  0.05478449  0.00774621       0.002
   0.10121686  0.04017439  0.02840705       0.002
   0.10121686  0.02556479  0.04906833       0.002
   0.10121686  0.01095518  0.06972960       0.002
   0.10121686 -0.00365442  0.09039087       0.002
   0.10121686 -0.01826402  0.11105214       0.002
   0.10121686 -0.03287362  0.13171341       0.002
[...]
 -0.000  -0.000  -0.008   7.756  -0.000   0.008   5.169   0.000
 -0.000  -0.000   0.000  -0.000   7.761   0.000   0.000   5.163
  0.000  -0.000  -0.000  -0.000  -0.000  -0.000  -0.000  -0.000
  0.005   0.000  -0.000  -0.000  -0.000  -0.000  -0.000  -0.000
 -0.000   0.000   0.000  -0.000   0.000   0.000  -0.000   0.000
  0.000  -0.000  -0.000  -0.000  -0.000  -0.000  -0.000  -0.000
 -0.003  -0.000   0.000  -0.000  -0.000   0.000  -0.000  -0.000
 -0.000   0.000  -0.000  -0.000  -0.000   0.000   0.000   0.000
 -0.008  -0.000  -0.000  -0.000  -0.000   0.000   0.000   0.000
  0.000  -0.000   0.000  -0.000   0.000  -0.000   0.000  -0.000
 -0.000   0.000  -0.000  -0.000  -0.000   0.000   0.000   0.000
  0.005   0.000   0.000  -0.000  -0.000  -0.000   0.000   0.000
  0.000  -0.000  -0.001  -0.021  -0.000   0.002   0.013   0.000
  0.000  -0.000   0.000  -0.000  -0.025  -0.000   0.000   0.014
  0.000  -0.000   0.012   0.000   0.000  -0.007  -0.002  -0.000
 -0.000   0.000  -0.001  -0.019  -0.000   0.002   0.012   0.000
  0.000  -0.000   0.000   0.000   0.011  -0.000  -0.000  -0.007
  0.000  -0.000  -0.027  -0.002   0.000   0.018   0.002  -0.000
 -0.000   0.000   0.000  -0.000   0.000  -0.000   0.000   0.001
  0.000  -0.000  -0.001  -0.020  -0.000   0.002   0.013   0.000
  0.000  -0.000   0.000  -0.000  -0.024  -0.000   0.000   0.014
  0.000  -0.000   0.012   0.000   0.000  -0.007  -0.002  -0.000
 -0.000   0.000  -0.001  -0.018  -0.000   0.002   0.012   0.000
  0.000  -0.000   0.000   0.000   0.010  -0.000  -0.000  -0.007
  0.000  -0.000  -0.026  -0.002   0.000   0.018   0.002  -0.000
 -0.000   0.000   0.000  -0.000   0.000  -0.000   0.000   0.001
 pseudopotential strength for first ion, spin component:           2
 -8.678  -4.024  -0.000  -0.000  -0.000  -0.000  -0.000  -0.000
 -4.024  -0.354   0.000   0.000   0.000  -0.000  -0.000  -0.000
 -0.000   0.000 -15.660   0.009   0.000   7.370  -0.007   0.000
 -0.000   0.000   0.009 -15.667  -0.000  -0.007   7.375  -0.000
 -0.000   0.000   0.000  -0.000 -15.673   0.000  -0.000   7.379
 -0.000  -0.000   7.370  -0.007   0.000   4.942   0.005   0.000
 -0.000  -0.000  -0.007   7.375  -0.000   0.005   4.938   0.000
 -0.000  -0.000   0.000  -0.000   7.379   0.000   0.000   4.934
  0.000  -0.000  -0.000  -0.000  -0.000  -0.000  -0.000  -0.000
  0.007  -0.001  -0.000  -0.000  -0.000  -0.000  -0.000  -0.000
 -0.000  -0.000   0.000  -0.000   0.000   0.000  -0.000   0.000
 -0.000   0.000  -0.000  -0.000  -0.000  -0.000  -0.000  -0.000
 -0.005   0.001   0.000  -0.000  -0.000   0.000  -0.000  -0.000
 -0.000   0.000  -0.000  -0.000  -0.000   0.000   0.000   0.000
 -0.012   0.002  -0.000  -0.000  -0.000   0.000   0.000   0.000
  0.000   0.000   0.000   0.000   0.000  -0.000   0.000  -0.000
  0.000  -0.000  -0.000  -0.000  -0.000   0.000   0.000   0.000
  0.008  -0.001   0.000  -0.000  -0.000  -0.000   0.000   0.000
  0.000  -0.000  -0.000   0.000  -0.000   0.001  -0.005   0.000
  0.000  -0.000   0.000  -0.000   0.001  -0.000   0.000  -0.006
  0.000  -0.000  -0.001   0.002  -0.000   0.003  -0.001   0.000
 -0.000   0.000  -0.000   0.000  -0.000   0.000  -0.004   0.000
  0.000  -0.000  -0.000   0.000   0.001   0.000  -0.000   0.002
  0.000  -0.000  -0.000   0.000   0.000  -0.005   0.000  -0.000
 -0.000   0.000   0.000   0.000  -0.001  -0.000  -0.000   0.001
  0.000  -0.000  -0.000   0.000  -0.000   0.001  -0.005   0.000
  0.000  -0.000   0.000  -0.000   0.001  -0.000   0.000  -0.006
  0.000  -0.000  -0.001   0.002  -0.000   0.003  -0.001   0.000
 -0.000   0.000  -0.000   0.000  -0.000   0.001  -0.004   0.000
  0.000  -0.000  -0.000   0.000   0.001   0.000  -0.000   0.002
  0.000  -0.000  -0.001   0.000   0.000  -0.005   0.000  -0.000
 -0.000   0.000   0.000   0.000  -0.002  -0.000  -0.000   0.001
 total augmentation occupancy for first ion, spin component:           1
  1.992  -0.038   0.000   0.000   0.000   0.000   0.000   0.000   0.000  -0.001  -0.000   0.000   0.001  -0.000  -0.000  -0.000
 -0.038   0.603   0.000   0.000   0.000   0.000   0.000   0.000  -0.000  -0.010   0.000   0.000   0.007  -0.000  -0.003   0.000
  0.000   0.000   2.012  -0.000  -0.000  -0.019   0.001  -0.000   0.000   0.000   0.000   0.000   0.000   0.000   0.000   0.000
  0.000   0.000  -0.000   2.012   0.000   0.001  -0.020  -0.000   0.000   0.000   0.000   0.000   0.000   0.000   0.000   0.000
  0.000   0.000  -0.000   0.000   2.013   0.000   0.000  -0.020   0.000   0.000   0.000   0.000   0.000   0.000   0.000   0.000
  0.000   0.000  -0.019   0.001   0.000   0.020  -0.001  -0.000   0.000   0.000   0.000   0.000   0.000   0.000   0.000   0.000
  0.000   0.000   0.001  -0.020   0.000  -0.001   0.020   0.000   0.000   0.000   0.000   0.000   0.000   0.000   0.000   0.000
  0.000   0.000  -0.000  -0.000  -0.020  -0.000   0.000   0.020   0.000   0.000   0.000   0.000   0.000   0.000   0.000   0.000
  0.000  -0.000   0.000   0.000   0.000   0.000   0.000   0.000   0.226   0.000   0.000  -0.089  -0.000   0.062   0.000   0.000
 -0.001  -0.010   0.000   0.000   0.000   0.000   0.000   0.000   0.000   0.284  -0.007  -0.000  -0.073   0.000   0.083  -0.001
 -0.000   0.000   0.000   0.000   0.000   0.000   0.000   0.000   0.000  -0.007   0.172  -0.000  -0.010   0.000  -0.001   0.041
  0.000   0.000   0.000   0.000   0.000   0.000   0.000   0.000  -0.089  -0.000  -0.000   0.290   0.000  -0.032  -0.000  -0.000
  0.001   0.007   0.000   0.000   0.000   0.000   0.000   0.000  -0.000  -0.073  -0.010   0.000   0.232  -0.000  -0.028  -0.002
 -0.000  -0.000   0.000   0.000   0.000   0.000   0.000   0.000   0.062   0.000   0.000  -0.032  -0.000   0.018   0.000   0.000
 -0.000  -0.003   0.000   0.000   0.000   0.000   0.000   0.000   0.000   0.083  -0.001  -0.000  -0.028   0.000   0.026  -0.000
 -0.000   0.000   0.000   0.000   0.000   0.000   0.000   0.000   0.000  -0.001   0.041  -0.000  -0.002   0.000  -0.000   0.011
  0.000   0.000   0.000   0.000   0.000   0.000   0.000   0.000  -0.032  -0.000  -0.000   0.085   0.000  -0.012  -0.000  -0.000
  0.000   0.002   0.000   0.000   0.000   0.000   0.000   0.000  -0.000  -0.028  -0.002   0.000   0.063  -0.000  -0.010  -0.000
  0.000   0.000   0.003  -0.119  -0.000  -0.004   0.081   0.000   0.000   0.000   0.000   0.000   0.000   0.000   0.000   0.000
  0.000   0.000   0.000  -0.000  -0.148  -0.000   0.000   0.104   0.000   0.000   0.000   0.000   0.000   0.000   0.000   0.000
  0.000   0.000   0.064  -0.002   0.000  -0.044   0.004   0.000   0.000   0.000   0.000   0.000   0.000   0.000   0.000   0.000
  0.000   0.000   0.003  -0.106  -0.000  -0.004   0.073   0.000   0.000   0.000   0.000   0.000   0.000   0.000   0.000   0.000
  0.000   0.000   0.000  -0.000   0.066  -0.000  -0.000  -0.045   0.000   0.000   0.000   0.000   0.000   0.000   0.000   0.000
  0.000   0.000  -0.143   0.003  -0.000   0.096  -0.004  -0.000   0.000   0.000   0.000   0.000   0.000   0.000   0.000   0.000
  0.000   0.000   0.000  -0.000   0.001  -0.000   0.000  -0.002   0.000   0.000   0.000   0.000   0.000   0.000   0.000   0.000
  0.000   0.000  -0.003   0.121   0.000   0.004  -0.075  -0.000   0.000   0.000   0.000   0.000   0.000   0.000   0.000   0.000
  0.000   0.000  -0.000   0.000   0.152   0.000  -0.000  -0.096   0.000   0.000   0.000   0.000   0.000   0.000   0.000   0.000
  0.000   0.000  -0.066   0.002  -0.000   0.041  -0.004  -0.000   0.000   0.000   0.000   0.000   0.000   0.000   0.000   0.000
  0.000   0.000  -0.003   0.108   0.000   0.004  -0.067  -0.000   0.000   0.000   0.000   0.000   0.000   0.000   0.000   0.000
  0.000   0.000  -0.000   0.000  -0.067   0.000   0.000   0.042   0.000   0.000   0.000   0.000   0.000   0.000   0.000   0.000
  0.000   0.000   0.145  -0.004   0.000  -0.088   0.004   0.000   0.000   0.000   0.000   0.000   0.000   0.000   0.000   0.000
  0.000   0.000  -0.000   0.000  -0.001   0.000  -0.000   0.002   0.000   0.000   0.000   0.000   0.000   0.000   0.000   0.000
 total augmentation occupancy for first ion, spin component:           2
  0.042   0.159   0.000   0.000   0.000   0.000   0.000   0.000   0.000  -0.001  -0.000   0.000   0.001   0.000  -0.001  -0.000
  0.159  -0.127   0.000   0.000   0.000   0.000   0.000   0.000   0.000   0.004  -0.000  -0.000  -0.003   0.000   0.001  -0.000
  0.000   0.000   0.008   0.000   0.000   0.044   0.000   0.000   0.000   0.000   0.000   0.000   0.000   0.000   0.000   0.000
  0.000   0.000   0.000   0.008  -0.000   0.000   0.044  -0.000   0.000   0.000   0.000   0.000   0.000   0.000   0.000   0.000
  0.000   0.000   0.000  -0.000   0.008   0.000  -0.000   0.044   0.000   0.000   0.000   0.000   0.000   0.000   0.000   0.000
  0.000   0.000   0.044   0.000   0.000  -0.003   0.000   0.000   0.000   0.000   0.000   0.000   0.000   0.000   0.000   0.000
  0.000   0.000   0.000   0.044  -0.000   0.000  -0.003  -0.000   0.000   0.000   0.000   0.000   0.000   0.000   0.000   0.000
  0.000   0.000   0.000  -0.000   0.044   0.000  -0.000  -0.003   0.000   0.000   0.000   0.000   0.000   0.000   0.000   0.000
  0.000   0.000   0.000   0.000   0.000   0.000   0.000   0.000  -0.026   0.000   0.000   0.013   0.000  -0.008   0.000   0.000
 -0.001   0.004   0.000   0.000   0.000   0.000   0.000   0.000   0.000  -0.045   0.016   0.000  -0.007  -0.000  -0.012   0.003
 -0.000  -0.000   0.000   0.000   0.000   0.000   0.000   0.000   0.000   0.016  -0.036   0.000   0.022  -0.000   0.003  -0.008
  0.000  -0.000   0.000   0.000   0.000   0.000   0.000   0.000   0.013   0.000   0.000  -0.035   0.000   0.004   0.000   0.000
  0.001  -0.003   0.000   0.000   0.000   0.000   0.000   0.000   0.000  -0.007   0.022   0.000  -0.050   0.000   0.000   0.004
  0.000   0.000   0.000   0.000   0.000   0.000   0.000   0.000  -0.008  -0.000  -0.000   0.004   0.000  -0.002   0.000  -0.000
 -0.001   0.001   0.000   0.000   0.000   0.000   0.000   0.000   0.000  -0.012   0.003   0.000   0.000   0.000  -0.003   0.000
 -0.000  -0.000   0.000   0.000   0.000   0.000   0.000   0.000   0.000   0.003  -0.008   0.000   0.004  -0.000   0.000  -0.002
  0.000  -0.000   0.000   0.000   0.000   0.000   0.000   0.000   0.004   0.000   0.000  -0.010   0.000   0.001   0.000   0.000
  0.000  -0.001   0.000   0.000   0.000   0.000   0.000   0.000   0.000   0.000   0.004   0.000  -0.012   0.000   0.001   0.001
  0.000   0.000   0.000   0.012  -0.000   0.000  -0.023  -0.000   0.000   0.000   0.000   0.000   0.000   0.000   0.000   0.000
  0.000   0.000   0.000   0.000   0.013   0.000  -0.000  -0.029   0.000   0.000   0.000   0.000   0.000   0.000   0.000   0.000
  0.000   0.000  -0.004  -0.004   0.000   0.014  -0.003   0.000   0.000   0.000   0.000   0.000   0.000   0.000   0.000   0.000
  0.000   0.000   0.000   0.010  -0.000   0.000  -0.020  -0.000   0.000   0.000   0.000   0.000   0.000   0.000   0.000   0.000
  0.000   0.000  -0.000   0.000  -0.009   0.000  -0.000   0.011   0.000   0.000   0.000   0.000   0.000   0.000   0.000   0.000
  0.000   0.000   0.016  -0.001  -0.000  -0.027  -0.001  -0.000   0.000   0.000   0.000   0.000   0.000   0.000   0.000   0.000
  0.000   0.000   0.000  -0.000   0.004  -0.000   0.000   0.003   0.000   0.000   0.000   0.000   0.000   0.000   0.000   0.000
  0.000   0.000  -0.001   0.002   0.000   0.000   0.009   0.000   0.000   0.000   0.000   0.000   0.000   0.000   0.000   0.000
  0.000   0.000  -0.000  -0.000   0.005  -0.000   0.000   0.012   0.000   0.000   0.000   0.000   0.000   0.000   0.000   0.000
  0.000   0.000  -0.004   0.004  -0.000  -0.007   0.003  -0.000   0.000   0.000   0.000   0.000   0.000   0.000   0.000   0.000
  0.000   0.000  -0.001   0.002   0.000   0.000   0.008   0.000   0.000   0.000   0.000   0.000   0.000   0.000   0.000   0.000
  0.000   0.000   0.000  -0.000   0.001   0.000   0.000  -0.003   0.000   0.000   0.000   0.000   0.000   0.000   0.000   0.000
  0.000   0.000   0.001   0.001   0.000   0.011   0.001   0.000   0.000   0.000   0.000   0.000   0.000   0.000   0.000   0.000
  0.000   0.000  -0.000   0.000  -0.004   0.000  -0.000  -0.003   0.000   0.000   0.000   0.000   0.000   0.000   0.000   0.000


------------------------ aborting loop because EDIFF is reached ----------------------------------------


 


 total charge     
 
# of ion       s       p       d       f       tot
--------------------------------------------------
    1        2.083   5.888   0.615   6.719  15.305
    2        2.083   5.888   0.615   6.722  15.308
    3        1.556   3.406   0.000   0.000   4.962
    4        1.556   3.407   0.000   0.000   4.962
--------------------------------------------------
tot          7.277  18.589   1.229  13.441  40.537

 


 magnetization (x)
 
# of ion       s       p       d       f       tot
--------------------------------------------------
    1        0.007   0.011  -0.102  -6.612  -6.695
    2       -0.007  -0.011   0.101   6.614   6.698
    3        0.002   0.038   0.000   0.000   0.040
    4       -0.002  -0.037   0.000   0.000  -0.039
--------------------------------------------------
tot          0.000   0.000  -0.000   0.003   0.003

 
    CHARGE:  cpu time    1.2139: real time    1.2168
    FORLOC:  cpu time    0.0016: real time    0.0016
    FORNL :  cpu time    6.5234: real time    6.5388
    STRESS:  cpu time   19.4558: real time   19.5015
    FORCOR:  cpu time    0.0377: real time    0.0378
    FORHAR:  cpu time    0.0044: real time    0.0044
    MIXING:  cpu time    0.0011: real time    0.0011
    OFIELD:  cpu time    0.0000: real time    0.0000

  FORCE on cell =-STRESS in cart. coord.  units (eV):
  Direction    XX          YY          ZZ          XY          YZ          ZX
  --------------------------------------------------------------------------------------
  Alpha Z   453.10562   453.10562   453.10562
  Ewald   -1605.50365 -1629.91489 -1617.70753    -0.01987   -17.25869     0.02533
  Hartree   466.80696   451.98228   459.39674    -0.01262   -10.47868     0.01481
  E(xc)    -244.10833  -244.16649  -244.13738    -0.00006    -0.04109     0.00003
  Local     402.86418   442.29676   422.57618     0.03313    27.87521    -0.04057
  n-local  -226.50869  -226.15135  -226.32965    -0.00016     0.25351    -0.00061
  augment    96.30737    96.60403    96.45570    -0.00008     0.20985     0.00012
  Kinetic   657.03512   656.24216   656.63805    -0.00027    -0.56179     0.00136
  Fock        0.00000     0.00000     0.00000     0.00000     0.00000     0.00000
  -------------------------------------------------------------------------------------
  Total      -0.00142    -0.00188    -0.00227     0.00005    -0.00169     0.00047
  in kB      -0.03478    -0.04599    -0.05549     0.00134    -0.04121     0.01159
  external pressure =       -0.05 kB  Pullay stress =        0.00 kB


 VOLUME and BASIS-vectors are now :
 -----------------------------------------------------------------------------
  energy-cutoff  :      520.00
  volume of cell :       65.58
      direct lattice vectors                 reciprocal lattice vectors
    -0.000030041 -2.066729318  2.922900694     0.000002966 -0.161283536  0.228085268
     3.579817849 -0.000042751 -0.000076785     0.279343822 -0.000002221  0.000001300
     0.000019469  4.178122813  2.954432028     0.000004326  0.159562229  0.112823517

  length of vectors
     3.579765152  3.579817850  5.117165118     0.279347934  0.279343822  0.195420702


 FORCES acting on ions
    electron-ion (+dipol)            ewald-force                    non-local-force                 convergence-correction
 -----------------------------------------------------------------------------------------------
   0.370E-11 0.387E-11 0.322E-11   -.153E-14 0.144E-13 -.223E-15   -.469E-21 0.000E+00 -.678E-20   0.132E-13 0.194E-12 0.113E-12
   -.111E-13 0.694E-14 0.126E-13   -.464E-14 -.319E-13 -.243E-13   -.114E-20 0.000E+00 0.000E+00   0.178E-13 -.293E-12 -.215E-12
   -.745E-14 0.804E-13 0.453E-13   0.422E-14 0.184E-13 0.128E-13   -.645E-21 -.508E-20 0.212E-20   0.250E-14 0.907E-13 0.753E-13
   0.153E-11 -.695E-13 0.109E-12   0.696E-14 -.159E-14 0.270E-14   0.939E-21 0.000E+00 0.169E-20   0.766E-15 -.992E-13 -.718E-13
 -----------------------------------------------------------------------------------------------
   0.521E-11 0.389E-11 0.339E-11   0.500E-14 -.703E-15 -.893E-14   -.132E-20 -.508E-20 -.296E-20   0.343E-13 -.108E-12 -.982E-13
 
 
 POSITION                                       TOTAL-FORCE (eV/Angst)
 -----------------------------------------------------------------------------------
      1.78990      1.05568      2.93863         0.000000      0.000000      0.000000
      0.00000     -0.00000      0.00000        -0.000000     -0.000000      0.000000
      0.00001      2.08906      1.47722        -0.000000      0.000000      0.000000
      1.78989     -1.03339      1.46141         0.000000      0.000000      0.000000
 -----------------------------------------------------------------------------------
    total drift:                                0.000000      0.000000      0.000000


--------------------------------------------------------------------------------------------------------



  FREE ENERGIE OF THE ION-ELECTRON SYSTEM (eV)
  ---------------------------------------------------
  free  energy   TOTEN  =       -41.63705737 eV

  energy  without entropy=      -41.63692536  energy(sigma->0) =      -41.63699137
 
 d Force = 0.0000000E+00[ 0.000E+00, 0.000E+00]  d Energy =-0.2160654E-03 0.216E-03
 d Force = 0.0000000E+00[ 0.000E+00, 0.000E+00]  d Ewald  =-0.1225443E+00 0.123E+00


--------------------------------------------------------------------------------------------------------


    POTLOK:  cpu time    1.3168: real time    1.3199


--------------------------------------------------------------------------------------------------------




--------------------------------------------------------------------------------------------------------


  
 reached required accuracy - stopping structural energy minimisation
     LOOP+:  cpu time  169.3632: real time  169.8183
    4ORBIT:  cpu time    0.0000: real time    0.0000
 


 total charge     
 
# of ion       s       p       d       f       tot
--------------------------------------------------
    1        2.083   5.888   0.615   6.719  15.305
    2        2.083   5.888   0.615   6.722  15.308
    3        1.556   3.406   0.000   0.000   4.962
    4        1.556   3.407   0.000   0.000   4.962
--------------------------------------------------
tot          7.277  18.589   1.229  13.441  40.537

 


 magnetization (x)
 
# of ion       s       p       d       f       tot
--------------------------------------------------
    1        0.007   0.011  -0.102  -6.612  -6.695
    2       -0.007  -0.011   0.101   6.614   6.698
    3        0.002   0.038   0.000   0.000   0.040
    4       -0.002  -0.037   0.000   0.000  -0.039
--------------------------------------------------
tot          0.000   0.000  -0.000   0.003   0.003

 

 total amount of memory used by VASP MPI-rank0   145649. kBytes
=======================================================================

   base      :      30000. kBytes
   nonlr-proj:       1978. kBytes
   fftplans  :       1307. kBytes
   grid      :       3192. kBytes
   one-center:         98. kBytes
   wavefun   :     109074. kBytes
 
  
  
 General timing and accounting informations for this job:
 ========================================================
  
                  Total CPU time used (sec):      962.929
                            User time (sec):      959.386
                          System time (sec):        3.543
                         Elapsed time (sec):      965.794
  
                   Maximum memory used (kb):      213572.
                   Average memory used (kb):           0.
  
                          Minor page faults:        76421
                          Major page faults:            0
                 Voluntary context switches:          225
