       N       E                     dE             d eps       ncg     rms          rms(c)
DAV:   1     0.928830635053E+02    0.92883E+02   -0.94369E+03  4296   0.197E+03
DAV:   2    -0.136709447862E+02   -0.10655E+03   -0.99637E+02  4262   0.292E+02
DAV:   3    -0.161934449738E+02   -0.25225E+01   -0.24312E+01  4832   0.655E+01
DAV:   4    -0.162273228624E+02   -0.33878E-01   -0.33883E-01  5980   0.597E+00
DAV:   5    -0.162277684549E+02   -0.44559E-03   -0.44565E-03  5120   0.619E-01    0.145E+01
DAV:   6    -0.142637170526E+02    0.19641E+01   -0.16529E+01  4472   0.843E+01    0.796E+00
DAV:   7    -0.139290056820E+02    0.33471E+00   -0.22965E+00  4664   0.301E+01    0.482E+00
DAV:   8    -0.140785915770E+02   -0.14959E+00   -0.15154E-01  5798   0.640E+00    0.217E+00
DAV:   9    -0.140356596222E+02    0.42932E-01   -0.34374E-02  6212   0.281E+00    0.237E+00
DAV:  10    -0.140254434474E+02    0.10216E-01   -0.95394E-04  6112   0.451E-01    0.266E+00
DAV:  11    -0.140701536440E+02   -0.44710E-01   -0.32473E-02  5282   0.304E+00    0.424E-01
DAV:  12    -0.140706009342E+02   -0.44729E-03   -0.98031E-04  6130   0.385E-01    0.156E-01
DAV:  13    -0.140703973890E+02    0.20355E-03   -0.16984E-04  5672   0.214E-01    0.877E-03
DAV:  14    -0.140703849981E+02    0.12391E-04   -0.63813E-06  4798   0.286E-02    0.867E-03
DAV:  15    -0.140703921201E+02   -0.71220E-05   -0.33030E-07  4958   0.749E-03    0.446E-03
DAV:  16    -0.140704001622E+02   -0.80420E-05   -0.18611E-07  3072   0.651E-03    0.498E-04
DAV:  17    -0.140703993767E+02    0.78551E-06   -0.10866E-08  2314   0.142E-03    0.397E-04
DAV:  18    -0.140704003556E+02   -0.97893E-06   -0.29429E-09  2254   0.826E-04    0.661E-05
DAV:  19    -0.140704003277E+02    0.27904E-07   -0.81497E-10  2182   0.305E-04
   1 F= -.14070400E+02 E0= -.14070400E+02  d E =0.000000E+00  mag=     3.1560
