unknown system                          
   1.00000000000000     
     0.000000    2.840052    0.000000
     0.000000    0.000000   -2.840052
    -5.680104    0.000000    0.000000
   Fe
     4
Direct
  0.000000  0.000000  0.500000
  0.500000  0.500000  0.750000
  0.000000  0.000000  0.000000
  0.500000  0.500000  0.250000
 
   48   48   84
 0.23203475731E+04 0.40342496551E+04 0.75223924745E+03 0.44835755135E+03 0.77774744623E+03
 0.83263344431E+03 0.68617325507E+03 0.49616105750E+03 0.33581140349E+03 0.22048517364E+03
 0.14360518212E+03 0.94280052908E+02 0.63218085137E+02 0.43799290475E+02 0.31653950092E+02
 0.24010859076E+02 0.19145308057E+02 0.15959736754E+02 0.13949238310E+02 0.12595859251E+02
 0.11711478019E+02 0.11150306633E+02 0.10810891257E+02 0.10629697506E+02 0.10572814460E+02
 0.10629697506E+02 0.10810891257E+02 0.11150306633E+02 0.11711478019E+02 0.12595859251E+02
 0.13949238310E+02 0.15959736754E+02 0.19145308057E+02 0.24010859076E+02 0.31653950092E+02
 0.43799290475E+02 0.63218085137E+02 0.94280052908E+02 0.14360518212E+03 0.22048517364E+03
 0.33581140349E+03 0.49616105750E+03 0.68617325507E+03 0.83263344431E+03 0.77774744623E+03
 0.44835755135E+03 0.75223924745E+03 0.40342496551E+04 0.40342496551E+04 0.23566627241E+04
 0.53074169661E+03 0.53273239303E+03 0.81677257051E+03 0.83257797942E+03 0.67525895351E+03
 0.48600736197E+03 0.32882507872E+03 0.21620065728E+03 0.14111523778E+03 0.92872671038E+02
 0.62434987075E+02 0.43368329843E+02 0.31420107559E+02 0.23886296750E+02 0.19081116017E+02
 0.15931732661E+02 0.13937270844E+02 0.12594121941E+02 0.11715705415E+02 0.11157690465E+02
 0.10819764245E+02 0.10639170116E+02 0.10582439411E+02 0.10639170116E+02 0.10819764245E+02
 0.11157690465E+02 0.11715705415E+02 0.12594121941E+02 0.13937270844E+02 0.15931732661E+02
 0.19081116017E+02 0.23886296750E+02 0.31420107559E+02 0.43368329843E+02 0.62434987075E+02
 0.92872671038E+02 0.14111523778E+03 0.21620065728E+03 0.32882507872E+03 0.48600736197E+03
 0.67525895351E+03 0.83257797942E+03 0.81677257051E+03 0.53273239303E+03 0.53074169661E+03
 0.23566627241E+04 0.75223924745E+03 0.53074169661E+03 0.47049325470E+03 0.73169737518E+03
 0.88285163270E+03 0.81549270011E+03 0.63911738612E+03 0.45566183537E+03 0.30848215259E+03
 0.20381080398E+03 0.13391786065E+03 0.88795254133E+02 0.60160361413E+02 0.42112128314E+02
 0.30735889709E+02 0.23519720618E+02 0.18634955034E+02 0.15847625520E+02 0.13900988503E+02
 0.12588299269E+02 0.11727646642E+02 0.11179053424E+02 0.10845593703E+02 0.10666811709E+02
 0.10610544789E+02 0.10666811709E+02 0.10845593703E+02 0.11179053424E+02 0.11727646642E+02
 0.12588299269E+02 0.13900988503E+02 0.15847625520E+02 0.18634955034E+02 0.23519720618E+02
 0.30735889709E+02 0.42112128314E+02 0.60160361413E+02 0.88795254133E+02 0.13391786065E+03
 0.20381080398E+03 0.30848215259E+03 0.45566183537E+03 0.63911738612E+03 0.81549270011E+03
 0.88285163270E+03 0.73169737518E+03 0.47049325470E+03 0.53074169661E+03 0.44835755135E+03
 0.53273239303E+03 0.73169737518E+03 0.88790839398E+03 0.88729830099E+03 0.75470484162E+03
 0.57419722477E+03 0.40701462229E+03 0.27690228640E+03 0.18472148496E+03 0.12281109755E+03
 0.82470143706E+02 0.56605111740E+02 0.40137048505E+02 0.29649407940E+02 0.22932127555E+02
 0.18381340541E+02 0.15707543930E+02 0.13839505096E+02 0.12576734552E+02 0.11745213678E+02
 0.11212141185E+02 0.10886107841E+02 0.10710382064E+02 0.10654907971E+02 0.10710382064E+02
 0.10886107841E+02 0.11212141185E+02 0.11745213678E+02 0.12576734552E+02 0.13839505096E+02
 0.15707543930E+02 0.18381340541E+02 0.22932127555E+02 0.29649407940E+02 0.40137048505E+02
 0.56605111740E+02 0.82470143706E+02 0.12281109755E+03 0.18472148496E+03 0.27690228640E+03
 0.40701462229E+03 0.57419722477E+03 0.75470484162E+03 0.88729830099E+03 0.88790839398E+03
 0.73169737518E+03 0.53273239303E+03 0.77774744623E+03 0.81677257051E+03 0.88285163270E+03
 0.88729830099E+03 0.79801711849E+03 0.64775180329E+03 0.48607157988E+03 0.34566099648E+03
 0.23789204010E+03 0.16117019829E+03 0.10901658544E+03 0.74536708406E+02 0.52098614129E+02
 0.37601146096E+02 0.28239240294E+02 0.22160241651E+02 0.18030456952E+02 0.15512886671E+02
 0.13752081028E+02 0.12557188721E+02 0.11765336734E+02 0.11253540992E+02 0.10937823298E+02
 0.10766426502E+02 0.10712095697E+02 0.10766426502E+02 0.10937823298E+02 0.11253540992E+02
 0.11765336734E+02 0.12557188721E+02 0.13752081028E+02 0.15512886671E+02 0.18030456952E+02
 0.22160241651E+02 0.28239240294E+02 0.37601146096E+02 0.52098614129E+02 0.74536708406E+02
 0.10901658544E+03 0.16117019829E+03 0.23789204010E+03 0.34566099648E+03 0.48607157988E+03
 0.64775180329E+03 0.79801711849E+03 0.88729830099E+03 0.88285163270E+03 0.81677257051E+03
 0.83263344431E+03 0.83257797942E+03 0.81549270011E+03 0.75470484162E+03 0.64775180329E+03
 0.51684554497E+03 0.38859851002E+03 0.27990928940E+03 0.19624044155E+03 0.13581518585E+03
 0.93967679258E+02 0.65751503431E+02 0.47029550959E+02 0.34704319275E+02 0.26600502698E+02
 0.21246574199E+02 0.17590741637E+02 0.15267510799E+02 0.13638898834E+02 0.12527429120E+02
 0.11784457177E+02 0.11299114688E+02 0.10996437066E+02 0.10830642607E+02 0.10777822211E+02
 0.10830642607E+02 0.10996437066E+02 0.11299114688E+02 0.11784457177E+02 0.12527429120E+02
 0.13638898834E+02 0.15267510799E+02 0.17590741637E+02 0.21246574199E+02 0.26600502698E+02
 0.34704319275E+02 0.47029550959E+02 0.65751503431E+02 0.93967679258E+02 0.13581518585E+03
 0.19624044155E+03 0.27990928940E+03 0.38859851002E+03 0.51684554497E+03 0.64775180329E+03
 0.75470484162E+03 0.81549270011E+03 0.83257797942E+03 0.68617325507E+03 0.67525895351E+03
 0.63911738612E+03 0.57419722477E+03 0.48607157988E+03 0.38859851002E+03 0.29610604380E+03
 0.21768977968E+03 0.15638617101E+03 0.11113248584E+03 0.79027573874E+02 0.56852705256E+02
 0.41790359466E+02 0.31650229872E+02 0.24837748379E+02 0.19964976218E+02 0.17076748096E+02
 0.14978488393E+02 0.13501637286E+02 0.12485748372E+02 0.11799020483E+02 0.11344466360E+02
 0.11057268733E+02 0.10898303466E+02 0.10847365487E+02 0.10898303466E+02 0.11057268733E+02
 0.11344466360E+02 0.11799020483E+02 0.12485748372E+02 0.13501637286E+02 0.14978488393E+02
 0.17076748096E+02 0.19964976218E+02 0.24837748379E+02 0.31650229872E+02 0.41790359466E+02
 0.56852705256E+02 0.79027573874E+02 0.11113248584E+03 0.15638617101E+03 0.21768977968E+03
 0.29610604380E+03 0.38859851002E+03 0.48607157988E+03 0.57419722477E+03 0.63911738612E+03
 0.67525895351E+03 0.49616105750E+03 0.48600736197E+03 0.45566183537E+03 0.40701462229E+03
 0.34566099648E+03 0.27990928940E+03 0.21768977968E+03 0.16418434095E+03 0.12138157969E+03
 0.88926227598E+02 0.65251184680E+02 0.48442517836E+02 0.36719354030E+02 0.28623194383E+02
 0.23048158132E+02 0.19054511879E+02 0.16508901825E+02 0.14656028283E+02 0.13343609598E+02
 0.12431262837E+02 0.11805862102E+02 0.11385361362E+02 0.11115683233E+02 0.10964674621E+02
 0.10915980918E+02 0.10964674621E+02 0.11115683233E+02 0.11385361362E+02 0.11805862102E+02
 0.12431262837E+02 0.13343609598E+02 0.14656028283E+02 0.16508901825E+02 0.19054511879E+02
 0.23048158132E+02 0.28623194383E+02 0.36719354030E+02 0.48442517836E+02 0.65251184680E+02
 0.88926227598E+02 0.12138157969E+03 0.16418434095E+03 0.21768977968E+03 0.27990928940E+03
 0.34566099648E+03 0.40701462229E+03 0.45566183537E+03 0.48600736197E+03 0.33581140349E+03
 0.32882507872E+03 0.30848215259E+03 0.27690228640E+03 0.23789204010E+03 0.19624044155E+03
 0.15638617101E+03 0.12138157969E+03 0.92617699080E+02 0.70156518006E+02 0.53273001179E+02
 0.40926296825E+02 0.32062905814E+02 0.25767581347E+02 0.20997461211E+02 0.18098849677E+02
 0.15911578022E+02 0.14312494917E+02 0.13169412777E+02 0.12363938168E+02 0.11802432928E+02
 0.11418043815E+02 0.11167442315E+02 0.11025373848E+02 0.10979261899E+02 0.11025373848E+02
 0.11167442315E+02 0.11418043815E+02 0.11802432928E+02 0.12363938168E+02 0.13169412777E+02
 0.14312494917E+02 0.15911578022E+02 0.18098849677E+02 0.20997461211E+02 0.25767581347E+02
 0.32062905814E+02 0.40926296825E+02 0.53273001179E+02 0.70156518006E+02 0.92617699080E+02
 0.12138157969E+03 0.15638617101E+03 0.19624044155E+03 0.23789204010E+03 0.27690228640E+03
 0.30848215259E+03 0.32882507872E+03 0.22048517364E+03 0.21620065728E+03 0.20381080398E+03
 0.18472148496E+03 0.16117019829E+03 0.13581518585E+03 0.11113248584E+03 0.88926227598E+02
 0.70156518006E+02 0.55049340431E+02 0.43336878083E+02 0.34503291549E+02 0.27964242211E+02
 0.23178571260E+02 0.19562977793E+02 0.17141660584E+02 0.15310010538E+02 0.13960805916E+02
 0.12984225366E+02 0.12284396280E+02 0.11786874127E+02 0.11439439344E+02 0.11208959991E+02
 0.11076643743E+02 0.11033415803E+02 0.11076643743E+02 0.11208959991E+02 0.11439439344E+02
 0.11786874127E+02 0.12284396280E+02 0.12984225366E+02 0.13960805916E+02 0.15310010538E+02
 0.17141660584E+02 0.19562977793E+02 0.23178571260E+02 0.27964242211E+02 0.34503291549E+02
 0.43336878083E+02 0.55049340431E+02 0.70156518006E+02 0.88926227598E+02 0.11113248584E+03
 0.13581518585E+03 0.16117019829E+03 0.18472148496E+03 0.20381080398E+03 0.21620065728E+03
 0.14360518212E+03 0.14111523778E+03 0.13391786065E+03 0.12281109755E+03 0.10901658544E+03
 0.93967679258E+02 0.79027573874E+02 0.65251184680E+02 0.53273001179E+02 0.43336878083E+02
 0.35388871783E+02 0.29200536479E+02 0.24473986886E+02 0.20694357942E+02 0.18188340556E+02
 0.16222749162E+02 0.14726947968E+02 0.13612704842E+02 0.12793010507E+02 0.12193630104E+02
 0.11757998316E+02 0.11447263573E+02 0.11237463645E+02 0.11115529971E+02 0.11075445575E+02
 0.11115529971E+02 0.11237463645E+02 0.11447263573E+02 0.11757998316E+02 0.12193630104E+02
 0.12793010507E+02 0.13612704842E+02 0.14726947968E+02 0.16222749162E+02 0.18188340556E+02
 0.20694357942E+02 0.24473986886E+02 0.29200536479E+02 0.35388871783E+02 0.43336878083E+02
 0.53273001179E+02 0.65251184680E+02 0.79027573874E+02 0.93967679258E+02 0.10901658544E+03
 0.12281109755E+03 0.13391786065E+03 0.14111523778E+03 0.94280052908E+02 0.92872671038E+02
 0.88795254133E+02 0.82470143706E+02 0.74536708406E+02 0.65751503431E+02 0.56852705256E+02
 0.48442517836E+02 0.40926296825E+02 0.34503291549E+02 0.29200536479E+02 0.24939156946E+02
 0.21312694727E+02 0.18894712450E+02 0.16925204551E+02 0.15373104822E+02 0.14179997284E+02
 0.13277412639E+02 0.12599890305E+02 0.12092765972E+02 0.11715250075E+02 0.11440073926E+02
 0.11251080303E+02 0.11139976343E+02 0.11103245813E+02 0.11139976343E+02 0.11251080303E+02
 0.11440073926E+02 0.11715250075E+02 0.12092765972E+02 0.12599890305E+02 0.13277412639E+02
 0.14179997284E+02 0.15373104822E+02 0.16925204551E+02 0.18894712450E+02 0.21312694727E+02
 0.24939156946E+02 0.29200536479E+02 0.34503291549E+02 0.40926296825E+02 0.48442517836E+02
 0.56852705256E+02 0.65751503431E+02 0.74536708406E+02 0.82470143706E+02 0.88795254133E+02
 0.92872671038E+02 0.63218085137E+02 0.62434987075E+02 0.60160361413E+02 0.56605111740E+02
 0.52098614129E+02 0.47029550959E+02 0.41790359466E+02 0.36719354030E+02 0.32062905814E+02
 0.27964242211E+02 0.24473986886E+02 0.21312694727E+02 0.19144496413E+02 0.17308282226E+02
 0.15806673037E+02 0.14612206330E+02 0.13680277086E+02 0.12960985418E+02 0.12407867694E+02
 0.11982971157E+02 0.11658701869E+02 0.11417299659E+02 0.11248873115E+02 0.11148858063E+02
 0.11115633736E+02 0.11148858063E+02 0.11248873115E+02 0.11417299659E+02 0.11658701869E+02
 0.11982971157E+02 0.12407867694E+02 0.12960985418E+02 0.13680277086E+02 0.14612206330E+02
 0.15806673037E+02 0.17308282226E+02 0.19144496413E+02 0.21312694727E+02 0.24473986886E+02
 0.27964242211E+02 0.32062905814E+02 0.36719354030E+02 0.41790359466E+02 0.47029550959E+02
 0.52098614129E+02 0.56605111740E+02 0.60160361413E+02 0.62434987075E+02 0.43799290475E+02
 0.43368329843E+02 0.42112128314E+02 0.40137048505E+02 0.37601146096E+02 0.34704319275E+02
 0.31650229872E+02 0.28623194383E+02 0.25767581347E+02 0.23178571260E+02 0.20694357942E+02
 0.18894712450E+02 0.17308282226E+02 0.15959559246E+02 0.14846464994E+02 0.13947906613E+02
 0.13232520985E+02 0.12666445241E+02 0.12218932794E+02 0.11865530138E+02 0.11589103265E+02
 0.11379267392E+02 0.11230847780E+02 0.11141975661E+02 0.11112338794E+02 0.11141975661E+02
 0.11230847780E+02 0.11379267392E+02 0.11589103265E+02 0.11865530138E+02 0.12218932794E+02
 0.12666445241E+02 0.13232520985E+02 0.13947906613E+02 0.14846464994E+02 0.15959559246E+02
 0.17308282226E+02 0.18894712450E+02 0.20694357942E+02 0.23178571260E+02 0.25767581347E+02
 0.28623194383E+02 0.31650229872E+02 0.34704319275E+02 0.37601146096E+02 0.40137048505E+02
 0.42112128314E+02 0.43368329843E+02 0.31653950092E+02 0.31420107559E+02 0.30735889709E+02
 0.29649407940E+02 0.28239240294E+02 0.26600502698E+02 0.24837748379E+02 0.23048158132E+02
 0.20997461211E+02 0.19562977793E+02 0.18188340556E+02 0.16925204551E+02 0.15806673037E+02
 0.14846464994E+02 0.14041791951E+02 0.13378431838E+02 0.12836338995E+02 0.12394515541E+02
 0.12034460637E+02 0.11742039604E+02 0.11507959822E+02 0.11327216957E+02 0.11197937053E+02
 0.11120026209E+02 0.11093970400E+02 0.11120026209E+02 0.11197937053E+02 0.11327216957E+02
 0.11507959822E+02 0.11742039604E+02 0.12034460637E+02 0.12394515541E+02 0.12836338995E+02
 0.13378431838E+02 0.14041791951E+02 0.14846464994E+02 0.15806673037E+02 0.16925204551E+02
 0.18188340556E+02 0.19562977793E+02 0.20997461211E+02 0.23048158132E+02 0.24837748379E+02
 0.26600502698E+02 0.28239240294E+02 0.29649407940E+02 0.30735889709E+02 0.31420107559E+02
 0.24010859076E+02 0.23886296750E+02 0.23519720618E+02 0.22932127555E+02 0.22160241651E+02
 0.21246574199E+02 0.19964976218E+02 0.19054511879E+02 0.18098849677E+02 0.17141660584E+02
 0.16222749162E+02 0.15373104822E+02 0.14612206330E+02 0.13947906613E+02 0.13378431838E+02
 0.12895573869E+02 0.12488102432E+02 0.12144657955E+02 0.11855728544E+02 0.11614625603E+02
 0.11417590549E+02 0.11263285542E+02 0.11151959879E+02 0.11084558697E+02 0.11061973982E+02
 0.11084558697E+02 0.11151959879E+02 0.11263285542E+02 0.11417590549E+02 0.11614625603E+02
 0.11855728544E+02 0.12144657955E+02 0.12488102432E+02 0.12895573869E+02 0.13378431838E+02
 0.13947906613E+02 0.14612206330E+02 0.15373104822E+02 0.16222749162E+02 0.17141660584E+02
 0.18098849677E+02 0.19054511879E+02 0.19964976218E+02 0.21246574199E+02 0.22160241651E+02
 0.22932127555E+02 0.23519720618E+02 0.23886296750E+02 0.19145308057E+02 0.19081116017E+02
 0.18634955034E+02 0.18381340541E+02 0.18030456952E+02 0.17590741637E+02 0.17076748096E+02
 0.16508901825E+02 0.15911578022E+02 0.15310010538E+02 0.14726947968E+02 0.14179997284E+02
 0.13680277086E+02 0.13232520985E+02 0.12836338995E+02 0.12488102432E+02 0.12182893145E+02
 0.11916090553E+02 0.11684370058E+02 0.11486080058E+02 0.11321109321E+02 0.11190434090E+02
 0.11095544793E+02 0.11037910672E+02 0.11018574594E+02 0.11037910672E+02 0.11095544793E+02
 0.11190434090E+02 0.11321109321E+02 0.11486080058E+02 0.11684370058E+02 0.11916090553E+02
 0.12182893145E+02 0.12488102432E+02 0.12836338995E+02 0.13232520985E+02 0.13680277086E+02
 0.14179997284E+02 0.14726947968E+02 0.15310010538E+02 0.15911578022E+02 0.16508901825E+02
 0.17076748096E+02 0.17590741637E+02 0.18030456952E+02 0.18381340541E+02 0.18634955034E+02
 0.19081116017E+02 0.15959736754E+02 0.15931732661E+02 0.15847625520E+02 0.15707543930E+02
 0.15512886671E+02 0.15267510799E+02 0.14978488393E+02 0.14656028283E+02 0.14312494917E+02
 0.13960805916E+02 0.13612704842E+02 0.13277412639E+02 0.12960985418E+02 0.12666445241E+02
 0.12394515541E+02 0.12144657955E+02 0.11916090553E+02 0.11708543182E+02 0.11522629802E+02
 0.11359845954E+02 0.11222296163E+02 0.11112299364E+02 0.11032007069E+02 0.10983116412E+02
 0.10966698137E+02 0.10983116412E+02 0.11032007069E+02 0.11112299364E+02 0.11222296163E+02
 0.11359845954E+02 0.11522629802E+02 0.11708543182E+02 0.11916090553E+02 0.12144657955E+02
 0.12394515541E+02 0.12666445241E+02 0.12960985418E+02 0.13277412639E+02 0.13612704842E+02
 0.13960805916E+02 0.14312494917E+02 0.14656028283E+02 0.14978488393E+02 0.15267510799E+02
 0.15512886671E+02 0.15707543930E+02 0.15847625520E+02 0.15931732661E+02 0.13949238310E+02
 0.13937270844E+02 0.13900988503E+02 0.13839505096E+02 0.13752081028E+02 0.13638898834E+02
 0.13501637286E+02 0.13343609598E+02 0.13169412777E+02 0.12984225366E+02 0.12793010507E+02
 0.12599890305E+02 0.12407867694E+02 0.12218932794E+02 0.12034460637E+02 0.11855728544E+02
 0.11684370058E+02 0.11522629802E+02 0.11373366215E+02 0.11239836362E+02 0.11125359332E+02
 0.11032973242E+02 0.10965174512E+02 0.10923774533E+02 0.10909855233E+02 0.10923774533E+02
 0.10965174512E+02 0.11032973242E+02 0.11125359332E+02 0.11239836362E+02 0.11373366215E+02
 0.11522629802E+02 0.11684370058E+02 0.11855728544E+02 0.12034460637E+02 0.12218932794E+02
 0.12407867694E+02 0.12599890305E+02 0.12793010507E+02 0.12984225366E+02 0.13169412777E+02
 0.13343609598E+02 0.13501637286E+02 0.13638898834E+02 0.13752081028E+02 0.13839505096E+02
 0.13900988503E+02 0.13937270844E+02 0.12595859251E+02 0.12594121941E+02 0.12588299269E+02
 0.12576734552E+02 0.12557188721E+02 0.12527429120E+02 0.12485748372E+02 0.12431262837E+02
 0.12363938168E+02 0.12284396280E+02 0.12193630104E+02 0.12092765972E+02 0.11982971157E+02
 0.11865530138E+02 0.11742039604E+02 0.11614625603E+02 0.11486080058E+02 0.11359845954E+02
 0.11239836362E+02 0.11130130071E+02 0.11034624299E+02 0.10956729633E+02 0.10899164956E+02
 0.10863865233E+02 0.10851973277E+02 0.10863865233E+02 0.10899164956E+02 0.10956729633E+02
 0.11034624299E+02 0.11130130071E+02 0.11239836362E+02 0.11359845954E+02 0.11486080058E+02
 0.11614625603E+02 0.11742039604E+02 0.11865530138E+02 0.11982971157E+02 0.12092765972E+02
 0.12193630104E+02 0.12284396280E+02 0.12363938168E+02 0.12431262837E+02 0.12485748372E+02
 0.12527429120E+02 0.12557188721E+02 0.12576734552E+02 0.12588299269E+02 0.12594121941E+02
 0.11711478019E+02 0.11715705415E+02 0.11727646642E+02 0.11745213678E+02 0.11765336734E+02
 0.11784457177E+02 0.11799020483E+02 0.11805862102E+02 0.11802432928E+02 0.11786874127E+02
 0.11757998316E+02 0.11715250075E+02 0.11658701869E+02 0.11589103265E+02 0.11507959822E+02
 0.11417590549E+02 0.11321109321E+02 0.11222296163E+02 0.11125359332E+02 0.11034624299E+02
 0.10954207351E+02 0.10887731977E+02 0.10838126841E+02 0.10807514046E+02 0.10797168447E+02
 0.10807514046E+02 0.10838126841E+02 0.10887731977E+02 0.10954207351E+02 0.11034624299E+02
 0.11125359332E+02 0.11222296163E+02 0.11321109321E+02 0.11417590549E+02 0.11507959822E+02
 0.11589103265E+02 0.11658701869E+02 0.11715250075E+02 0.11757998316E+02 0.11786874127E+02
 0.11802432928E+02 0.11805862102E+02 0.11799020483E+02 0.11784457177E+02 0.11765336734E+02
 0.11745213678E+02 0.11727646642E+02 0.11715705415E+02 0.11150306633E+02 0.11157690465E+02
 0.11179053424E+02 0.11212141185E+02 0.11253540992E+02 0.11299114688E+02 0.11344466360E+02
 0.11385361362E+02 0.11418043815E+02 0.11439439344E+02 0.11447263573E+02 0.11440073926E+02
 0.11417299659E+02 0.11379267392E+02 0.11327216957E+02 0.11263285542E+02 0.11190434090E+02
 0.11112299364E+02 0.11032973242E+02 0.10956729633E+02 0.10887731977E+02 0.10829756722E+02
 0.10785961009E+02 0.10758709507E+02 0.10749461433E+02 0.10758709507E+02 0.10785961009E+02
 0.10829756722E+02 0.10887731977E+02 0.10956729633E+02 0.11032973242E+02 0.11112299364E+02
 0.11190434090E+02 0.11263285542E+02 0.11327216957E+02 0.11379267392E+02 0.11417299659E+02
 0.11440073926E+02 0.11447263573E+02 0.11439439344E+02 0.11418043815E+02 0.11385361362E+02
 0.11344466360E+02 0.11299114688E+02 0.11253540992E+02 0.11212141185E+02 0.11179053424E+02
 0.11157690465E+02 0.10810891257E+02 0.10819764245E+02 0.10845593703E+02 0.10886107841E+02
 0.10937823298E+02 0.10996437066E+02 0.11057268733E+02 0.11115683233E+02 0.11167442315E+02
 0.11208959991E+02 0.11237463645E+02 0.11251080303E+02 0.11248873115E+02 0.11230847780E+02
 0.11197937053E+02 0.11151959879E+02 0.11095544793E+02 0.11032007069E+02 0.10965174512E+02
 0.10899164956E+02 0.10838126841E+02 0.10785961009E+02 0.10746046509E+02 0.10720994937E+02
 0.10712456329E+02 0.10720994937E+02 0.10746046509E+02 0.10785961009E+02 0.10838126841E+02
 0.10899164956E+02 0.10965174512E+02 0.11032007069E+02 0.11095544793E+02 0.11151959879E+02
 0.11197937053E+02 0.11230847780E+02 0.11248873115E+02 0.11251080303E+02 0.11237463645E+02
 0.11208959991E+02 0.11167442315E+02 0.11115683233E+02 0.11057268733E+02 0.10996437066E+02
 0.10937823298E+02 0.10886107841E+02 0.10845593703E+02 0.10819764245E+02 0.10629697506E+02
 0.10639170116E+02 0.10666811709E+02 0.10710382064E+02 0.10766426502E+02 0.10830642607E+02
 0.10898303466E+02 0.10964674621E+02 0.11025373848E+02 0.11076643743E+02 0.11115529971E+02
 0.11139976343E+02 0.11148858063E+02 0.11141975661E+02 0.11120026209E+02 0.11084558697E+02
 0.11037910672E+02 0.10983116412E+02 0.10923774533E+02 0.10863865233E+02 0.10807514046E+02
 0.10758709507E+02 0.10720994937E+02 0.10697166644E+02 0.10689017879E+02 0.10697166644E+02
 0.10720994937E+02 0.10758709507E+02 0.10807514046E+02 0.10863865233E+02 0.10923774533E+02
 0.10983116412E+02 0.11037910672E+02 0.11084558697E+02 0.11120026209E+02 0.11141975661E+02
 0.11148858063E+02 0.11139976343E+02 0.11115529971E+02 0.11076643743E+02 0.11025373848E+02
 0.10964674621E+02 0.10898303466E+02 0.10830642607E+02 0.10766426502E+02 0.10710382064E+02
 0.10666811709E+02 0.10639170116E+02 0.10572814460E+02 0.10582439411E+02 0.10610544789E+02
 0.10654907971E+02 0.10712095697E+02 0.10777822211E+02 0.10847365487E+02 0.10915980918E+02
 0.10979261899E+02 0.11033415803E+02 0.11075445575E+02 0.11103245813E+02 0.11115633736E+02
 0.11112338794E+02 0.11093970400E+02 0.11061973982E+02 0.11018574594E+02 0.10966698137E+02
 0.10909855233E+02 0.10851973277E+02 0.10797168447E+02 0.10749461433E+02 0.10712456329E+02
 0.10689017879E+02 0.10680992419E+02 0.10689017879E+02 0.10712456329E+02 0.10749461433E+02
 0.10797168447E+02 0.10851973277E+02 0.10909855233E+02 0.10966698137E+02 0.11018574594E+02
 0.11061973982E+02 0.11093970400E+02 0.11112338794E+02 0.11115633736E+02 0.11103245813E+02
 0.11075445575E+02 0.11033415803E+02 0.10979261899E+02 0.10915980918E+02 0.10847365487E+02
 0.10777822211E+02 0.10712095697E+02 0.10654907971E+02 0.10610544789E+02 0.10582439411E+02
 0.10629697506E+02 0.10639170116E+02 0.10666811709E+02 0.10710382064E+02 0.10766426502E+02
 0.10830642607E+02 0.10898303466E+02 0.10964674621E+02 0.11025373848E+02 0.11076643743E+02
 0.11115529971E+02 0.11139976343E+02 0.11148858063E+02 0.11141975661E+02 0.11120026209E+02
 0.11084558697E+02 0.11037910672E+02 0.10983116412E+02 0.10923774533E+02 0.10863865233E+02
 0.10807514046E+02 0.10758709507E+02 0.10720994937E+02 0.10697166644E+02 0.10689017879E+02
 0.10697166644E+02 0.10720994937E+02 0.10758709507E+02 0.10807514046E+02 0.10863865233E+02
 0.10923774533E+02 0.10983116412E+02 0.11037910672E+02 0.11084558697E+02 0.11120026209E+02
 0.11141975661E+02 0.11148858063E+02 0.11139976343E+02 0.11115529971E+02 0.11076643743E+02
 0.11025373848E+02 0.10964674621E+02 0.10898303466E+02 0.10830642607E+02 0.10766426502E+02
 0.10710382064E+02 0.10666811709E+02 0.10639170116E+02 0.10810891257E+02 0.10819764245E+02
 0.10845593703E+02 0.10886107841E+02 0.10937823298E+02 0.10996437066E+02 0.11057268733E+02
 0.11115683233E+02 0.11167442315E+02 0.11208959991E+02 0.11237463645E+02 0.11251080303E+02
 0.11248873115E+02 0.11230847780E+02 0.11197937053E+02 0.11151959879E+02 0.11095544793E+02
 0.11032007069E+02 0.10965174512E+02 0.10899164956E+02 0.10838126841E+02 0.10785961009E+02
 0.10746046509E+02 0.10720994937E+02 0.10712456329E+02 0.10720994937E+02 0.10746046509E+02
 0.10785961009E+02 0.10838126841E+02 0.10899164956E+02 0.10965174512E+02 0.11032007069E+02
 0.11095544793E+02 0.11151959879E+02 0.11197937053E+02 0.11230847780E+02 0.11248873115E+02
 0.11251080303E+02 0.11237463645E+02 0.11208959991E+02 0.11167442315E+02 0.11115683233E+02
 0.11057268733E+02 0.10996437066E+02 0.10937823298E+02 0.10886107841E+02 0.10845593703E+02
 0.10819764245E+02 0.11150306633E+02 0.11157690465E+02 0.11179053424E+02 0.11212141185E+02
 0.11253540992E+02 0.11299114688E+02 0.11344466360E+02 0.11385361362E+02 0.11418043815E+02
 0.11439439344E+02 0.11447263573E+02 0.11440073926E+02 0.11417299659E+02 0.11379267392E+02
 0.11327216957E+02 0.11263285542E+02 0.11190434090E+02 0.11112299364E+02 0.11032973242E+02
 0.10956729633E+02 0.10887731977E+02 0.10829756722E+02 0.10785961009E+02 0.10758709507E+02
 0.10749461433E+02 0.10758709507E+02 0.10785961009E+02 0.10829756722E+02 0.10887731977E+02
 0.10956729633E+02 0.11032973242E+02 0.11112299364E+02 0.11190434090E+02 0.11263285542E+02
 0.11327216957E+02 0.11379267392E+02 0.11417299659E+02 0.11440073926E+02 0.11447263573E+02
 0.11439439344E+02 0.11418043815E+02 0.11385361362E+02 0.11344466360E+02 0.11299114688E+02
 0.11253540992E+02 0.11212141185E+02 0.11179053424E+02 0.11157690465E+02 0.11711478019E+02
 0.11715705415E+02 0.11727646642E+02 0.11745213678E+02 0.11765336734E+02 0.11784457177E+02
 0.11799020483E+02 0.11805862102E+02 0.11802432928E+02 0.11786874127E+02 0.11757998316E+02
 0.11715250075E+02 0.11658701869E+02 0.11589103265E+02 0.11507959822E+02 0.11417590549E+02
 0.11321109321E+02 0.11222296163E+02 0.11125359332E+02 0.11034624299E+02 0.10954207351E+02
 0.10887731977E+02 0.10838126841E+02 0.10807514046E+02 0.10797168447E+02 0.10807514046E+02
 0.10838126841E+02 0.10887731977E+02 0.10954207351E+02 0.11034624299E+02 0.11125359332E+02
 0.11222296163E+02 0.11321109321E+02 0.11417590549E+02 0.11507959822E+02 0.11589103265E+02
 0.11658701869E+02 0.11715250075E+02 0.11757998316E+02 0.11786874127E+02 0.11802432928E+02
 0.11805862102E+02 0.11799020483E+02 0.11784457177E+02 0.11765336734E+02 0.11745213678E+02
 0.11727646642E+02 0.11715705415E+02 0.12595859251E+02 0.12594121941E+02 0.12588299269E+02
 0.12576734552E+02 0.12557188721E+02 0.12527429120E+02 0.12485748372E+02 0.12431262837E+02
 0.12363938168E+02 0.12284396280E+02 0.12193630104E+02 0.12092765972E+02 0.11982971157E+02
 0.11865530138E+02 0.11742039604E+02 0.11614625603E+02 0.11486080058E+02 0.11359845954E+02
 0.11239836362E+02 0.11130130071E+02 0.11034624299E+02 0.10956729633E+02 0.10899164956E+02
 0.10863865233E+02 0.10851973277E+02 0.10863865233E+02 0.10899164956E+02 0.10956729633E+02
 0.11034624299E+02 0.11130130071E+02 0.11239836362E+02 0.11359845954E+02 0.11486080058E+02
 0.11614625603E+02 0.11742039604E+02 0.11865530138E+02 0.11982971157E+02 0.12092765972E+02
 0.12193630104E+02 0.12284396280E+02 0.12363938168E+02 0.12431262837E+02 0.12485748372E+02
 0.12527429120E+02 0.12557188721E+02 0.12576734552E+02 0.12588299269E+02 0.12594121941E+02
 0.13949238310E+02 0.13937270844E+02 0.13900988503E+02 0.13839505096E+02 0.13752081028E+02
 0.13638898834E+02 0.13501637286E+02 0.13343609598E+02 0.13169412777E+02 0.12984225366E+02
 0.12793010507E+02 0.12599890305E+02 0.12407867694E+02 0.12218932794E+02 0.12034460637E+02
 0.11855728544E+02 0.11684370058E+02 0.11522629802E+02 0.11373366215E+02 0.11239836362E+02
 0.11125359332E+02 0.11032973242E+02 0.10965174512E+02 0.10923774533E+02 0.10909855233E+02
 0.10923774533E+02 0.10965174512E+02 0.11032973242E+02 0.11125359332E+02 0.11239836362E+02
 0.11373366215E+02 0.11522629802E+02 0.11684370058E+02 0.11855728544E+02 0.12034460637E+02
 0.12218932794E+02 0.12407867694E+02 0.12599890305E+02 0.12793010507E+02 0.12984225366E+02
 0.13169412777E+02 0.13343609598E+02 0.13501637286E+02 0.13638898834E+02 0.13752081028E+02
 0.13839505096E+02 0.13900988503E+02 0.13937270844E+02 0.15959736754E+02 0.15931732661E+02
 0.15847625520E+02 0.15707543930E+02 0.15512886671E+02 0.15267510799E+02 0.14978488393E+02
 0.14656028283E+02 0.14312494917E+02 0.13960805916E+02 0.13612704842E+02 0.13277412639E+02
 0.12960985418E+02 0.12666445241E+02 0.12394515541E+02 0.12144657955E+02 0.11916090553E+02
 0.11708543182E+02 0.11522629802E+02 0.11359845954E+02 0.11222296163E+02 0.11112299364E+02
 0.11032007069E+02 0.10983116412E+02 0.10966698137E+02 0.10983116412E+02 0.11032007069E+02
 0.11112299364E+02 0.11222296163E+02 0.11359845954E+02 0.11522629802E+02 0.11708543182E+02
 0.11916090553E+02 0.12144657955E+02 0.12394515541E+02 0.12666445241E+02 0.12960985418E+02
 0.13277412639E+02 0.13612704842E+02 0.13960805916E+02 0.14312494917E+02 0.14656028283E+02
 0.14978488393E+02 0.15267510799E+02 0.15512886671E+02 0.15707543930E+02 0.15847625520E+02
 0.15931732661E+02 0.19145308057E+02 0.19081116017E+02 0.18634955034E+02 0.18381340541E+02
 0.18030456952E+02 0.17590741637E+02 0.17076748096E+02 0.16508901825E+02 0.15911578022E+02
 0.15310010538E+02 0.14726947968E+02 0.14179997284E+02 0.13680277086E+02 0.13232520985E+02
 0.12836338995E+02 0.12488102432E+02 0.12182893145E+02 0.11916090553E+02 0.11684370058E+02
 0.11486080058E+02 0.11321109321E+02 0.11190434090E+02 0.11095544793E+02 0.11037910672E+02
 0.11018574594E+02 0.11037910672E+02 0.11095544793E+02 0.11190434090E+02 0.11321109321E+02
 0.11486080058E+02 0.11684370058E+02 0.11916090553E+02 0.12182893145E+02 0.12488102432E+02
 0.12836338995E+02 0.13232520985E+02 0.13680277086E+02 0.14179997284E+02 0.14726947968E+02
 0.15310010538E+02 0.15911578022E+02 0.16508901825E+02 0.17076748096E+02 0.17590741637E+02
 0.18030456952E+02 0.18381340541E+02 0.18634955034E+02 0.19081116017E+02 0.24010859076E+02
 0.23886296750E+02 0.23519720618E+02 0.22932127555E+02 0.22160241651E+02 0.21246574199E+02
 0.19964976218E+02 0.19054511879E+02 0.18098849677E+02 0.17141660584E+02 0.16222749162E+02
 0.15373104822E+02 0.14612206330E+02 0.13947906613E+02 0.13378431838E+02 0.12895573869E+02
 0.12488102432E+02 0.12144657955E+02 0.11855728544E+02 0.11614625603E+02 0.11417590549E+02
 0.11263285542E+02 0.11151959879E+02 0.11084558697E+02 0.11061973982E+02 0.11084558697E+02
 0.11151959879E+02 0.11263285542E+02 0.11417590549E+02 0.11614625603E+02 0.11855728544E+02
 0.12144657955E+02 0.12488102432E+02 0.12895573869E+02 0.13378431838E+02 0.13947906613E+02
 0.14612206330E+02 0.15373104822E+02 0.16222749162E+02 0.17141660584E+02 0.18098849677E+02