unknown system                          
   1.00000000000000     
     0.000000    2.840052    0.000000
     0.000000    0.000000   -2.840052
    -5.680104    0.000000    0.000000
   Fe
     4
Direct
  0.000000  0.000000  0.500000
  0.500000  0.500000  0.750000
  0.000000  0.000000  0.000000
  0.500000  0.500000  0.250000
 
   48   48   84
 0.46324593187E+07 0.47671829888E+05 0.15301724226E+05 0.33624198268E+04 0.74856078517E+03
 0.29692095904E+03 0.18443746353E+03 0.11976585659E+03 0.73448993467E+02 0.42747915144E+02
 0.24000178901E+02 0.13163273249E+02 0.71124450885E+01 0.38072593453E+01 0.20259565502E+01
 0.10746741692E+01 0.56893994669E+00 0.30118872709E+00 0.15936184398E+00 0.84552781516E-01
 0.44975332389E-01 0.24303265357E-01 0.13607435427E-01 0.86502771393E-02 0.71344342650E-02
 0.86502771395E-02 0.13607435428E-01 0.24303265357E-01 0.44975332389E-01 0.84552781516E-01
 0.15936184398E+00 0.30118872709E+00 0.56893994669E+00 0.10746741692E+01 0.20259565502E+01
 0.38072593453E+01 0.71124450885E+01 0.13163273249E+02 0.24000178901E+02 0.42747915144E+02
 0.73448993467E+02 0.11976585659E+03 0.18443746353E+03 0.29692095904E+03 0.74856078517E+03
 0.33624198268E+04 0.15301724226E+05 0.47671829888E+05 0.47671829888E+05 0.30535383599E+05
 0.10993398083E+05 0.25919973331E+04 0.64274118438E+03 0.28011980663E+03 0.17817823063E+03
 0.11591123198E+03 0.71111306091E+02 0.41436115120E+02 0.23302858430E+02 0.12804418046E+02
 0.69310462406E+01 0.37163923466E+01 0.19807437300E+01 0.10522252886E+01 0.55775496562E+00
 0.29560601260E+00 0.15657638572E+00 0.83152678676E-01 0.44274830027E-01 0.23943954021E-01
 0.13420629455E-01 0.85362356071E-02 0.70456840377E-02 0.85362356078E-02 0.13420629456E-01
 0.23943954020E-01 0.44274830027E-01 0.83152678676E-01 0.15657638572E+00 0.29560601260E+00
 0.55775496562E+00 0.10522252886E+01 0.19807437300E+01 0.37163923466E+01 0.69310462406E+01
 0.12804418046E+02 0.23302858430E+02 0.41436115120E+02 0.71111306091E+02 0.11591123198E+03
 0.17817823063E+03 0.28011980663E+03 0.64274118438E+03 0.25919973331E+04 0.10993398083E+05
 0.30535383599E+05 0.15301724226E+05 0.10993398083E+05 0.44255020178E+04 0.12986259813E+04
 0.44325266003E+03 0.24140574642E+03 0.16102661273E+03 0.10508220129E+03 0.64555418064E+02
 0.37756521251E+02 0.21341451080E+02 0.11790980533E+02 0.64171994412E+01 0.34579985095E+01
 0.18517559601E+01 0.98785772820E+00 0.52562378226E+00 0.27951777174E+00 0.14854300048E+00
 0.79097370610E-01 0.42243796204E-01 0.22892776065E-01 0.12879156257E-01 0.82012988979E-02
 0.67916554560E-02 0.82012988979E-02 0.12879156257E-01 0.22892776065E-01 0.42243796204E-01
 0.79097370610E-01 0.14854300048E+00 0.27951777174E+00 0.52562378226E+00 0.98785772820E+00
 0.18517559601E+01 0.34579985095E+01 0.64171994412E+01 0.11790980533E+02 0.21341451080E+02
 0.37756521251E+02 0.64555418064E+02 0.10508220129E+03 0.16102661273E+03 0.24140574642E+03
 0.44325266003E+03 0.12986259813E+04 0.44255020178E+04 0.10993398083E+05 0.33624198268E+04
 0.25919973331E+04 0.12986259813E+04 0.56014204305E+03 0.29692093246E+03 0.19798494109E+03
 0.13652956838E+03 0.89258323128E+02 0.55011241083E+02 0.32391580274E+02 0.18465636392E+02
 0.10294110087E+02 0.56513456160E+01 0.30708486946E+01 0.16566358472E+01 0.88979442202E+00
 0.47650079906E+00 0.25478514302E+00 0.13613634387E+00 0.72807562268E-01 0.39086696248E-01
 0.21253771769E-01 0.12033997487E-01 0.76752418759E-02 0.63935117230E-02 0.76752418759E-02
 0.12033997487E-01 0.21253771769E-01 0.39086696248E-01 0.72807562268E-01 0.13613634387E+00
 0.25478514302E+00 0.47650079906E+00 0.88979442202E+00 0.16566358472E+01 0.30708486946E+01
 0.56513456160E+01 0.10294110087E+02 0.18465636392E+02 0.32391580274E+02 0.55011241083E+02
 0.89258323128E+02 0.13652956838E+03 0.19798494109E+03 0.29692093246E+03 0.56014204305E+03
 0.12986259813E+04 0.25919973331E+04 0.74856078517E+03 0.64274118438E+03 0.44325266003E+03
 0.29692093246E+03 0.21331842834E+03 0.15576271401E+03 0.10857354902E+03 0.71111333392E+02
 0.44104851768E+02 0.26234410020E+02 0.15134331009E+02 0.85405454199E+01 0.47445253456E+01
 0.26064476472E+01 0.14206747042E+01 0.77019515288E+00 0.41599760786E+00 0.22408412888E+00
 0.12063219905E+00 0.64899515377E-01 0.35093229830E-01 0.19170323426E-01 0.10956393518E-01
 0.70035985040E-02 0.58857276838E-02 0.70035985039E-02 0.10956393517E-01 0.19170323426E-01
 0.35093229830E-01 0.64899515377E-01 0.12063219905E+00 0.22408412887E+00 0.41599760786E+00
 0.77019515288E+00 0.14206747042E+01 0.26064476472E+01 0.47445253456E+01 0.85405454199E+01
 0.15134331009E+02 0.26234410020E+02 0.44104851768E+02 0.71111333392E+02 0.10857354902E+03
 0.15576271401E+03 0.21331842834E+03 0.29692093246E+03 0.44325266003E+03 0.64274118438E+03
 0.29692095904E+03 0.28011980663E+03 0.24140574642E+03 0.19798494109E+03 0.15576271401E+03
 0.11591121365E+03 0.80955328723E+02 0.53289743599E+02 0.33393881251E+02 0.20135429650E+02
 0.11790963290E+02 0.67548608446E+01 0.38072485896E+01 0.21199367138E+01 0.11699922161E+01
 0.64153322473E+00 0.35022170032E+00 0.19042817575E+00 0.10344447913E+00 0.56097254975E-01
 0.30593827519E-01 0.16836309690E-01 0.97217944491E-02 0.62551635577E-02 0.52946485576E-02
 0.62551635578E-02 0.97217944491E-02 0.16836309690E-01 0.30593827519E-01 0.56097254975E-01
 0.10344447913E+00 0.19042817575E+00 0.35022170032E+00 0.64153322473E+00 0.11699922161E+01
 0.21199367138E+01 0.38072485896E+01 0.67548608446E+01 0.11790963290E+02 0.20135429650E+02
 0.33393881251E+02 0.53289743599E+02 0.80955328723E+02 0.11591121365E+03 0.15576271401E+03
 0.19798494109E+03 0.24140574642E+03 0.28011980663E+03 0.18443746353E+03 0.17817823063E+03
 0.16102661273E+03 0.13652956838E+03 0.10857354902E+03 0.80955328723E+02 0.56792363322E+02
 0.37756490355E+02 0.24000206141E+02 0.14715207496E+02 0.87693324100E+01 0.51119783344E+01
 0.29294132873E+01 0.16566755101E+01 0.92767398017E+00 0.51542804851E+00 0.28478490483E+00
 0.15663135053E+00 0.85947326915E-01 0.47100227789E-01 0.25915031258E-01 0.14431738664E-01
 0.84092444637E-02 0.54965635858E-02 0.46557375175E-02 0.54965635868E-02 0.84092444636E-02
 0.14431738664E-01 0.25915031258E-01 0.47100227789E-01 0.85947326915E-01 0.15663135053E+00
 0.28478490483E+00 0.51542804851E+00 0.92767398017E+00 0.16566755101E+01 0.29294132873E+01
 0.51119783344E+01 0.87693324100E+01 0.14715207496E+02 0.24000206141E+02 0.37756490355E+02
 0.56792363322E+02 0.80955328723E+02 0.10857354902E+03 0.13652956838E+03 0.16102661273E+03
 0.17817823063E+03 0.11976585659E+03 0.11591123198E+03 0.10508220129E+03 0.89258323128E+02
 0.71111333392E+02 0.53289743599E+02 0.37756490355E+02 0.25465100638E+02 0.16472452824E+02
 0.10294076497E+02 0.62553062213E+01 0.37163811319E+01 0.21687543434E+01 0.12477148697E+01
 0.70987484758E+00 0.40033606599E+00 0.22413540092E+00 0.12491126056E+00 0.69311980459E-01
 0.38471343228E-01 0.21380844801E-01 0.12101657087E-01 0.71227992773E-02 0.47666816650E-02
 0.40273203831E-02 0.47666816653E-02 0.71227992767E-02 0.12101657087E-01 0.21380844801E-01
 0.38471343228E-01 0.69311980459E-01 0.12491126056E+00 0.22413540092E+00 0.40033606599E+00
 0.70987484758E+00 0.12477148697E+01 0.21687543434E+01 0.37163811319E+01 0.62553062213E+01
 0.10294076497E+02 0.16472452824E+02 0.25465100638E+02 0.37756490355E+02 0.53289743599E+02
 0.71111333392E+02 0.89258323128E+02 0.10508220129E+03 0.11591123198E+03 0.73448993467E+02
 0.71111306091E+02 0.64555418064E+02 0.55011241083E+02 0.44104851768E+02 0.33393881251E+02
 0.24000206141E+02 0.16472452824E+02 0.10865735055E+02 0.69311194524E+01 0.42995196298E+01
 0.26064677641E+01 0.15505876341E+01 0.90853573078E+00 0.52574570714E+00 0.30123176169E+00
 0.17118700077E+00 0.96722345539E-01 0.54414571270E-01 0.30594740318E-01 0.17262266250E-01
 0.99215578207E-02 0.59719982979E-02 0.40702251866E-02 0.34893334304E-02 0.40702251868E-02
 0.59719982973E-02 0.99215578208E-02 0.17262266250E-01 0.30594740318E-01 0.54414571270E-01
 0.96722345538E-01 0.17118700077E+00 0.30123176169E+00 0.52574570714E+00 0.90853573078E+00
 0.15505876341E+01 0.26064677641E+01 0.42995196298E+01 0.69311194524E+01 0.10865735055E+02
 0.16472452824E+02 0.24000206141E+02 0.33393881251E+02 0.44104851768E+02 0.55011241083E+02
 0.64555418064E+02 0.71111306091E+02 0.42747915144E+02 0.41436115120E+02 0.37756521251E+02
 0.32391580274E+02 0.26234410019E+02 0.20135429650E+02 0.14715207496E+02 0.10294076497E+02
 0.69311194524E+01 0.45159178467E+01 0.28613827219E+01 0.17710507225E+01 0.10746886288E+01
 0.64163960116E+00 0.37801092818E+00 0.22017027753E+00 0.12716038504E+00 0.72910152762E-01
 0.41667744667E-01 0.23772525947E-01 0.13682861741E-01 0.80163558893E-02 0.49864515621E-02
 0.34728486341E-02 0.30476746171E-02 0.34728486346E-02 0.49864515619E-02 0.80163558893E-02
 0.13682861741E-01 0.23772525947E-01 0.41667744667E-01 0.72910152762E-01 0.12716038504E+00
 0.22017027753E+00 0.37801092818E+00 0.64163960116E+00 0.10746886288E+01 0.17710507225E+01
 0.28613827219E+01 0.45159178467E+01 0.69311194524E+01 0.10294076497E+02 0.14715207496E+02
 0.20135429650E+02 0.26234410019E+02 0.32391580274E+02 0.37756521251E+02 0.41436115120E+02
 0.24000178901E+02 0.23302858430E+02 0.21341451080E+02 0.18465636392E+02 0.15134331009E+02
 0.11790963290E+02 0.87693324100E+01 0.62553062213E+01 0.42995196298E+01 0.28613827219E+01
 0.18518919034E+01 0.11700124147E+01 0.72454241106E+00 0.44096024350E+00 0.26450071137E+00
 0.15680099053E+00 0.92052567161E-01 0.53687821033E-01 0.31186596871E-01 0.18158656212E-01
 0.10672656699E-01 0.64655205087E-02 0.41577126725E-02 0.30361341066E-02 0.26884331515E-02
 0.30361341072E-02 0.41577126722E-02 0.64655205087E-02 0.10672656699E-01 0.18158656212E-01
 0.31186596872E-01 0.53687821033E-01 0.92052567163E-01 0.15680099053E+00 0.26450071137E+00
 0.44096024350E+00 0.72454241106E+00 0.11700124147E+01 0.18518919034E+01 0.28613827219E+01
 0.42995196298E+01 0.62553062213E+01 0.87693324100E+01 0.11790963290E+02 0.15134331009E+02
 0.18465636392E+02 0.21341451080E+02 0.23302858430E+02 0.13163273249E+02 0.12804418046E+02
 0.11790980533E+02 0.10294110087E+02 0.85405454199E+01 0.67548608446E+01 0.51119783344E+01
 0.37163811319E+01 0.26064677641E+01 0.17710507225E+01 0.11700124147E+01 0.75472602637E+00
 0.47666875700E+00 0.29572093952E+00 0.18070817654E+00 0.10905355915E+00 0.65179213376E-01
 0.38706998542E-01 0.22947207676E-01 0.13680795885E-01 0.83081792478E-02 0.52462988049E-02
 0.35646373955E-02 0.27318855433E-02 0.24822152614E-02 0.27318855438E-02 0.35646373954E-02
 0.52462988049E-02 0.83081792479E-02 0.13680795885E-01 0.22947207676E-01 0.38706998542E-01
 0.65179213370E-01 0.10905355915E+00 0.18070817654E+00 0.29572093952E+00 0.47666875700E+00
 0.75472602637E+00 0.11700124147E+01 0.17710507225E+01 0.26064677641E+01 0.37163811319E+01
 0.51119783344E+01 0.67548608446E+01 0.85405454199E+01 0.10294110087E+02 0.11790980533E+02
 0.12804418046E+02 0.71124450885E+01 0.69310462406E+01 0.64171994412E+01 0.56513456160E+01
 0.47445253456E+01 0.38072485896E+01 0.29294132873E+01 0.21687543434E+01 0.15505876341E+01
 0.10746886288E+01 0.72454241105E+00 0.47666875699E+00 0.30700414805E+00 0.19413110946E+00
 0.12087169929E+00 0.74316393090E-01 0.45278856923E-01 0.27458724286E-01 0.16695628019E-01
 0.10281654291E-01 0.65216050229E-02 0.43602251520E-02 0.31714774918E-02 0.25806776304E-02
 0.24055729828E-02 0.25806776302E-02 0.31714774915E-02 0.43602251520E-02 0.65216050230E-02
 0.10281654291E-01 0.16695628019E-01 0.27458724287E-01 0.45278856926E-01 0.74316393090E-01
 0.12087169929E+00 0.19413110946E+00 0.30700414805E+00 0.47666875699E+00 0.72454241105E+00
 0.10746886288E+01 0.15505876341E+01 0.21687543434E+01 0.29294132873E+01 0.38072485896E+01
 0.47445253456E+01 0.56513456160E+01 0.64171994412E+01 0.69310462406E+01 0.38072593453E+01
 0.37163923466E+01 0.34579985095E+01 0.30708486946E+01 0.26064476472E+01 0.21199367138E+01
 0.16566755101E+01 0.12477148697E+01 0.90853573078E+00 0.64163960116E+00 0.44096024350E+00
 0.29572093952E+00 0.19413110946E+00 0.12511475237E+00 0.79400178889E-01 0.49796984211E-01
 0.31002981337E-01 0.19296942146E-01 0.12119589968E-01 0.78049713022E-02 0.52626767234E-02
 0.38075404393E-02 0.30037377923E-02 0.26095247190E-02 0.24887811800E-02 0.26095247180E-02
 0.30037377920E-02 0.38075404393E-02 0.52626767234E-02 0.78049713021E-02 0.12119589968E-01
 0.19296942146E-01 0.31002981340E-01 0.49796984211E-01 0.79400178889E-01 0.12511475237E+00
 0.19413110946E+00 0.29572093952E+00 0.44096024350E+00 0.64163960116E+00 0.90853573078E+00
 0.12477148697E+01 0.16566755101E+01 0.21199367138E+01 0.26064476472E+01 0.30708486946E+01
 0.34579985095E+01 0.37163923466E+01 0.20259565501E+01 0.19807437300E+01 0.18517559601E+01
 0.16566358472E+01 0.14206747042E+01 0.11699922161E+01 0.92767398017E+00 0.70987484757E+00
 0.52574570714E+00 0.37801092817E+00 0.26450071137E+00 0.18070817654E+00 0.12087169929E+00
 0.79400178887E-01 0.51410002741E-01 0.32959598005E-01 0.21067770989E-01 0.13549709772E-01
 0.89141266709E-02 0.61186274434E-02 0.44715313731E-02 0.35236224537E-02 0.30086838276E-02
 0.27560757202E-02 0.26833179327E-02 0.27560757202E-02 0.30086838278E-02 0.35236224536E-02
 0.44715313731E-02 0.61186274433E-02 0.89141266709E-02 0.13549709772E-01 0.21067770986E-01
 0.32959598005E-01 0.51410002741E-01 0.79400178887E-01 0.12087169929E+00 0.18070817654E+00
 0.26450071137E+00 0.37801092817E+00 0.52574570715E+00 0.70987484757E+00 0.92767398017E+00
 0.11699922161E+01 0.14206747042E+01 0.16566358472E+01 0.18517559601E+01 0.19807437300E+01
 0.10746741692E+01 0.10522252886E+01 0.98785772820E+00 0.88979442202E+00 0.77019515287E+00
 0.64153322473E+00 0.51542804852E+00 0.40033606598E+00 0.30123176168E+00 0.22017027752E+00
 0.15680099052E+00 0.10905355915E+00 0.74316393081E-01 0.49796984206E-01 0.32959598012E-01
 0.21696701048E-01 0.14334992016E-01 0.96679701590E-02 0.67784465828E-02 0.50322342525E-02
 0.40171870215E-02 0.34662226298E-02 0.31874550164E-02 0.30652177104E-02 0.30297741666E-02
 0.30652177103E-02 0.31874550163E-02 0.34662226298E-02 0.40171870214E-02 0.50322342523E-02
 0.67784465828E-02 0.96679701590E-02 0.14334992015E-01 0.21696701048E-01 0.32959598012E-01
 0.49796984206E-01 0.74316393081E-01 0.10905355915E+00 0.15680099052E+00 0.22017027752E+00
 0.30123176168E+00 0.40033606598E+00 0.51542804852E+00 0.64153322473E+00 0.77019515287E+00
 0.88979442202E+00 0.98785772820E+00 0.10522252886E+01 0.56893994675E+00 0.55775496562E+00
 0.52562378226E+00 0.47650079907E+00 0.41599760786E+00 0.35022170032E+00 0.28478490484E+00
 0.22413540093E+00 0.17118700076E+00 0.12716038504E+00 0.92052567160E-01 0.65179213367E-01
 0.45278856927E-01 0.31002981335E-01 0.21067770977E-01 0.14334992028E-01 0.99350165720E-02
 0.71356920564E-02 0.54086649951E-02 0.44155713544E-02 0.38995974678E-02 0.36587045194E-02
 0.35621757156E-02 0.35299677301E-02 0.35241233489E-02 0.35299677297E-02 0.35621757155E-02
 0.36587045194E-02 0.38995974677E-02 0.44155713543E-02 0.54086649951E-02 0.71356920563E-02
 0.99350165767E-02 0.14334992028E-01 0.21067770977E-01 0.31002981335E-01 0.45278856927E-01
 0.65179213367E-01 0.92052567160E-01 0.12716038504E+00 0.17118700076E+00 0.22413540093E+00
 0.28478490484E+00 0.35022170032E+00 0.41599760786E+00 0.47650079907E+00 0.52562378226E+00
 0.55775496562E+00 0.30118872708E+00 0.29560601260E+00 0.27951777174E+00 0.25478514302E+00
 0.22408412888E+00 0.19042817575E+00 0.15663135054E+00 0.12491126055E+00 0.96722345534E-01
 0.72910152759E-01 0.53687821034E-01 0.38706998541E-01 0.27458724282E-01 0.19296942146E-01
 0.13549709770E-01 0.96679701499E-02 0.71356920537E-02 0.55422441579E-02 0.46408272668E-02
 0.42007785435E-02 0.40247362527E-02 0.39851495169E-02 0.40046149000E-02 0.40358039434E-02
 0.40490917448E-02 0.40358039430E-02 0.40046149000E-02 0.39851495169E-02 0.40247362525E-02
 0.42007785435E-02 0.46408272668E-02 0.55422441578E-02 0.71356920533E-02 0.96679701498E-02
 0.13549709769E-01 0.19296942146E-01 0.27458724282E-01 0.38706998541E-01 0.53687821034E-01
 0.72910152759E-01 0.96722345539E-01 0.12491126055E+00 0.15663135054E+00 0.19042817575E+00
 0.22408412888E+00 0.25478514302E+00 0.27951777174E+00 0.29560601260E+00 0.15936184402E+00
 0.15657638572E+00 0.14854300047E+00 0.13613634387E+00 0.12063219904E+00 0.10344447914E+00
 0.85947326909E-01 0.69311980458E-01 0.54414571274E-01 0.41667744657E-01 0.31186596874E-01
 0.22947207673E-01 0.16695628008E-01 0.12119589963E-01 0.89141266791E-02 0.67784465902E-02
 0.54086649928E-02 0.46408272622E-02 0.43063742259E-02 0.42187040480E-02 0.42647623805E-02
 0.43710923241E-02 0.44919655549E-02 0.45813381434E-02 0.46160029228E-02 0.45813381429E-02
 0.44919655549E-02 0.43710923241E-02 0.42647623804E-02 0.42187040480E-02 0.43063742260E-02
 0.46408272622E-02 0.54086649900E-02 0.67784465901E-02 0.89141266790E-02 0.12119589963E-01
 0.16695628008E-01 0.22947207673E-01 0.31186596873E-01 0.41667744657E-01 0.54414571275E-01
 0.69311980458E-01 0.85947326909E-01 0.10344447914E+00 0.12063219904E+00 0.13613634387E+00
 0.14854300047E+00 0.15657638572E+00 0.84552781486E-01 0.83152678679E-01 0.79097370610E-01
 0.72807562264E-01 0.64899515381E-01 0.56097254976E-01 0.47100227795E-01 0.38471343229E-01
 0.30594740314E-01 0.23772525948E-01 0.18158656212E-01 0.13680795887E-01 0.10281654293E-01
 0.78049713022E-02 0.61186274436E-02 0.50322342554E-02 0.44155713630E-02 0.42007785400E-02
 0.42187040443E-02 0.43640378888E-02 0.45721748862E-02 0.48116487207E-02 0.50249637319E-02
 0.51764957216E-02 0.52274611778E-02 0.51764957215E-02 0.50249637318E-02 0.48116487207E-02
 0.45721748861E-02 0.43640378889E-02 0.42187040443E-02 0.42007785400E-02 0.44155713592E-02
 0.50322342554E-02 0.61186274436E-02 0.78049713022E-02 0.10281654293E-01 0.13680795887E-01
 0.18158656212E-01 0.23772525948E-01 0.30594740311E-01 0.38471343229E-01 0.47100227795E-01
 0.56097254976E-01 0.64899515381E-01 0.72807562264E-01 0.79097370610E-01 0.83152678679E-01
 0.44975332396E-01 0.44274830023E-01 0.42243796198E-01 0.39086696253E-01 0.35093229835E-01
 0.30593827523E-01 0.25915031263E-01 0.21380844798E-01 0.17262266250E-01 0.13682861742E-01
 0.10672656703E-01 0.83081792488E-02 0.65216050224E-02 0.52626767173E-02 0.44715313761E-02
 0.40171870222E-02 0.38995974669E-02 0.40247362576E-02 0.42647623737E-02 0.45721748919E-02
 0.49271095293E-02 0.52825303863E-02 0.55834911099E-02 0.57821496599E-02 0.58519024111E-02
 0.57821496603E-02 0.55834911098E-02 0.52825303863E-02 0.49271095292E-02 0.45721748920E-02
 0.42647623737E-02 0.40247362576E-02 0.38995974783E-02 0.40171870223E-02 0.44715313761E-02
 0.52626767173E-02 0.65216050224E-02 0.83081792487E-02 0.10672656703E-01 0.13682861742E-01
 0.17262266254E-01 0.21380844797E-01 0.25915031263E-01 0.30593827523E-01 0.35093229835E-01
 0.39086696253E-01 0.42243796198E-01 0.44274830023E-01 0.24303265339E-01 0.23943954020E-01
 0.22892776069E-01 0.21253771773E-01 0.19170323430E-01 0.16836309682E-01 0.14431738657E-01
 0.12101657084E-01 0.99215578389E-02 0.80163558827E-02 0.64655205029E-02 0.52462988025E-02
 0.43602251507E-02 0.38075404385E-02 0.35236224512E-02 0.34662226235E-02 0.36587045191E-02
 0.39851495105E-02 0.43710923236E-02 0.48116487236E-02 0.52825303896E-02 0.57296335079E-02
 0.60920683278E-02 0.63269716921E-02 0.64074428138E-02 0.63269716918E-02 0.60920683277E-02
 0.57296335079E-02 0.52825303895E-02 0.48116487236E-02 0.43710923236E-02 0.39851495105E-02
 0.36587045277E-02 0.34662226236E-02 0.35236224513E-02 0.38075404385E-02 0.43602251507E-02
 0.52462988024E-02 0.64655205029E-02 0.80163558828E-02 0.99215578384E-02 0.12101657084E-01
 0.14431738657E-01 0.16836309682E-01 0.19170323430E-01 0.21253771773E-01 0.22892776069E-01
 0.23943954020E-01 0.13607435440E-01 0.13420629456E-01 0.12879156258E-01 0.12033997488E-01
 0.10956393521E-01 0.97217944497E-02 0.84092444551E-02 0.71227992766E-02 0.59719983019E-02
 0.49864515720E-02 0.41577126684E-02 0.35646373977E-02 0.31714774847E-02 0.30037377907E-02
 0.30086838253E-02 0.31874550156E-02 0.35621757188E-02 0.40046148943E-02 0.44919655563E-02
 0.50249637344E-02 0.55834911078E-02 0.60920683274E-02 0.64992155282E-02 0.67546348577E-02
 0.68451042066E-02 0.67546348570E-02 0.64992155280E-02 0.60920683274E-02 0.55834911077E-02
 0.50249637344E-02 0.44919655563E-02 0.40046148944E-02 0.35621757254E-02 0.31874550157E-02
 0.30086838254E-02 0.30037377907E-02 0.31714774847E-02 0.35646373978E-02 0.41577126684E-02
 0.49864515720E-02 0.59719983031E-02 0.71227992765E-02 0.84092444551E-02 0.97217944497E-02
 0.10956393521E-01 0.12033997488E-01 0.12879156258E-01 0.13420629456E-01 0.86502771183E-02
 0.85362356062E-02 0.82012989010E-02 0.76752418755E-02 0.70035984981E-02 0.62551635595E-02
 0.54965635869E-02 0.47666816670E-02 0.40702251907E-02 0.34728486345E-02 0.30361341025E-02
 0.27318855462E-02 0.25806776292E-02 0.26095247193E-02 0.27560757149E-02 0.30652177080E-02
 0.35299677352E-02 0.40358039430E-02 0.45813381466E-02 0.51764957209E-02 0.57821496632E-02
 0.63269716902E-02 0.67546348561E-02 0.70242915073E-02 0.71171191944E-02 0.70242915085E-02
 0.67546348565E-02 0.63269716903E-02 0.57821496631E-02 0.51764957209E-02 0.45813381466E-02
 0.40358039431E-02 0.35299677372E-02 0.30652177080E-02 0.27560757149E-02 0.26095247194E-02
 0.25806776292E-02 0.27318855464E-02 0.30361341026E-02 0.34728486345E-02 0.40702251897E-02
 0.47666816670E-02 0.54965635869E-02 0.62551635594E-02 0.70035984983E-02 0.76752418755E-02
 0.82012989010E-02 0.85362356065E-02 0.71344343705E-02 0.70456840528E-02 0.67916554433E-02
 0.63935116924E-02 0.58857276742E-02 0.52946485731E-02 0.46557375404E-02 0.40273204053E-02
 0.34893334263E-02 0.30476745939E-02 0.26884331505E-02 0.24822152523E-02 0.24055729645E-02
 0.24887811561E-02 0.26833179538E-02 0.30297741811E-02 0.35241233146E-02 0.40490917616E-02
 0.46160029059E-02 0.52274611747E-02 0.58519024000E-02 0.64074428150E-02 0.68451042220E-02
 0.71171191810E-02 0.72131933923E-02 0.71171191833E-02 0.68451042231E-02 0.64074428149E-02
 0.58519024000E-02 0.52274611747E-02 0.46160029059E-02 0.40490917616E-02 0.35241233146E-02
 0.30297741811E-02 0.26833179538E-02 0.24887811562E-02 0.24055729645E-02 0.24822152525E-02
 0.26884331506E-02 0.30476745939E-02 0.34893334263E-02 0.40273204052E-02 0.46557375404E-02
 0.52946485730E-02 0.58857276743E-02 0.63935116924E-02 0.67916554435E-02 0.70456840530E-02
 0.86502771187E-02 0.85362356063E-02 0.82012989011E-02 0.76752418755E-02 0.70035984981E-02
 0.62551635595E-02 0.54965635869E-02 0.47666816670E-02 0.40702251897E-02 0.34728486345E-02
 0.30361341025E-02 0.27318855462E-02 0.25806776292E-02 0.26095247193E-02 0.27560757149E-02
 0.30652177080E-02 0.35299677373E-02 0.40358039431E-02 0.45813381466E-02 0.51764957209E-02
 0.57821496631E-02 0.63269716902E-02 0.67546348562E-02 0.70242915096E-02 0.71171191983E-02
 0.70242915062E-02 0.67546348561E-02 0.63269716902E-02 0.57821496631E-02 0.51764957209E-02
 0.45813381467E-02 0.40358039430E-02 0.35299677351E-02 0.30652177080E-02 0.27560757149E-02
 0.26095247194E-02 0.25806776292E-02 0.27318855464E-02 0.30361341026E-02 0.34728486345E-02
 0.40702251908E-02 0.47666816669E-02 0.54965635869E-02 0.62551635594E-02 0.70035984983E-02
 0.76752418755E-02 0.82012989010E-02 0.85362356068E-02 0.13607435440E-01 0.13420629456E-01
 0.12879156258E-01 0.12033997488E-01 0.10956393521E-01 0.97217944497E-02 0.84092444551E-02
 0.71227992766E-02 0.59719983031E-02 0.49864515720E-02 0.41577126684E-02 0.35646373977E-02
 0.31714774847E-02 0.30037377907E-02 0.30086838253E-02 0.31874550157E-02 0.35621757255E-02
 0.40046148944E-02 0.44919655563E-02 0.50249637344E-02 0.55834911079E-02 0.60920683274E-02
 0.64992155281E-02 0.67546348566E-02 0.68451042069E-02 0.67546348558E-02 0.64992155282E-02
 0.60920683273E-02 0.55834911078E-02 0.50249637344E-02 0.44919655563E-02 0.40046148943E-02
 0.35621757187E-02 0.31874550156E-02 0.30086838254E-02 0.30037377907E-02 0.31714774847E-02
 0.35646373978E-02 0.41577126684E-02 0.49864515720E-02 0.59719983019E-02 0.71227992765E-02
 0.84092444551E-02 0.97217944497E-02 0.10956393521E-01 0.12033997488E-01 0.12879156258E-01
 0.13420629456E-01 0.24303265339E-01 0.23943954020E-01 0.22892776069E-01 0.21253771773E-01
 0.19170323430E-01 0.16836309682E-01 0.14431738657E-01 0.12101657084E-01 0.99215578384E-02
 0.80163558828E-02 0.64655205030E-02 0.52462988025E-02 0.43602251507E-02 0.38075404385E-02
 0.35236224513E-02 0.34662226236E-02 0.36587045278E-02 0.39851495106E-02 0.43710923237E-02
 0.48116487236E-02 0.52825303896E-02 0.57296335079E-02 0.60920683278E-02 0.63269716922E-02
 0.64074428141E-02 0.63269716918E-02 0.60920683277E-02 0.57296335079E-02 0.52825303896E-02
 0.48116487236E-02 0.43710923236E-02 0.39851495104E-02 0.36587045190E-02 0.34662226235E-02
 0.35236224513E-02 0.38075404385E-02 0.43602251507E-02 0.52462988024E-02 0.64655205029E-02
 0.80163558827E-02 0.99215578389E-02 0.12101657084E-01 0.14431738657E-01 0.16836309682E-01
 0.19170323430E-01 0.21253771773E-01 0.22892776069E-01 0.23943954020E-01 0.44975332395E-01
 0.44274830023E-01 0.42243796198E-01 0.39086696253E-01 0.35093229835E-01 0.30593827523E-01
 0.25915031263E-01 0.21380844798E-01 0.17262266254E-01 0.13682861742E-01 0.10672656703E-01
 0.83081792488E-02 0.65216050224E-02 0.52626767173E-02 0.44715313762E-02 0.40171870223E-02
 0.38995974784E-02 0.40247362577E-02 0.42647623737E-02 0.45721748919E-02 0.49271095294E-02
 0.52825303863E-02 0.55834911099E-02 0.57821496600E-02 0.58519024112E-02 0.57821496603E-02
 0.55834911098E-02 0.52825303864E-02 0.49271095293E-02 0.45721748920E-02 0.42647623737E-02
 0.40247362576E-02 0.38995974667E-02 0.40171870222E-02 0.44715313761E-02 0.52626767173E-02
 0.65216050224E-02 0.83081792487E-02 0.10672656703E-01 0.13682861742E-01 0.17262266250E-01
 0.21380844797E-01 0.25915031263E-01 0.30593827523E-01 0.35093229835E-01 0.39086696253E-01
 0.42243796198E-01 0.44274830023E-01 0.84552781486E-01 0.83152678679E-01 0.79097370610E-01
 0.72807562264E-01 0.64899515381E-01 0.56097254976E-01 0.47100227795E-01 0.38471343229E-01
 0.30594740311E-01 0.23772525947E-01 0.18158656212E-01 0.13680795887E-01 0.10281654294E-01
 0.78049713022E-02 0.61186274436E-02 0.50322342554E-02 0.44155713594E-02 0.42007785400E-02
 0.42187040443E-02 0.43640378888E-02 0.45721748862E-02 0.48116487207E-02 0.50249637319E-02
 0.51764957215E-02 0.52274611784E-02 0.51764957214E-02 0.50249637319E-02 0.48116487207E-02
 0.45721748861E-02 0.43640378889E-02 0.42187040443E-02 0.42007785400E-02 0.44155713629E-02
 0.50322342555E-02 0.61186274436E-02 0.78049713022E-02 0.10281654294E-01 0.13680795887E-01
 0.18158656212E-01 0.23772525948E-01 0.30594740314E-01 0.38471343229E-01 0.47100227795E-01
 0.56097254976E-01 0.64899515381E-01 0.72807562264E-01 0.79097370610E-01 0.83152678679E-01
 0.15936184402E+00 0.15657638572E+00 0.14854300047E+00 0.13613634387E+00 0.12063219904E+00
 0.10344447914E+00 0.85947326909E-01 0.69311980458E-01 0.54414571275E-01 0.41667744657E-01
 0.31186596874E-01 0.22947207673E-01 0.16695628008E-01 0.12119589963E-01 0.89141266791E-02
 0.67784465901E-02 0.54086649901E-02 0.46408272622E-02 0.43063742260E-02 0.42187040480E-02
 0.42647623806E-02 0.43710923242E-02 0.44919655549E-02 0.45813381434E-02 0.46160029229E-02
 0.45813381430E-02 0.44919655549E-02 0.43710923242E-02 0.42647623805E-02 0.42187040480E-02
 0.43063742260E-02 0.46408272623E-02 0.54086649927E-02 0.67784465902E-02 0.89141266790E-02
 0.12119589963E-01 0.16695628008E-01 0.22947207673E-01 0.31186596873E-01 0.41667744657E-01
 0.54414571274E-01 0.69311980458E-01 0.85947326909E-01 0.10344447914E+00 0.12063219904E+00
 0.13613634387E+00 0.14854300047E+00 0.15657638572E+00 0.30118872708E+00 0.29560601260E+00
 0.27951777174E+00 0.25478514302E+00 0.22408412888E+00 0.19042817575E+00 0.15663135054E+00
 0.12491126055E+00 0.96722345539E-01 0.72910152759E-01 0.53687821034E-01 0.38706998541E-01
 0.27458724282E-01 0.19296942146E-01 0.13549709770E-01 0.96679701498E-02 0.71356920534E-02
 0.55422441579E-02 0.46408272669E-02 0.42007785435E-02 0.40247362528E-02 0.39851495170E-02
 0.40046149002E-02 0.40358039434E-02 0.40490917445E-02 0.40358039432E-02 0.40046149000E-02
 0.39851495169E-02 0.40247362526E-02 0.42007785435E-02 0.46408272669E-02 0.55422441579E-02
 0.71356920537E-02 0.96679701500E-02 0.13549709769E-01 0.19296942146E-01 0.27458724282E-01
 0.38706998541E-01 0.53687821034E-01 0.72910152759E-01 0.96722345534E-01 0.12491126055E+00
 0.15663135054E+00 0.19042817575E+00 0.22408412888E+00 0.25478514302E+00 0.27951777174E+00
 0.29560601260E+00 0.56893994675E+00 0.55775496562E+00 0.52562378226E+00 0.47650079907E+00
 0.41599760786E+00 0.35022170032E+00 0.28478490484E+00 0.22413540093E+00 0.17118700076E+00
 0.12716038504E+00 0.92052567160E-01 0.65179213367E-01 0.45278856927E-01 0.31002981335E-01
 0.21067770977E-01 0.14334992028E-01 0.99350165767E-02 0.71356920564E-02 0.54086649951E-02
 0.44155713544E-02 0.38995974679E-02 0.36587045195E-02 0.35621757157E-02 0.35299677299E-02
 0.35241233493E-02 0.35299677296E-02 0.35621757156E-02 0.36587045195E-02 0.38995974677E-02
 0.44155713543E-02 0.54086649952E-02 0.71356920563E-02 0.99350165720E-02 0.14334992028E-01
 0.21067770977E-01 0.31002981335E-01 0.45278856927E-01 0.65179213367E-01 0.92052567160E-01
 0.12716038504E+00 0.17118700076E+00 0.22413540093E+00 0.28478490484E+00 0.35022170032E+00
 0.41599760786E+00 0.47650079907E+00 0.52562378226E+00 0.55775496562E+00 0.10746741692E+01
 0.10522252886E+01 0.98785772820E+00 0.88979442202E+00 0.77019515287E+00 0.64153322473E+00
 0.51542804852E+00 0.40033606598E+00 0.30123176168E+00 0.22017027752E+00 0.15680099052E+00
 0.10905355915E+00 0.74316393081E-01 0.49796984206E-01 0.32959598012E-01 0.21696701048E-01
 0.14334992015E-01 0.96679701590E-02 0.67784465828E-02 0.50322342525E-02 0.40171870215E-02
 0.34662226298E-02 0.31874550164E-02 0.30652177104E-02 0.30297741667E-02 0.30652177103E-02
 0.31874550163E-02 0.34662226298E-02 0.40171870215E-02 0.50322342524E-02 0.67784465828E-02
 0.96679701590E-02 0.14334992016E-01 0.21696701048E-01 0.32959598012E-01 0.49796984206E-01
 0.74316393081E-01 0.10905355915E+00 0.15680099052E+00 0.22017027752E+00 0.30123176168E+00