       N       E                     dE             d eps       ncg     rms          rms(c)
DAV:   1     0.119463134199E+04    0.11946E+04   -0.32568E+04 38008   0.327E+03
DAV:   2     0.317058482182E+03   -0.87757E+03   -0.80000E+03 45440   0.660E+02
DAV:   3    -0.100050945662E+02   -0.32706E+03   -0.31951E+03 50472   0.340E+02
DAV:   4    -0.594500885133E+02   -0.49445E+02   -0.48503E+02 60752   0.129E+02
DAV:   5    -0.638884640950E+02   -0.44384E+01   -0.42798E+01 66224   0.406E+01    0.274E+01
DAV:   6    -0.648374669209E+02   -0.94900E+00   -0.10494E+02 49240   0.106E+02    0.325E+01
DAV:   7    -0.723576574834E+02   -0.75202E+01   -0.34868E+01 48224   0.596E+01    0.159E+01
DAV:   8    -0.727320931993E+02   -0.37444E+00   -0.11315E+01 47312   0.573E+01    0.728E+00
DAV:   9    -0.746978157773E+02   -0.19657E+01   -0.10778E+01 60488   0.211E+01    0.751E+00
DAV:  10    -0.748964137346E+02   -0.19860E+00   -0.27595E+00 54824   0.151E+01    0.689E+00
DAV:  11    -0.748695297812E+02    0.26884E-01   -0.92831E-01 59064   0.842E+00    0.444E+00
DAV:  12    -0.749075435304E+02   -0.38014E-01   -0.32734E-01 55712   0.497E+00    0.220E+00
DAV:  13    -0.749371819921E+02   -0.29638E-01   -0.29557E-01 59632   0.393E+00    0.875E-01
DAV:  14    -0.749692995674E+02   -0.32118E-01   -0.53671E-02 60368   0.139E+00    0.468E-01
DAV:  15    -0.749833499919E+02   -0.14050E-01   -0.28773E-02 56240   0.108E+00    0.537E-01
DAV:  16    -0.749847181804E+02   -0.13682E-02   -0.85439E-03 63248   0.762E-01    0.593E-01
DAV:  17    -0.749828317055E+02    0.18865E-02   -0.24371E-03 62048   0.499E-01    0.233E-01
DAV:  18    -0.749824827096E+02    0.34900E-03   -0.10313E-03 60592   0.276E-01    0.866E-02
DAV:  19    -0.749824262055E+02    0.56504E-04   -0.30676E-04 64768   0.135E-01    0.479E-02
DAV:  20    -0.749823908064E+02    0.35399E-04   -0.10815E-04 61208   0.801E-02    0.270E-02
DAV:  21    -0.749824008343E+02   -0.10028E-04   -0.21279E-05 66896   0.501E-02    0.315E-02
DAV:  22    -0.749824076319E+02   -0.67976E-05   -0.68668E-06 58472   0.347E-02    0.325E-02
DAV:  23    -0.749824093326E+02   -0.17007E-05   -0.90863E-07 42800   0.109E-02    0.333E-02
DAV:  24    -0.749824133078E+02   -0.39752E-05   -0.16046E-06 44288   0.197E-02    0.377E-02
DAV:  25    -0.749824310648E+02   -0.17757E-04   -0.72458E-06 56104   0.454E-02    0.499E-02
DAV:  26    -0.749823980330E+02    0.33032E-04   -0.25932E-05 57256   0.104E-01    0.240E-02
DAV:  27    -0.749824095240E+02   -0.11491E-04   -0.11657E-04 61280   0.119E-01    0.376E-02
DAV:  28    -0.749824153142E+02   -0.57902E-05   -0.14648E-05 61752   0.475E-02    0.400E-02
DAV:  29    -0.749824097285E+02    0.55857E-05   -0.84912E-06 54976   0.644E-02    0.292E-02
DAV:  30    -0.749824017410E+02    0.79875E-05   -0.72154E-06 61744   0.559E-02    0.146E-02
DAV:  31    -0.749824001965E+02    0.15445E-05   -0.33530E-06 60536   0.343E-02    0.520E-03
DAV:  32    -0.749824017135E+02   -0.15170E-05   -0.75874E-07 38232   0.132E-02    0.391E-03
DAV:  33    -0.749824022257E+02   -0.51225E-06   -0.10946E-05 27816   0.124E-02    0.297E-02
DAV:  34    -0.749824126863E+02   -0.10461E-04   -0.90905E-06 35320   0.583E-02    0.294E-02
DAV:  35    -0.749824109059E+02    0.17804E-05   -0.73888E-07 39640   0.142E-02    0.278E-02
DAV:  36    -0.749824083991E+02    0.25068E-05   -0.38297E-07 30416   0.116E-02    0.252E-02
DAV:  37    -0.749824066265E+02    0.17726E-05   -0.42983E-07 30040   0.101E-02    0.227E-02
DAV:  38    -0.749824028589E+02    0.37676E-05   -0.25075E-06 58512   0.291E-02    0.148E-02
DAV:  39    -0.749824015955E+02    0.12634E-05   -0.11701E-06 43680   0.204E-02    0.933E-03
DAV:  40    -0.749824015305E+02    0.64982E-07   -0.42113E-07 33832   0.111E-02
   1 F= -.74982402E+02 E0= -.74982402E+02  d E =0.000000E+00  mag=     0.0000
