       N       E                     dE             d eps       ncg     rms          rms(c)
DAV:   1     0.871263326941E+03    0.87126E+03   -0.26317E+04 10416   0.281E+03
DAV:   2     0.209501014297E+03   -0.66176E+03   -0.49663E+03 10936   0.403E+02
DAV:   3    -0.108660630541E+01   -0.21059E+03   -0.20178E+03  8920   0.227E+02
DAV:   4    -0.269472697726E+02   -0.25861E+02   -0.24486E+02 12340   0.708E+01
DAV:   5    -0.295267794747E+02   -0.25795E+01   -0.24853E+01 15264   0.233E+01    0.224E+01
DAV:   6    -0.441958263649E+02   -0.14669E+02   -0.57292E+01 10712   0.707E+01    0.301E+01
DAV:   7    -0.425961786606E+02    0.15996E+01   -0.90101E+00 11008   0.187E+01    0.107E+01
DAV:   8    -0.410228096432E+02    0.15734E+01   -0.33138E+00 11856   0.140E+01    0.339E+00
DAV:   9    -0.410809058466E+02   -0.58096E-01   -0.16688E+00 12020   0.105E+01    0.385E+00
DAV:  10    -0.410574416769E+02    0.23464E-01   -0.32550E-01 13164   0.388E+00    0.124E+00
DAV:  11    -0.411226066792E+02   -0.65165E-01   -0.55977E-02 15244   0.119E+00    0.624E-01
DAV:  12    -0.411589353580E+02   -0.36329E-01   -0.38469E-02 11984   0.923E-01    0.577E-01
DAV:  13    -0.411598528722E+02   -0.91751E-03   -0.15218E-02 12400   0.752E-01    0.180E-01
DAV:  14    -0.411582286004E+02    0.16243E-02   -0.11979E-02 12980   0.346E-01    0.137E-01
DAV:  15    -0.411578351254E+02    0.39347E-03   -0.13075E-03 14076   0.159E-01    0.121E-01
DAV:  16    -0.411574602770E+02    0.37485E-03   -0.76714E-04 13644   0.199E-01    0.374E-02
DAV:  17    -0.411578060679E+02   -0.34579E-03   -0.17951E-04 13580   0.611E-02    0.977E-03
DAV:  18    -0.411579215087E+02   -0.11544E-03   -0.34479E-05 14976   0.274E-02    0.360E-03
DAV:  19    -0.411579001107E+02    0.21398E-04   -0.53855E-06 13356   0.846E-03    0.189E-03
DAV:  20    -0.411579089455E+02   -0.88348E-05   -0.10988E-06 10452   0.312E-03    0.120E-03
DAV:  21    -0.411579048492E+02    0.40963E-05   -0.12598E-07  7272   0.203E-03    0.955E-04
DAV:  22    -0.411579010539E+02    0.37953E-05   -0.44055E-08  5000   0.182E-03    0.289E-04
DAV:  23    -0.411579001669E+02    0.88697E-06   -0.18360E-08  4888   0.742E-04    0.245E-04
DAV:  24    -0.411579002921E+02   -0.12517E-06   -0.10408E-08  4788   0.922E-04    0.124E-04
DAV:  25    -0.411579000605E+02    0.23162E-06   -0.54661E-09  4768   0.485E-04    0.582E-05
DAV:  26    -0.411578998371E+02    0.22330E-06   -0.43841E-09  4764   0.480E-04    0.936E-05
DAV:  27    -0.411578998675E+02   -0.30333E-07   -0.28546E-09  4748   0.376E-04
   1 F= -.41157900E+02 E0= -.41157900E+02  d E =0.000000E+00  mag=    29.7435
