=========================================
SLURM_JOB_ID = 63457536
SLURM_JOB_NODELIST = lnode31
SLURM_GPUS = 
SLURM_CPUS_ON_NODE = 8
SLURM_JOB_PARTITION = lenovo
SLURM_TASK_PID = 2326673
CUDA_VISIBLE_DEVICES = 
==========================================
 running on    8 total cores
 distrk:  each k-point on    8 cores,    1 groups
 distr:  one band on    4 cores,    2 groups
 using from now: INCAR     
 vasp.5.4.4.18Apr17-6-g9f103f2a35 (build Apr 28 2018 00:24:27) complex          
  
 POSCAR found type information on POSCAR  Eu
 POSCAR found :  1 types and       4 ions
 scaLAPACK will be used

 ----------------------------------------------------------------------------- 
|                                                                             |
|  ADVICE TO THIS USER RUNNING 'VASP/VAMP'   (HEAR YOUR MASTER'S VOICE ...):  |
|                                                                             |
|      You have a (more or less) 'small supercell' and for smaller cells      |
|      it is recommended  to use the reciprocal-space projection scheme!      |
|      The real space optimization is not  efficient for small cells and it   |
|      is also less accurate ...                                              |
|      Therefore set LREAL=.FALSE. in the  INCAR file                         |
|                                                                             |
 ----------------------------------------------------------------------------- 

 LDA part: xc-table for Pade appr. of Perdew
 POSCAR, INCAR and KPOINTS ok, starting setup
 FFT: planning ...
 WAVECAR not read
 entering main loop
       N       E                     dE             d eps       ncg     rms          rms(c)
DAV:   1     0.880581172910E+03    0.88058E+03   -0.26606E+04 10412   0.287E+03
DAV:   2     0.214355124263E+03   -0.66623E+03   -0.50009E+03 11120   0.416E+02
DAV:   3    -0.171425877064E+00   -0.21453E+03   -0.20530E+03  8840   0.231E+02
DAV:   4    -0.268932918158E+02   -0.26722E+02   -0.25350E+02 12344   0.723E+01
DAV:   5    -0.295262614501E+02   -0.26330E+01   -0.25362E+01 15424   0.240E+01    0.224E+01
DAV:   6    -0.442250486741E+02   -0.14699E+02   -0.57444E+01 10716   0.709E+01    0.302E+01
DAV:   7    -0.426031325881E+02    0.16219E+01   -0.89943E+00 11104   0.187E+01    0.107E+01
DAV:   8    -0.410237722559E+02    0.15794E+01   -0.33082E+00 11744   0.140E+01    0.341E+00
DAV:   9    -0.410812991686E+02   -0.57527E-01   -0.16951E+00 12080   0.105E+01    0.388E+00
DAV:  10    -0.410571996892E+02    0.24099E-01   -0.31956E-01 13232   0.380E+00    0.128E+00
DAV:  11    -0.411226365278E+02   -0.65437E-01   -0.57347E-02 15272   0.123E+00    0.639E-01
DAV:  12    -0.411589799935E+02   -0.36343E-01   -0.39201E-02 11840   0.969E-01    0.579E-01
DAV:  13    -0.411601326142E+02   -0.11526E-02   -0.14101E-02 12496   0.694E-01    0.186E-01
DAV:  14    -0.411583969053E+02    0.17357E-02   -0.12540E-02 12664   0.368E-01    0.155E-01
DAV:  15    -0.411579090006E+02    0.48790E-03   -0.13239E-03 13992   0.172E-01    0.106E-01
DAV:  16    -0.411574870984E+02    0.42190E-03   -0.91139E-04 13784   0.199E-01    0.474E-02
DAV:  17    -0.411578810694E+02   -0.39397E-03   -0.20010E-04 13712   0.808E-02    0.934E-03
DAV:  18    -0.411580098863E+02   -0.12882E-03   -0.35404E-05 15072   0.267E-02    0.384E-03
DAV:  19    -0.411579973528E+02    0.12533E-04   -0.71913E-06 13252   0.775E-03    0.171E-03
DAV:  20    -0.411580087602E+02   -0.11407E-04   -0.12284E-06 11320   0.383E-03    0.103E-03
DAV:  21    -0.411580051430E+02    0.36173E-05   -0.11186E-07  6976   0.187E-03    0.872E-04
DAV:  22    -0.411580008493E+02    0.42937E-05   -0.32512E-08  4964   0.151E-03    0.428E-04
DAV:  23    -0.411580002989E+02    0.55045E-06   -0.16035E-08  4868   0.735E-04    0.231E-04
DAV:  24    -0.411580004749E+02   -0.17599E-06   -0.85023E-09  4812   0.708E-04    0.124E-04
DAV:  25    -0.411579999824E+02    0.49243E-06   -0.61903E-09  4736   0.486E-04    0.567E-05
DAV:  26    -0.411579997230E+02    0.25945E-06   -0.44647E-09  4716   0.493E-04    0.614E-05
DAV:  27    -0.411579996840E+02    0.39019E-07   -0.31634E-09  4708   0.368E-04
   1 F= -.41158000E+02 E0= -.41158000E+02  d E =0.000000E+00  mag=    29.7435
