=========================================
SLURM_JOB_ID = 51754173
SLURM_JOB_NODELIST = lnode59
SLURM_GPUS = 
SLURM_CPUS_ON_NODE = 24
SLURM_JOB_PARTITION = lenovo
SLURM_TASK_PID = 1115425
CUDA_VISIBLE_DEVICES = 
==========================================
 running on   24 total cores
 distrk:  each k-point on   24 cores,    1 groups
 distr:  one band on    4 cores,    6 groups
 using from now: INCAR     
 vasp.5.4.4.18Apr17-6-g9f103f2a35 (build Apr 28 2018 00:24:27) complex          
  
 POSCAR found type information on POSCAR  Fe
 POSCAR found :  1 types and       2 ions
 scaLAPACK will be used

 ----------------------------------------------------------------------------- 
|                                                                             |
|  ADVICE TO THIS USER RUNNING 'VASP/VAMP'   (HEAR YOUR MASTER'S VOICE ...):  |
|                                                                             |
|      You have a (more or less) 'small supercell' and for smaller cells      |
|      it is recommended  to use the reciprocal-space projection scheme!      |
|      The real space optimization is not  efficient for small cells and it   |
|      is also less accurate ...                                              |
|      Therefore set LREAL=.FALSE. in the  INCAR file                         |
|                                                                             |
 ----------------------------------------------------------------------------- 

 LDA part: xc-table for Pade appr. of Perdew
 POSCAR, INCAR and KPOINTS ok, starting setup
 FFT: planning ...
 WAVECAR not read
 entering main loop
       N       E                     dE             d eps       ncg     rms          rms(c)
DAV:   1     0.272669973658E+03    0.27267E+03   -0.25247E+04  3396   0.276E+03
DAV:   2    -0.801680068158E+01   -0.28069E+03   -0.26966E+03  3408   0.498E+02
DAV:   3    -0.161994951427E+02   -0.81827E+01   -0.81621E+01  3588   0.906E+01
DAV:   4    -0.162725140697E+02   -0.73019E-01   -0.73020E-01  4020   0.819E+00
DAV:   5    -0.162738825669E+02   -0.13685E-02   -0.13685E-02  3600   0.106E+00    0.250E+01
DAV:   6    -0.164583959627E+02   -0.18451E+00   -0.74924E+00  3420   0.399E+01    0.691E+00
DAV:   7    -0.165128701294E+02   -0.54474E-01   -0.61514E-01  3432   0.982E+00    0.431E+00
DAV:   8    -0.165225629300E+02   -0.96928E-02   -0.15208E-02  3744   0.149E+00    0.137E+00
DAV:   9    -0.165142836676E+02    0.82793E-02   -0.52936E-03  3660   0.895E-01    0.337E-01
DAV:  10    -0.165140844311E+02    0.19924E-03   -0.22436E-03  3444   0.617E-01    0.441E-02
DAV:  11    -0.165141443432E+02   -0.59912E-04   -0.50062E-05  3564   0.678E-02    0.242E-02
DAV:  12    -0.165141525463E+02   -0.82031E-05   -0.50969E-06  3888   0.232E-02    0.956E-03
DAV:  13    -0.165141458194E+02    0.67268E-05   -0.12779E-06  3528   0.113E-02    0.253E-03
DAV:  14    -0.165141442202E+02    0.15992E-05   -0.15994E-07  2676   0.337E-03    0.657E-04
DAV:  15    -0.165141442262E+02   -0.59808E-08   -0.11413E-08  1728   0.112E-03
   1 F= -.16514144E+02 E0= -.16514144E+02  d E =0.000000E+00  mag=     4.4055
