unknown system                          
   1.00000000000000     
     1.420026    1.420026    1.420026
     0.000000    2.840052   -2.840052
    -4.260078    1.420026    1.420026
   Fe
     4
Direct
  0.500000  0.000000  0.500000
  0.250000  0.500000  0.750000
  0.000000  0.000000  0.000000
  0.750000  0.500000  0.250000
 
   36   60   72
 0.46324593188E+07 0.39580543943E+05 0.98743944231E+04 0.16103100398E+04 0.38952246453E+03
 0.20286563824E+03 0.12374933935E+03 0.70349531000E+02 0.37370108135E+02 0.19004631717E+02
 0.94136039542E+01 0.45909329977E+01 0.22189601320E+01 0.10679050888E+01 0.51334585764E+00
 0.24863760052E+00 0.12398457154E+00 0.69657029674E-01 0.54291576031E-01 0.69657029677E-01
 0.12398457154E+00 0.24863760052E+00 0.51334585764E+00 0.10679050888E+01 0.22189601320E+01
 0.45909329977E+01 0.94136039542E+01 0.19004631717E+02 0.37370108135E+02 0.70349531000E+02
 0.12374933935E+03 0.20286563824E+03 0.38952246453E+03 0.16103100398E+04 0.98743944231E+04
 0.39580543943E+05 0.40580631277E+05 0.24615831435E+05 0.66331870894E+04 0.12261537901E+04
 0.34996482782E+03 0.19366294494E+03 0.11867357197E+03 0.67502722887E+02 0.35926105104E+02
 0.18317813177E+02 0.90979702076E+01 0.44484852160E+01 0.21551288538E+01 0.10394702866E+01
 0.50061182541E+00 0.24287305746E+00 0.12132190611E+00 0.68249330906E-01 0.53248860010E-01
 0.68249330905E-01 0.12132190611E+00 0.24287305746E+00 0.50061182541E+00 0.10394702866E+01
 0.21551288538E+01 0.44484852160E+01 0.90979702076E+01 0.18317813177E+02 0.35926105104E+02
 0.67502722887E+02 0.11867357197E+03 0.19366294494E+03 0.34996482782E+03 0.12261537901E+04
 0.66331870894E+04 0.24615831435E+05 0.10574829409E+05 0.69625818645E+04 0.23147220586E+04
 0.63174141116E+03 0.27328315692E+03 0.16959561632E+03 0.10467085427E+03 0.59669400436E+02
 0.31948042107E+02 0.16416525402E+02 0.82198524391E+01 0.40499990582E+01 0.19756316017E+01
 0.95887260654E+00 0.46445678246E+00 0.22642707343E+00 0.11371157331E+00 0.64204065450E-01
 0.50259183521E-01 0.64204065449E-01 0.11371157331E+00 0.22642707343E+00 0.46445678246E+00
 0.95887260654E+00 0.19756316017E+01 0.40499990582E+01 0.82198524391E+01 0.16416525402E+02
 0.31948042107E+02 0.59669400436E+02 0.10467085427E+03 0.16959561632E+03 0.27328315692E+03
 0.63174141116E+03 0.23147220586E+04 0.69625818645E+04 0.17952675091E+04 0.13389511569E+04
 0.65664067486E+03 0.32720519572E+03 0.20651418466E+03 0.13718816818E+03 0.84947052574E+02
 0.48688073884E+02 0.26349333283E+02 0.13715216310E+02 0.69573644664E+01 0.34703232549E+01
 0.17122094555E+01 0.83931172143E+00 0.41041283077E+00 0.20164982757E+00 0.10215824264E+00
 0.58028797099E-01 0.45671520593E-01 0.58028797098E-01 0.10215824264E+00 0.20164982757E+00
 0.41041283077E+00 0.83931172143E+00 0.17122094555E+01 0.34703232549E+01 0.69573644664E+01
 0.13715216310E+02 0.26349333283E+02 0.48688073884E+02 0.84947052574E+02 0.13718816818E+03
 0.20651418466E+03 0.32720519572E+03 0.65664067486E+03 0.13389511569E+04 0.42215839706E+03
 0.37352729466E+03 0.28306705587E+03 0.20943848276E+03 0.15162407425E+03 0.10232626938E+03
 0.63567187748E+02 0.36821366195E+02 0.20244708269E+02 0.10725436541E+02 0.55367697386E+01
 0.28074722880E+01 0.14062038092E+01 0.69866094911E+00 0.34597220479E+00 0.17181166533E+00
 0.88066642610E-01 0.50461827822E-01 0.39988193294E-01 0.50461827821E-01 0.88066642611E-01
 0.17181166533E+00 0.34597220479E+00 0.69866094911E+00 0.14062038092E+01 0.28074722880E+01
 0.55367697386E+01 0.10725436541E+02 0.20244708269E+02 0.36821366195E+02 0.63567187748E+02
 0.10232626938E+03 0.15162407425E+03 0.20943848276E+03 0.28306705587E+03 0.37352729466E+03
 0.21331844819E+03 0.20286553793E+03 0.17615902955E+03 0.14108664920E+03 0.10394379154E+03
 0.70349446678E+02 0.44104907481E+02 0.25975115977E+02 0.14578440750E+02 0.78930353398E+01
 0.41617992377E+01 0.21523491635E+01 0.10979329308E+01 0.55449604066E+00 0.27877349878E+00
 0.14038169889E+00 0.72910732654E-01 0.42325075210E-01 0.33730373617E-01 0.42325075209E-01
 0.72910732654E-01 0.14038169889E+00 0.27877349878E+00 0.55449604066E+00 0.10979329308E+01
 0.21523491635E+01 0.41617992377E+01 0.78930353398E+01 0.14578440750E+02 0.25975115977E+02
 0.44104907481E+02 0.70349446678E+02 0.10394379154E+03 0.14108664920E+03 0.17615902955E+03
 0.20286553793E+03 0.13178043184E+03 0.12614874000E+03 0.11067596682E+03 0.89025828630E+02
 0.65785443439E+02 0.44922658392E+02 0.28630702237E+02 0.17232908870E+02 0.99102448018E+01
 0.54997037684E+01 0.29701881663E+01 0.15707231690E+01 0.81795118894E+00 0.42109220758E+00
 0.21524267825E+00 0.11026862223E+00 0.58063531286E-01 0.34305547551E-01 0.27431545073E-01
 0.34305547551E-01 0.58063531285E-01 0.11026862223E+00 0.21524267825E+00 0.42109220758E+00
 0.81795118894E+00 0.15707231690E+01 0.29701881663E+01 0.54997037684E+01 0.99102448018E+01
 0.17232908870E+02 0.28630702237E+02 0.44922658392E+02 0.65785443439E+02 0.89025828630E+02
 0.11067596682E+03 0.12614874000E+03 0.76558843767E+02 0.73322388445E+02 0.64444864257E+02
 0.52086110589E+02 0.38877685465E+02 0.26986273346E+02 0.17577413124E+02 0.10850086982E+02
 0.64084978243E+01 0.36524642133E+01 0.20235694774E+01 0.10964995831E+01 0.58376802954E+00
 0.30688994529E+00 0.15981368817E+00 0.83400089039E-01 0.44639683646E-01 0.26838655604E-01
 0.21589361698E-01 0.26838655605E-01 0.44639683646E-01 0.83400089040E-01 0.15981368817E+00
 0.30688994529E+00 0.58376802954E+00 0.10964995831E+01 0.20235694774E+01 0.36524642133E+01
 0.64084978243E+01 0.10850086982E+02 0.17577413124E+02 0.26986273346E+02 0.38877685465E+02
 0.52086110589E+02 0.64444864257E+02 0.73322388445E+02 0.41539423135E+02 0.39853420616E+02
 0.35227050555E+02 0.28768702948E+02 0.21812024165E+02 0.15455730623E+02 0.10316326291E+02
 0.65410506224E+01 0.39718536809E+01 0.23270656524E+01 0.13239226437E+01 0.73561341273E+00
 0.40101451387E+00 0.21531145064E+00 0.11453519624E+00 0.60844102625E-01 0.33280577317E-01
 0.20280267264E-01 0.16547617905E-01 0.20280267265E-01 0.33280577317E-01 0.60844102626E-01
 0.11453519624E+00 0.21531145064E+00 0.40101451387E+00 0.73561341273E+00 0.13239226437E+01
 0.23270656524E+01 0.39718536809E+01 0.65410506224E+01 0.10316326291E+02 0.15455730623E+02
 0.21812024165E+02 0.28768702948E+02 0.35227050555E+02 0.39853420616E+02 0.21541774215E+02
 0.20720674842E+02 0.18458623989E+02 0.15271225296E+02 0.11786731906E+02 0.85375361830E+01
 0.58431441074E+01 0.38060053305E+01 0.23760075627E+01 0.14306057357E+01 0.83598633691E+00
 0.47644929750E+00 0.26603184937E+00 0.14612430858E+00 0.79374357811E-01 0.43065201017E-01
 0.24019610200E-01 0.14953865334E-01 0.12291676498E-01 0.14953865334E-01 0.24019610199E-01
 0.43065201018E-01 0.79374357810E-01 0.14612430858E+00 0.26603184937E+00 0.47644929750E+00
 0.83598633691E+00 0.14306057357E+01 0.23760075627E+01 0.38060053305E+01 0.58431441074E+01
 0.85375361830E+01 0.11786731906E+02 0.15271225296E+02 0.18458623989E+02 0.20720674842E+02
 0.10865774309E+02 0.10480843861E+02 0.94135818624E+01 0.78930450222E+01 0.62022612832E+01
 0.45907386154E+01 0.32195961290E+01 0.21523707987E+01 0.13801554474E+01 0.85368715195E+00
 0.51209689918E+00 0.29934846322E+00 0.17118527509E+00 0.96225069349E-01 0.53417815317E-01
 0.29630464201E-01 0.16882437639E-01 0.10743393688E-01 0.89076342970E-02 0.10743393688E-01
 0.16882437639E-01 0.29630464202E-01 0.53417815317E-01 0.96225069349E-01 0.17118527509E+00
 0.29934846322E+00 0.51209689918E+00 0.85368715196E+00 0.13801554474E+01 0.21523707987E+01
 0.32195961290E+01 0.45907386154E+01 0.62022612832E+01 0.78930450222E+01 0.94135818624E+01
 0.10480843861E+02 0.53903368285E+01 0.52133732461E+01 0.47196085952E+01 0.40081131660E+01
 0.32033923192E+01 0.24200407623E+01 0.17365855574E+01 0.11898852384E+01 0.78279405552E+00
 0.49680453375E+00 0.30571924363E+00 0.18314501844E+00 0.10730612694E+00 0.61717190629E-01
 0.35071894395E-01 0.19896687936E-01 0.11636365396E-01 0.75716388343E-02 0.63693962160E-02
 0.75716388344E-02 0.11636365397E-01 0.19896687938E-01 0.35071894395E-01 0.61717190629E-01
 0.10730612694E+00 0.18314501844E+00 0.30571924363E+00 0.49680453374E+00 0.78279405552E+00
 0.11898852384E+01 0.17365855574E+01 0.24200407623E+01 0.32033923192E+01 0.40081131660E+01
 0.47196085952E+01 0.52133732461E+01 0.26479366904E+01 0.25672751528E+01 0.23413054256E+01
 0.20113953906E+01 0.16329084690E+01 0.12571482067E+01 0.92161147971E+00 0.64615059451E+00
 0.43543038057E+00 0.28321441752E+00 0.17856548345E+00 0.10963144703E+00 0.65777473413E-01
 0.38766529830E-01 0.22569218681E-01 0.13161667053E-01 0.79199255323E-02 0.53215375994E-02
 0.45306484431E-02 0.53215375995E-02 0.79199255319E-02 0.13161667053E-01 0.22569218681E-01
 0.38766529829E-01 0.65777473414E-01 0.10963144703E+00 0.17856548345E+00 0.28321441752E+00
 0.43543038057E+00 0.64615059451E+00 0.92161147971E+00 0.12571482067E+01 0.16329084690E+01
 0.20113953906E+01 0.23413054256E+01 0.25672751528E+01 0.12938271585E+01 0.12571606202E+01
 0.11539391447E+01 0.10022539263E+01 0.82513528851E+00 0.64615036090E+00 0.48305952747E+00
 0.34611858217E+00 0.23848283940E+00 0.15877693688E+00 0.10255047695E+00 0.64494696033E-01
 0.39692173515E-01 0.24011794714E-01 0.14404016500E-01 0.86855437089E-02 0.54529496303E-02
 0.38141777900E-02 0.33219861102E-02 0.38141777898E-02 0.54529496303E-02 0.86855437078E-02
 0.14404016500E-01 0.24011794713E-01 0.39692173514E-01 0.64494696033E-01 0.10255047694E+00
 0.15877693688E+00 0.23848283940E+00 0.34611858217E+00 0.48305952748E+00 0.64615036090E+00
 0.82513528851E+00 0.10022539263E+01 0.11539391447E+01 0.12571606202E+01 0.63032150108E+00
 0.61368741617E+00 0.56663260265E+00 0.49680985065E+00 0.41447735574E+00 0.32983026973E+00
 0.25102262891E+00 0.18338801474E+00 0.12918486299E+00 0.88002089494E-01 0.58225297039E-01
 0.37603979389E-01 0.23811760197E-01 0.14901641027E-01 0.93026260673E-02 0.59095591253E-02
 0.39434829866E-02 0.29409105399E-02 0.26296259057E-02 0.29409105391E-02 0.39434829869E-02
 0.59095591265E-02 0.93026260674E-02 0.14901641026E-01 0.23811760197E-01 0.37603979389E-01
 0.58225297039E-01 0.88002089506E-01 0.12918486299E+00 0.18338801474E+00 0.25102262891E+00
 0.32983026973E+00 0.41447735574E+00 0.49680985065E+00 0.56663260265E+00 0.61368741617E+00
 0.30711377709E+00 0.29955524228E+00 0.27806845720E+00 0.24588968982E+00 0.20747410519E+00
 0.16746198654E+00 0.12972379120E+00 0.96719662951E-01 0.69588925088E-01 0.48590726634E-01
 0.33074768582E-01 0.22061164241E-01 0.14545644780E-01 0.95627737609E-02 0.63693411144E-02
 0.43793700091E-02 0.32101494533E-02 0.25964056984E-02 0.24099015209E-02 0.25964056981E-02
 0.32101494533E-02 0.43793700099E-02 0.63693411137E-02 0.95627737604E-02 0.14545644781E-01
 0.22061164241E-01 0.33074768582E-01 0.48590726616E-01 0.69588925087E-01 0.96719662951E-01
 0.12972379120E+00 0.16746198654E+00 0.20747410519E+00 0.24588968982E+00 0.27806845720E+00
 0.29955524228E+00 0.14958072515E+00 0.14614733209E+00 0.13636366370E+00 0.12164038204E+00
 0.10390895515E+00 0.85163481171E-01 0.67118258082E-01 0.51077301559E-01 0.37761542292E-01
 0.27208974196E-01 0.19252369137E-01 0.13508331298E-01 0.94843218757E-02 0.67647092969E-02
 0.49652413512E-02 0.38199239972E-02 0.31198861433E-02 0.27492746205E-02 0.26302199348E-02
 0.27492746190E-02 0.31198861435E-02 0.38199239963E-02 0.49652413506E-02 0.67647092971E-02
 0.94843218749E-02 0.13508331298E-01 0.19252369137E-01 0.27208974193E-01 0.37761542292E-01
 0.51077301559E-01 0.67118258081E-01 0.85163481170E-01 0.10390895515E+00 0.12164038204E+00
 0.13636366370E+00 0.14614733209E+00 0.73311975076E-01 0.71755089793E-01 0.67299453625E-01
 0.60541425554E-01 0.52331139467E-01 0.43607386374E-01 0.35200950008E-01 0.27640536278E-01
 0.21195896211E-01 0.16062846452E-01 0.12138977744E-01 0.92360626468E-02 0.71706818706E-02
 0.57193539251E-02 0.47285615572E-02 0.40586449316E-02 0.36347205537E-02 0.33953339112E-02
 0.33206226256E-02 0.33953339106E-02 0.36347205534E-02 0.40586449314E-02 0.47285615585E-02
 0.57193539253E-02 0.71706818709E-02 0.92360626466E-02 0.12138977744E-01 0.16062846463E-01
 0.21195896211E-01 0.27640536279E-01 0.35200950005E-01 0.43607386375E-01 0.52331139467E-01
 0.60541425553E-01 0.67299453626E-01 0.71755089793E-01 0.36170643338E-01 0.35486165802E-01
 0.33531608900E-01 0.30575253260E-01 0.26984313443E-01 0.23131492600E-01 0.19344386594E-01
 0.15929797041E-01 0.13094232675E-01 0.10795718569E-01 0.90226901040E-02 0.77067547519E-02
 0.67233188704E-02 0.60003044718E-02 0.54534106585E-02 0.50515603787E-02 0.47636956662E-02
 0.45925663305E-02 0.45332692082E-02 0.45925663302E-02 0.47636956656E-02 0.50515603777E-02
 0.54534106584E-02 0.60003044723E-02 0.67233188705E-02 0.77067547520E-02 0.90226901032E-02
 0.10795718555E-01 0.13094232676E-01 0.15929797041E-01 0.19344386596E-01 0.23131492600E-01
 0.26984313443E-01 0.30575253258E-01 0.33531608900E-01 0.35486165801E-01 0.18426966348E-01
 0.18150878022E-01 0.17360055003E-01 0.16163194258E-01 0.14722430904E-01 0.13231490018E-01
 0.11867897709E-01 0.10700244675E-01 0.97196609013E-02 0.89971732447E-02 0.84671374052E-02
 0.80518211918E-02 0.77151712106E-02 0.73976473616E-02 0.70976717801E-02 0.68123058255E-02
 0.65782498376E-02 0.64192571876E-02 0.63645077252E-02 0.64192571877E-02 0.65782498378E-02
 0.68123058252E-02 0.70976717801E-02 0.73976473613E-02 0.77151712094E-02 0.80518211912E-02
 0.84671374053E-02 0.89971732531E-02 0.97196609017E-02 0.10700244675E-01 0.11867897710E-01
 0.13231490018E-01 0.14722430904E-01 0.16163194257E-01 0.17360055002E-01 0.18150878022E-01
 0.98893111588E-02 0.98223585756E-02 0.96432163260E-02 0.94069008427E-02 0.91789229140E-02
 0.90106625769E-02 0.89249424010E-02 0.89657255239E-02 0.91707871346E-02 0.94210793554E-02
 0.96679529447E-02 0.98595699061E-02 0.99241624321E-02 0.98601666842E-02 0.96725090293E-02
 0.94233246592E-02 0.91686056430E-02 0.89837192454E-02 0.89155059186E-02 0.89837192457E-02
 0.91686056437E-02 0.94233246587E-02 0.96725090294E-02 0.98601666841E-02 0.99241624326E-02
 0.98595699055E-02 0.96679529451E-02 0.94210793555E-02 0.91707871343E-02 0.89657255232E-02
 0.89249424022E-02 0.90106625770E-02 0.91789229142E-02 0.94069008425E-02 0.96432163257E-02
 0.98223585754E-02 0.61332482882E-02 0.61823199539E-02 0.63361866053E-02 0.66105766158E-02
 0.70388917507E-02 0.76503060916E-02 0.84633598622E-02 0.94303198751E-02 0.10428981874E-01
 0.11427280502E-01 0.12302197653E-01 0.12945616279E-01 0.13321119559E-01 0.13406374945E-01
 0.13258752456E-01 0.12956735335E-01 0.12630309088E-01 0.12379884788E-01 0.12285982832E-01
 0.12379884788E-01 0.12630309088E-01 0.12956735335E-01 0.13258752456E-01 0.13406374945E-01
 0.13321119561E-01 0.12945616279E-01 0.12302197654E-01 0.11427280504E-01 0.10428981874E-01
 0.94303198748E-02 0.84633598619E-02 0.76503060917E-02 0.70388917503E-02 0.66105766170E-02
 0.63361866056E-02 0.61823199541E-02 0.45371131279E-02 0.46713264934E-02 0.50767566229E-02
 0.57782855004E-02 0.67728119037E-02 0.80430384490E-02 0.95510788568E-02 0.11224943988E-01
 0.12995922566E-01 0.14664901421E-01 0.16103328879E-01 0.17197358839E-01 0.17844691779E-01
 0.18050948329E-01 0.17882947337E-01 0.17488323512E-01 0.17020168998E-01 0.16663531624E-01
 0.16532789327E-01 0.16663531624E-01 0.17020168998E-01 0.17488323512E-01 0.17882947337E-01
 0.18050948329E-01 0.17844691779E-01 0.17197358839E-01 0.16103328879E-01 0.14664901425E-01
 0.12995922568E-01 0.11224943987E-01 0.95510788572E-02 0.80430384492E-02 0.67728119030E-02
 0.57782855005E-02 0.50767566232E-02 0.46713264934E-02 0.42448536322E-02 0.44443164120E-02
 0.50551042975E-02 0.60689775205E-02 0.74976379506E-02 0.93616192118E-02 0.11581738393E-01
 0.14034838299E-01 0.16533411221E-01 0.18937334565E-01 0.21009549562E-01 0.22548796300E-01
 0.23471226672E-01 0.23758755647E-01 0.23521055954E-01 0.22957269350E-01 0.22322821304E-01
 0.21816661059E-01 0.21627192381E-01 0.21816661059E-01 0.22322821305E-01 0.22957269350E-01
 0.23521055955E-01 0.23758755647E-01 0.23471226672E-01 0.22548796298E-01 0.21009549561E-01
 0.18937334559E-01 0.16533411222E-01 0.14034838299E-01 0.11581738392E-01 0.93616192114E-02
 0.74976379504E-02 0.60689775207E-02 0.50551042975E-02 0.44443164122E-02 0.44163520992E-02
 0.46859909971E-02 0.55063821297E-02 0.68872740055E-02 0.88640700602E-02 0.11341691205E-01
 0.14238028479E-01 0.17472213464E-01 0.20861959282E-01 0.24061980369E-01 0.26795898454E-01
 0.28842952574E-01 0.30037459086E-01 0.30396785027E-01 0.30051649657E-01 0.29260131586E-01
 0.28365207377E-01 0.27698764862E-01 0.27437907048E-01 0.27698764862E-01 0.28365207377E-01
 0.29260131586E-01 0.30051649657E-01 0.30396785026E-01 0.30037459086E-01 0.28842952573E-01
 0.26795898453E-01 0.24061980378E-01 0.20861959282E-01 0.17472213464E-01 0.14238028476E-01
 0.11341691204E-01 0.88640700592E-02 0.68872740061E-02 0.55063821298E-02 0.46859909970E-02
 0.49922254215E-02 0.53391319891E-02 0.63470671879E-02 0.80694178824E-02 0.10472188600E-01
 0.13535659231E-01 0.17249720231E-01 0.21392069675E-01 0.25615105718E-01 0.29633107300E-01
 0.33089616815E-01 0.35656914131E-01 0.37166162375E-01 0.37585655105E-01 0.37119287053E-01
 0.36089987134E-01 0.34904978000E-01 0.34002741446E-01 0.33688890387E-01 0.34002741446E-01
 0.34904977999E-01 0.36089987135E-01 0.37119287054E-01 0.37585655105E-01 0.37166162374E-01
 0.35656914131E-01 0.33089616814E-01 0.29633107292E-01 0.25615105717E-01 0.21392069675E-01
 0.17249720234E-01 0.13535659230E-01 0.10472188600E-01 0.80694178826E-02 0.63470671875E-02
 0.53391319885E-02 0.55674489552E-02 0.59720663788E-02 0.71925202244E-02 0.92717531284E-02
 0.12177210128E-01 0.15917004376E-01 0.20380192447E-01 0.25312889454E-01 0.30431470531E-01
 0.35282691374E-01 0.39451302941E-01 0.42566396802E-01 0.44368955439E-01 0.44848515439E-01
 0.44225923029E-01 0.42940189437E-01 0.41477876352E-01 0.40339973809E-01 0.39924609299E-01
 0.40339973810E-01 0.41477876353E-01 0.42940189437E-01 0.44225923030E-01 0.44848515439E-01
 0.44368955440E-01 0.42566396801E-01 0.39451302941E-01 0.35282691380E-01 0.30431470530E-01
 0.25312889454E-01 0.20380192446E-01 0.15917004376E-01 0.12177210127E-01 0.92717531297E-02
 0.71925202238E-02 0.59720663793E-02 0.62423946507E-02 0.66933919318E-02 0.80980677866E-02
 0.10448924379E-01 0.13750452930E-01 0.18064654568E-01 0.23242550988E-01 0.28975784639E-01
 0.34864512587E-01 0.40504679548E-01 0.45365935863E-01 0.48967421372E-01 0.51046909275E-01
 0.51561255294E-01 0.50783692185E-01 0.49225646323E-01 0.47502133497E-01 0.46153839977E-01
 0.45640291174E-01 0.46153839977E-01 0.47502133497E-01 0.49225646323E-01 0.50783692184E-01
 0.51561255293E-01 0.51046909274E-01 0.48967421372E-01 0.45365935863E-01 0.40504679553E-01
 0.34864512588E-01 0.28975784639E-01 0.23242550987E-01 0.18064654567E-01 0.13750452930E-01
 0.10448924381E-01 0.80980677859E-02 0.66933919325E-02 0.66953234638E-02 0.71870927218E-02
 0.87488496118E-02 0.11352998030E-01 0.15064391909E-01 0.19884356372E-01 0.25579827812E-01
 0.31892916466E-01 0.38487414171E-01 0.44785428536E-01 0.50194092332E-01 0.54211478391E-01
 0.56496035106E-01 0.57040518077E-01 0.56121222733E-01 0.54327765254E-01 0.52368194773E-01
 0.50858820558E-01 0.50267368447E-01 0.50858820558E-01 0.52368194773E-01 0.54327765255E-01
 0.56121222734E-01 0.57040518077E-01 0.56496035107E-01 0.54211478392E-01 0.50194092333E-01
 0.44785428540E-01 0.38487414171E-01 0.31892916466E-01 0.25579827812E-01 0.19884356372E-01
 0.15064391910E-01 0.11352998031E-01 0.87488496132E-02 0.71870927215E-02 0.70801701607E-02
 0.76038706813E-02 0.92529970131E-02 0.11993432979E-01 0.15905821175E-01 0.21003432717E-01
 0.27078889945E-01 0.33847577581E-01 0.40853619041E-01 0.47583195439E-01 0.53372094637E-01
 0.57644191821E-01 0.60075380125E-01 0.60629202017E-01 0.59621617583E-01 0.57665650211E-01
 0.55545024727E-01 0.53921094927E-01 0.53292238092E-01 0.53921094927E-01 0.55545024727E-01
 0.57665650212E-01 0.59621617583E-01 0.60629202017E-01 0.60075380122E-01 0.57644191822E-01
 0.53372094636E-01 0.47583195445E-01 0.40853619039E-01 0.33847577581E-01 0.27078889946E-01
 0.21003432717E-01 0.15905821175E-01 0.11993432979E-01 0.92529970134E-02 0.76038706819E-02
 0.71407759679E-02 0.76751758700E-02 0.93630656660E-02 0.12176563825E-01 0.16215163402E-01
 0.21445445852E-01 0.27618364933E-01 0.34489581453E-01 0.41686347721E-01 0.48569027901E-01
 0.54474138613E-01 0.58849336814E-01 0.61320449962E-01 0.61883556045E-01 0.60839474183E-01
 0.58829083351E-01 0.56647570682E-01 0.54988087965E-01 0.54341792093E-01 0.54988087966E-01
 0.56647570682E-01 0.58829083351E-01 0.60839474183E-01 0.61883556045E-01 0.61320449962E-01
 0.58849336814E-01 0.54474138614E-01 0.48569027931E-01 0.41686347722E-01 0.34489581454E-01
 0.27618364933E-01 0.21445445852E-01 0.16215163402E-01 0.12176563825E-01 0.93630656657E-02
 0.76751758693E-02 0.70801701609E-02 0.76038706816E-02 0.92529970137E-02 0.11993432979E-01
 0.15905821175E-01 0.21003432717E-01 0.27078889946E-01 0.33847577581E-01 0.40853619040E-01
 0.47583195440E-01 0.53372094635E-01 0.57644191822E-01 0.60075380122E-01 0.60629202017E-01
 0.59621617583E-01 0.57665650212E-01 0.55545024727E-01 0.53921094927E-01 0.53292238092E-01
 0.53921094927E-01 0.55545024727E-01 0.57665650211E-01 0.59621617583E-01 0.60629202017E-01
 0.60075380125E-01 0.57644191820E-01 0.53372094638E-01 0.47583195443E-01 0.40853619041E-01
 0.33847577582E-01 0.27078889946E-01 0.21003432717E-01 0.15905821175E-01 0.11993432979E-01
 0.92529970127E-02 0.76038706813E-02 0.66953234638E-02 0.71870927216E-02 0.87488496134E-02
 0.11352998031E-01 0.15064391910E-01 0.19884356372E-01 0.25579827812E-01 0.31892916466E-01
 0.38487414171E-01 0.44785428537E-01 0.50194092332E-01 0.54211478392E-01 0.56496035107E-01
 0.57040518077E-01 0.56121222734E-01 0.54327765255E-01 0.52368194773E-01 0.50858820558E-01
 0.50267368447E-01 0.50858820558E-01 0.52368194773E-01 0.54327765254E-01 0.56121222733E-01
 0.57040518077E-01 0.56496035106E-01 0.54211478392E-01 0.50194092332E-01 0.44785428539E-01
 0.38487414171E-01 0.31892916466E-01 0.25579827812E-01 0.19884356373E-01 0.15064391909E-01
 0.11352998030E-01 0.87488496116E-02 0.71870927217E-02 0.62423946507E-02 0.66933919321E-02
 0.80980677862E-02 0.10448924381E-01 0.13750452930E-01 0.18064654567E-01 0.23242550987E-01
 0.28975784639E-01 0.34864512588E-01 0.40504679548E-01 0.45365935863E-01 0.48967421372E-01
 0.51046909274E-01 0.51561255293E-01 0.50783692184E-01 0.49225646323E-01 0.47502133497E-01
 0.46153839977E-01 0.45640291174E-01 0.46153839977E-01 0.47502133497E-01 0.49225646323E-01
 0.50783692185E-01 0.51561255294E-01 0.51046909275E-01 0.48967421372E-01 0.45365935864E-01
 0.40504679553E-01 0.34864512587E-01 0.28975784639E-01 0.23242550988E-01 0.18064654568E-01
 0.13750452930E-01 0.10448924379E-01 0.80980677864E-02 0.66933919322E-02 0.55674489552E-02
 0.59720663795E-02 0.71925202239E-02 0.92717531297E-02 0.12177210127E-01 0.15917004376E-01
 0.20380192446E-01 0.25312889454E-01 0.30431470530E-01 0.35282691375E-01 0.39451302941E-01
 0.42566396801E-01 0.44368955440E-01 0.44848515439E-01 0.44225923030E-01 0.42940189437E-01
 0.41477876353E-01 0.40339973810E-01 0.39924609299E-01 0.40339973809E-01 0.41477876352E-01
 0.42940189437E-01 0.44225923029E-01 0.44848515439E-01 0.44368955439E-01 0.42566396802E-01
 0.39451302941E-01 0.35282691379E-01 0.30431470531E-01 0.25312889453E-01 0.20380192447E-01
 0.15917004376E-01 0.12177210128E-01 0.92717531284E-02 0.71925202244E-02 0.59720663787E-02
 0.49922254215E-02 0.53391319887E-02 0.63470671876E-02 0.80694178825E-02 0.10472188600E-01
 0.13535659230E-01 0.17249720234E-01 0.21392069675E-01 0.25615105717E-01 0.29633107301E-01
 0.33089616814E-01 0.35656914131E-01 0.37166162374E-01 0.37585655105E-01 0.37119287054E-01
 0.36089987135E-01 0.34904977999E-01 0.34002741446E-01 0.33688890387E-01 0.34002741445E-01
 0.34904978000E-01 0.36089987134E-01 0.37119287053E-01 0.37585655105E-01 0.37166162375E-01
 0.35656914131E-01 0.33089616815E-01 0.29633107291E-01 0.25615105718E-01 0.21392069675E-01
 0.17249720231E-01 0.13535659230E-01 0.10472188600E-01 0.80694178824E-02 0.63470671879E-02
 0.53391319888E-02 0.44163520992E-02 0.46859909971E-02 0.55063821299E-02 0.68872740061E-02
 0.88640700591E-02 0.11341691204E-01 0.14238028476E-01 0.17472213464E-01 0.20861959282E-01
 0.24061980369E-01 0.26795898454E-01 0.28842952573E-01 0.30037459086E-01 0.30396785026E-01
 0.30051649657E-01 0.29260131586E-01 0.28365207377E-01 0.27698764862E-01 0.27437907048E-01
 0.27698764862E-01 0.28365207378E-01 0.29260131586E-01 0.30051649657E-01 0.30396785027E-01
 0.30037459086E-01 0.28842952573E-01 0.26795898454E-01 0.24061980378E-01 0.20861959282E-01
 0.17472213464E-01 0.14238028479E-01 0.11341691205E-01 0.88640700603E-02 0.68872740055E-02
 0.55063821297E-02 0.46859909970E-02 0.42448536322E-02 0.44443164123E-02 0.50551042974E-02
 0.60689775206E-02 0.74976379504E-02 0.93616192115E-02 0.11581738392E-01 0.14034838299E-01
 0.16533411222E-01 0.18937334564E-01 0.21009549561E-01 0.22548796298E-01 0.23471226672E-01
 0.23758755647E-01 0.23521055955E-01 0.22957269350E-01 0.22322821305E-01 0.21816661059E-01
 0.21627192381E-01 0.21816661059E-01 0.22322821304E-01 0.22957269350E-01 0.23521055954E-01
 0.23758755647E-01 0.23471226672E-01 0.22548796300E-01 0.21009549562E-01 0.18937334560E-01
 0.16533411221E-01 0.14034838299E-01 0.11581738393E-01 0.93616192117E-02 0.74976379506E-02
 0.60689775205E-02 0.50551042976E-02 0.44443164120E-02 0.45371131279E-02 0.46713264932E-02
 0.50767566231E-02 0.57782855005E-02 0.67728119030E-02 0.80430384493E-02 0.95510788572E-02
 0.11224943987E-01 0.12995922569E-01 0.14664901420E-01 0.16103328879E-01 0.17197358839E-01
 0.17844691779E-01 0.18050948329E-01 0.17882947337E-01 0.17488323512E-01 0.17020168998E-01
 0.16663531623E-01 0.16532789327E-01 0.16663531624E-01 0.17020168998E-01 0.17488323512E-01
 0.17882947337E-01 0.18050948329E-01 0.17844691779E-01 0.17197358839E-01 0.16103328879E-01
 0.14664901426E-01 0.12995922566E-01 0.11224943987E-01 0.95510788569E-02 0.80430384489E-02
 0.67728119037E-02 0.57782855005E-02 0.50767566229E-02 0.46713264936E-02 0.61332482882E-02
 0.61823199541E-02 0.63361866055E-02 0.66105766169E-02 0.70388917503E-02 0.76503060916E-02
 0.84633598619E-02 0.94303198750E-02 0.10428981874E-01 0.11427280503E-01 0.12302197654E-01
 0.12945616279E-01 0.13321119561E-01 0.13406374945E-01 0.13258752456E-01 0.12956735335E-01
 0.12630309088E-01 0.12379884787E-01 0.12285982832E-01 0.12379884788E-01 0.12630309088E-01
 0.12956735335E-01 0.13258752456E-01 0.13406374945E-01 0.13321119559E-01 0.12945616279E-01
 0.12302197653E-01 0.11427280504E-01 0.10428981874E-01 0.94303198749E-02 0.84633598623E-02
 0.76503060917E-02 0.70388917506E-02 0.66105766158E-02 0.63361866053E-02 0.61823199543E-02
 0.98893111588E-02 0.98223585754E-02 0.96432163257E-02 0.94069008425E-02 0.91789229142E-02
 0.90106625769E-02 0.89249424022E-02 0.89657255235E-02 0.91707871343E-02 0.94210793545E-02
 0.96679529453E-02 0.98595699054E-02 0.99241624326E-02 0.98601666843E-02 0.96725090294E-02
 0.94233246587E-02 0.91686056437E-02 0.89837192455E-02 0.89155059186E-02 0.89837192455E-02
 0.91686056431E-02 0.94233246593E-02 0.96725090294E-02 0.98601666840E-02 0.99241624322E-02
 0.98595699063E-02 0.96679529446E-02 0.94210793564E-02 0.91707871348E-02 0.89657255236E-02
 0.89249424010E-02 0.90106625770E-02 0.91789229140E-02 0.94069008428E-02 0.96432163259E-02
 0.98223585757E-02 0.18426966347E-01 0.18150878022E-01 0.17360055002E-01 0.16163194257E-01
 0.14722430904E-01 0.13231490018E-01 0.11867897710E-01 0.10700244675E-01 0.97196609018E-02
 0.89971732449E-02 0.84671374057E-02 0.80518211910E-02 0.77151712094E-02 0.73976473614E-02
 0.70976717801E-02 0.68123058252E-02 0.65782498377E-02 0.64192571873E-02 0.63645077251E-02
 0.64192571880E-02 0.65782498378E-02 0.68123058256E-02 0.70976717802E-02 0.73976473616E-02
 0.77151712106E-02 0.80518211920E-02 0.84671374050E-02 0.89971732537E-02 0.97196609014E-02
 0.10700244675E-01 0.11867897709E-01 0.13231490018E-01 0.14722430904E-01 0.16163194258E-01
 0.17360055002E-01 0.18150878023E-01 0.36170643338E-01 0.35486165801E-01 0.33531608900E-01
 0.30575253258E-01 0.26984313443E-01 0.23131492600E-01 0.19344386595E-01 0.15929797041E-01
 0.13094232675E-01 0.10795718569E-01 0.90226901037E-02 0.77067547520E-02 0.67233188705E-02
 0.60003044723E-02 0.54534106583E-02 0.50515603777E-02 0.47636956657E-02 0.45925663305E-02
 0.45332692082E-02 0.45925663303E-02 0.47636956660E-02 0.50515603787E-02 0.54534106585E-02
 0.60003044718E-02 0.67233188705E-02 0.77067547519E-02 0.90226901038E-02 0.10795718555E-01
 0.13094232675E-01 0.15929797041E-01 0.19344386594E-01 0.23131492600E-01 0.26984313443E-01
 0.30575253260E-01 0.33531608900E-01 0.35486165801E-01 0.73311975076E-01 0.71755089793E-01
 0.67299453626E-01 0.60541425554E-01 0.52331139467E-01 0.43607386375E-01 0.35200950005E-01
 0.27640536279E-01 0.21195896212E-01 0.16062846453E-01 0.12138977744E-01 0.92360626467E-02
 0.71706818709E-02 0.57193539253E-02 0.47285615585E-02 0.40586449315E-02 0.36347205535E-02
 0.33953339108E-02 0.33206226256E-02 0.33953339110E-02 0.36347205536E-02 0.40586449316E-02
 0.47285615573E-02 0.57193539252E-02 0.71706818706E-02 0.92360626469E-02 0.12138977744E-01
 0.16062846462E-01 0.21195896211E-01 0.27640536279E-01 0.35200950008E-01 0.43607386374E-01
 0.52331139467E-01 0.60541425554E-01 0.67299453625E-01 0.71755089793E-01 0.14958072515E+00
 0.14614733209E+00 0.13636366370E+00 0.12164038204E+00 0.10390895515E+00 0.85163481170E-01
 0.67118258081E-01 0.51077301559E-01 0.37761542292E-01 0.27208974196E-01 0.19252369137E-01
 0.13508331298E-01 0.94843218749E-02 0.67647092971E-02 0.49652413506E-02 0.38199239963E-02
 0.31198861438E-02 0.27492746195E-02 0.26302199349E-02 0.27492746201E-02 0.31198861429E-02
 0.38199239972E-02 0.49652413512E-02 0.67647092969E-02 0.94843218757E-02 0.13508331298E-01
 0.19252369137E-01 0.27208974193E-01 0.37761542292E-01 0.51077301559E-01 0.67118258082E-01
 0.85163481171E-01 0.10390895515E+00 0.12164038204E+00 0.13636366370E+00 0.14614733209E+00
 0.30711377709E+00 0.29955524227E+00 0.27806845720E+00 0.24588968982E+00 0.20747410519E+00