       N       E                     dE             d eps       ncg     rms          rms(c)
DAV:   1     0.530640293463E+04    0.53064E+04   -0.19893E+05 11436   0.280E+03
DAV:   2     0.716361585412E+03   -0.45900E+04   -0.42151E+04 11424   0.742E+02
DAV:   3    -0.215239523872E+03   -0.93160E+03   -0.79727E+03 11784   0.302E+02
DAV:   4    -0.293537866950E+03   -0.78298E+02   -0.77280E+02 12972   0.829E+01
DAV:   5    -0.294512177044E+03   -0.97431E+00   -0.97067E+00 12756   0.103E+01    0.809E+01
DAV:   6    -0.235231424496E+03    0.59281E+02   -0.25272E+02 14820   0.811E+01    0.912E+01
DAV:   7    -0.212071947499E+03    0.23159E+02   -0.11406E+02 12300   0.637E+01    0.437E+01
DAV:   8    -0.218321495804E+03   -0.62495E+01   -0.21463E+01 12120   0.173E+01    0.265E+01
DAV:   9    -0.222487058964E+03   -0.41656E+01   -0.81750E+00 12612   0.170E+01    0.270E+01
DAV:  10    -0.222160571996E+03    0.32649E+00   -0.24467E+00 12540   0.691E+00    0.185E+01
DAV:  11    -0.221601405041E+03    0.55917E+00   -0.22431E-01 14244   0.281E+00    0.122E+01
DAV:  12    -0.221398022385E+03    0.20338E+00   -0.19690E-01 15216   0.242E+00    0.838E+00
DAV:  13    -0.221399455224E+03   -0.14328E-02   -0.11387E-01 13920   0.225E+00    0.462E+00
DAV:  14    -0.221444268588E+03   -0.44813E-01   -0.15053E-01 14928   0.196E+00    0.181E+00
DAV:  15    -0.221462019555E+03   -0.17751E-01   -0.60252E-02 12780   0.666E-01    0.143E+00
DAV:  16    -0.221456909650E+03    0.51099E-02   -0.89714E-03 14460   0.706E-01    0.370E-01
DAV:  17    -0.221457498071E+03   -0.58842E-03   -0.48569E-03 12372   0.180E-01    0.198E-01
DAV:  18    -0.221457716174E+03   -0.21810E-03   -0.23660E-04 14232   0.865E-02    0.830E-02
DAV:  19    -0.221457775420E+03   -0.59246E-04   -0.10709E-04 13752   0.408E-02    0.195E-02
DAV:  20    -0.221457783478E+03   -0.80584E-05   -0.17361E-05 12456   0.156E-02    0.747E-03
DAV:  21    -0.221457783433E+03    0.44900E-07   -0.28091E-06 12228   0.658E-03    0.102E-02
DAV:  22    -0.221457784755E+03   -0.13220E-05   -0.11428E-06 11064   0.545E-03    0.500E-03
DAV:  23    -0.221457784028E+03    0.72720E-06   -0.20875E-07  8760   0.226E-03    0.136E-03
DAV:  24    -0.221457783154E+03    0.87395E-06   -0.66482E-08  6420   0.756E-04    0.567E-04
DAV:  25    -0.221457783186E+03   -0.31963E-07   -0.87331E-09  6216   0.430E-04
   1 F= -.22145778E+03 E0= -.22145778E+03  d E =0.000000E+00  mag=    42.3392
