 vasp.5.4.4.18Apr17-6-g9f103f2a35 (build Apr 28 2018 00:24:27) complex          
  
 executed on             LinuxIFC date 2021.09.06  03:48:40
 running on   24 total cores
 distrk:  each k-point on   24 cores,    1 groups
 distr:  one band on NCORES_PER_BAND=   4 cores,    6 groups


--------------------------------------------------------------------------------------------------------


 INCAR:
 POTCAR:    PAW_PBE Fe_pv 02Aug2007               
 POTCAR:    PAW_PBE O 08Apr2002                   
 POTCAR:    PAW_PBE Fe_pv 02Aug2007               
   VRHFIN =Fe:  3pd7s1                                                          
   LEXCH  = PE                                                                  
   EATOM  =  2457.4239 eV,  180.6156 Ry                                         
                                                                                
   TITEL  = PAW_PBE Fe_pv 02Aug2007                                             
   LULTRA =        F    use ultrasoft PP ?                                      
   IUNSCR =        1    unscreen: 0-lin 1-nonlin 2-no                           
   RPACOR =    1.750    partial core radius                                     
   POMASS =   55.847; ZVAL   =   14.000    mass and valenz                      
   RCORE  =    2.200    outmost cutoff radius                                   
   RWIGS  =    2.200; RWIGS  =    1.164    wigner-seitz radius (au A)           
   ENMAX  =  293.238; ENMIN  =  219.928 eV                                      
   ICORE  =        3    local potential                                         
   LCOR   =        T    correct aug charges                                     
   LPAW   =        T    paw PP                                                  
   EAUG   =  578.342                                                            
   DEXC   =    0.000                                                            
   RMAX   =    2.249    core radius for proj-oper                               
   RAUG   =    1.300    factor for augmentation sphere                          
   RDEP   =    2.296    radius for radial grids                                 
   RDEPT  =    1.766    core radius for aug-charge                              
                                                                                
   Atomic configuration                                                         
    8 entries                                                                   
     n  l   j            E        occ.                                          
     1  0  0.50     -6993.8440   2.0000                                         
     2  0  0.50      -814.6047   2.0000                                         
     2  1  1.50      -693.3689   6.0000                                         
     3  0  0.50       -89.4732   2.0000                                         
     3  1  1.50       -55.6373   6.0000                                         
     3  2  2.50        -3.8151   7.0000                                         
     4  0  0.50        -4.2551   1.0000                                         
     4  3  2.50        -1.3606   0.0000                                         
   Description                                                                  
     l       E           TYP  RCUT    TYP  RCUT                                 
     1    -55.6372668     23  2.000                                             
     1     -5.4423304     23  2.000                                             
     2     -3.8151096     23  2.200                                             
     2     -5.1756922     23  2.200                                             
     0     -4.2550951     23  2.200                                             
     0     27.2116520     23  2.200                                             
     3     -1.3605826     23  2.200                                             
  local pseudopotential read in
  partial core-charges read in
  partial kinetic energy density read in
  atomic valenz-charges read in
  non local Contribution for L=           1  read in
    real space projection operators read in
  non local Contribution for L=           1  read in
    real space projection operators read in
  non local Contribution for L=           2  read in
    real space projection operators read in
  non local Contribution for L=           2  read in
    real space projection operators read in
  non local Contribution for L=           0  read in
    real space projection operators read in
  non local Contribution for L=           0  read in
    real space projection operators read in
    PAW grid and wavefunctions read in
 
   number of l-projection  operators is LMAX  =           6
   number of lm-projection operators is LMMAX =          18
 
 POTCAR:    PAW_PBE O 08Apr2002                   
   VRHFIN =O: s2p4                                                              
   LEXCH  = PE                                                                  
   EATOM  =   432.3788 eV,   31.7789 Ry                                         
                                                                                
   TITEL  = PAW_PBE O 08Apr2002                                                 
   LULTRA =        F    use ultrasoft PP ?                                      
   IUNSCR =        1    unscreen: 0-lin 1-nonlin 2-no                           
   RPACOR =    1.200    partial core radius                                     
   POMASS =   16.000; ZVAL   =    6.000    mass and valenz                      
   RCORE  =    1.520    outmost cutoff radius                                   
   RWIGS  =    1.550; RWIGS  =    0.820    wigner-seitz radius (au A)           
   ENMAX  =  400.000; ENMIN  =  300.000 eV                                      
   ICORE  =        2    local potential                                         
   LCOR   =        T    correct aug charges                                     
   LPAW   =        T    paw PP                                                  
   EAUG   =  605.392                                                            
   DEXC   =    0.000                                                            
   RMAX   =    1.553    core radius for proj-oper                               
   RAUG   =    1.300    factor for augmentation sphere                          
   RDEP   =    1.550    radius for radial grids                                 
   RDEPT  =    1.329    core radius for aug-charge                              
                                                                                
   Atomic configuration                                                         
    4 entries                                                                   
     n  l   j            E        occ.                                          
     1  0  0.50      -514.6923   2.0000                                         
     2  0  0.50       -23.9615   2.0000                                         
     2  1  0.50        -9.0305   4.0000                                         
     3  2  1.50        -9.5241   0.0000                                         
   Description                                                                  
     l       E           TYP  RCUT    TYP  RCUT                                 
     0    -23.9615318     23  1.200                                             
     0     -9.5240782     23  1.200                                             
     1     -9.0304911     23  1.520                                             
     1      8.1634956     23  1.520                                             
     2     -9.5240782      7  1.500                                             
  local pseudopotential read in
  partial core-charges read in
  partial kinetic energy density read in
  kinetic energy density of atom read in
  atomic valenz-charges read in
  non local Contribution for L=           0  read in
    real space projection operators read in
  non local Contribution for L=           0  read in
    real space projection operators read in
  non local Contribution for L=           1  read in
    real space projection operators read in
  non local Contribution for L=           1  read in
    real space projection operators read in
    PAW grid and wavefunctions read in
 
   number of l-projection  operators is LMAX  =           4
   number of lm-projection operators is LMMAX =           8
 
 Optimization of the real space projectors (new method)

 maximal supplied QI-value         = 17.01
 optimisation between [QCUT,QGAM] = [ 15.99, 31.97] = [ 71.57,286.29] Ry 
 Optimized for a Real-space Cutoff    1.22 Angstroem

   l    n(q)    QCUT    max X(q) W(low)/X(q) W(high)/X(q)  e(spline) 
   1     11    15.987     4.267    0.11E-03    0.39E-03    0.33E-05
   1     11    15.987     5.750    0.16E-03    0.58E-03    0.49E-05
   2     11    15.987    53.656    0.87E-04    0.56E-04    0.50E-06
   2     11    15.987    49.521    0.88E-04    0.58E-04    0.51E-06
   0     12    15.987    31.246    0.33E-04    0.29E-04    0.40E-06
   0     12    15.987    12.201    0.21E-04    0.24E-04    0.33E-06
 Optimization of the real space projectors (new method)

 maximal supplied QI-value         = 24.76
 optimisation between [QCUT,QGAM] = [ 15.84, 31.93] = [ 70.29,285.58] Ry 
 Optimized for a Real-space Cutoff    0.96 Angstroem

   l    n(q)    QCUT    max X(q) W(low)/X(q) W(high)/X(q)  e(spline) 
   0      9    15.843    20.381    0.19E-03    0.13E-03    0.15E-06
   0      9    15.843    15.268    0.21E-03    0.14E-03    0.16E-06
   1      9    15.843     5.964    0.17E-03    0.19E-03    0.11E-06
   1      9    15.843     5.382    0.14E-03    0.16E-03    0.93E-07
  PAW_PBE Fe_pv 02Aug2007               :
 energy of atom  1       EATOM=-2457.4239
 kinetic energy error for atom=    0.0008 (will be added to EATOM!!)
  PAW_PBE O 08Apr2002                   :
 energy of atom  2       EATOM= -432.3788
 kinetic energy error for atom=    0.0022 (will be added to EATOM!!)
 
 
 POSCAR: Fe12 O18                                
  positions in direct lattice
  No initial velocities read in
 exchange correlation table for  LEXCH =        8
   RHO(1)=    0.500       N(1)  =     2000
   RHO(2)=  100.500       N(2)  =     4000
 


--------------------------------------------------------------------------------------------------------


 ion  position               nearest neighbor table
   1  0.000  0.000  0.355-  17 1.94  23 1.94  28 1.94  25 2.12  19 2.12  13 2.12
   2  0.000  0.000  0.645-  16 1.94  22 1.94  29 1.94  26 2.12  20 2.12  14 2.12
   3  0.333  0.667  0.022-  30 1.94  24 1.94  18 1.94  27 2.12  21 2.12  15 2.12
   4  0.667  0.333  0.689-  14 1.94  20 1.94  26 1.94  22 2.12  29 2.12  16 2.12
   5  0.333  0.667  0.311-  13 1.94  19 1.94  25 1.94  23 2.12  28 2.12  17 2.12
   6  0.667  0.333  0.978-  27 1.94  21 1.94  15 1.94  30 2.12  24 2.12  18 2.12
   7  0.000  0.000  0.145-  24 1.94  18 1.94  30 1.94  25 2.12  19 2.12  13 2.12
   8  0.000  0.000  0.855-  21 1.94  15 1.94  27 1.94  26 2.12  20 2.12  14 2.12
   9  0.333  0.667  0.811-  20 1.94  14 1.94  26 1.94  27 2.12  21 2.12  15 2.12
  10  0.333  0.667  0.522-  29 1.94  16 1.94  22 1.94  23 2.12  28 2.12  17 2.12
  11  0.667  0.333  0.478-  28 1.94  17 1.94  23 1.94  22 2.12  29 2.12  16 2.12
  12  0.667  0.333  0.189-  19 1.94  13 1.94  25 1.94  30 2.12  24 2.12  18 2.12
  13  0.306  0.000  0.250-   5 1.94  12 1.94   7 2.12   1 2.12
  14  0.694  0.000  0.750-   4 1.94   9 1.94   8 2.12   2 2.12
  15  0.640  0.667  0.917-   6 1.94   8 1.94   9 2.12   3 2.12
  16  0.973  0.333  0.583-  10 1.94   2 1.94   4 2.12  11 2.12
  17  0.027  0.667  0.417-  11 1.94   1 1.94   5 2.12  10 2.12
  18  0.360  0.333  0.083-   3 1.94   7 1.94  12 2.12   6 2.12
  19  0.000  0.306  0.250-  12 1.94   5 1.94   7 2.12   1 2.12
  20  0.000  0.694  0.750-   9 1.94   4 1.94   8 2.12   2 2.12
  21  0.333  0.973  0.917-   6 1.94   8 1.94   9 2.12   3 2.12
  22  0.667  0.640  0.583-  10 1.94   2 1.94   4 2.12  11 2.12
  23  0.333  0.360  0.417-  11 1.94   1 1.94   5 2.12  10 2.12
  24  0.667  0.027  0.083-   3 1.94   7 1.94  12 2.12   6 2.12
  25  0.694  0.694  0.250-  12 1.94   5 1.94   7 2.12   1 2.12
  26  0.306  0.306  0.750-   9 1.94   4 1.94   8 2.12   2 2.12
  27  0.027  0.360  0.917-   6 1.94   8 1.94   9 2.12   3 2.12
  28  0.640  0.973  0.417-  11 1.94   1 1.94   5 2.12  10 2.12
  29  0.360  0.027  0.583-  10 1.94   2 1.94   4 2.12  11 2.12
  30  0.973  0.640  0.083-   3 1.94   7 1.94  12 2.12   6 2.12
 
  LATTYP: Found a hexagonal cell.
 ALAT       =     5.0350995578
 C/A-ratio  =     2.7324385232
  
  Lattice vectors:
  
 A1 = (   5.0351000000,   0.0000000000,   0.0000000000)
 A2 = (  -2.5175500000,   4.3605240000,   0.0000000000)
 A3 = (   0.0000000000,   0.0000000000,  13.7581000000)


Analysis of symmetry for initial positions (statically):
=====================================================================
 Subroutine PRICEL returns following result:
 
  LATTYP: Found a trigonal (rhomboedric) cell.
 ALAT       =     5.4297801492
 COS(alpha) =     0.5700456062
  
  Lattice vectors:
  
 A1 = (  -2.5175449649,  -1.4535109070,  -4.5860425054)
 A2 = (  -0.0000025175,   2.9070174535,  -4.5860287473)
 A3 = (   2.5175474825,  -1.4535065465,  -4.5860287473)
 
   3 primitive cells build up your supercell.
 

 Routine SETGRP: Setting up the symmetry group for a 
 hexagonal supercell.


 Subroutine GETGRP returns: Found 12 space group operations
 (whereof  6 operations were pure point group operations)
 out of a pool of 24 trial point group operations.


The static configuration has the point symmetry S_6 .
 The point group associated with its full space group is D_3d.


Analysis of symmetry for dynamics (positions and initial velocities):
=====================================================================
 Subroutine PRICEL returns following result:
 
  LATTYP: Found a trigonal (rhomboedric) cell.
 ALAT       =     5.4297801492
 COS(alpha) =     0.5700456062
  
  Lattice vectors:
  
 A1 = (  -2.5175449649,  -1.4535109070,  -4.5860425054)
 A2 = (  -0.0000025175,   2.9070174535,  -4.5860287473)
 A3 = (   2.5175474825,  -1.4535065465,  -4.5860287473)
 
   3 primitive cells build up your supercell.
 

 Routine SETGRP: Setting up the symmetry group for a 
 hexagonal supercell.


 Subroutine GETGRP returns: Found 12 space group operations
 (whereof  6 operations were pure point group operations)
 out of a pool of 24 trial point group operations.


The dynamic configuration has the point symmetry S_6 .
 The point group associated with its full space group is D_3d.


Analysis of structural, dynamic, and magnetic symmetry:
=====================================================================
 Subroutine PRICEL returns following result:
 
  LATTYP: Found a trigonal (rhomboedric) cell.
 ALAT       =     5.4297801492
 COS(alpha) =     0.5700456062
  
  Lattice vectors:
  
 A1 = (  -2.5175449649,  -1.4535109070,  -4.5860425054)
 A2 = (  -0.0000025175,   2.9070174535,  -4.5860287473)
 A3 = (   2.5175474825,  -1.4535065465,  -4.5860287473)
 
   3 primitive cells build up your supercell.
 

 Routine SETGRP: Setting up the symmetry group for a 
 hexagonal supercell.


 Subroutine GETGRP returns: Found 12 space group operations
 (whereof  6 operations were pure point group operations)
 out of a pool of 24 trial point group operations.


The magnetic configuration has the point symmetry S_6 .
 The point group associated with its full space group is D_3d.


 Subroutine INISYM returns: Found 12 space group operations
 (whereof  6 operations are pure point group operations),
 and found     3 'primitive' translations

 
 
 KPOINTS: pymatgen with grid density = 2464 / numb

Automatic generation of k-mesh.
Space group operators:
 irot       det(A)        alpha          n_x          n_y          n_z        tau_x        tau_y        tau_z
    1     1.000000     0.000000     1.000000     0.000000     0.000000     0.000000     0.000000     0.000000
    2    -1.000000     0.000000     1.000000     0.000000     0.000000     0.000000     0.000000     0.000000
    3     1.000000   120.000000     0.000000     0.000000    -1.000000     0.000000     0.000000     0.000000
    4    -1.000000   120.000000     0.000000     0.000000    -1.000000     0.000000     0.000000     0.000000
    5     1.000000   120.000000     0.000000     0.000000     1.000000     0.000000     0.000000     0.000000
    6    -1.000000   120.000000     0.000000     0.000000     1.000000     0.000000     0.000000     0.000000
    7     1.000000   180.000000     1.000000     0.000000     0.000000     0.000001    -0.000000    -0.500000
    8    -1.000000   180.000000     1.000000     0.000000     0.000000     0.000001    -0.000000    -0.500000
    9     1.000000   180.000000     0.500000    -0.866025     0.000000     0.000000     0.000000    -0.500000
   10    -1.000000   180.000000     0.500000    -0.866025     0.000000     0.000000     0.000000    -0.500000
   11     1.000000   180.000000    -0.500000    -0.866025     0.000000     0.000000     0.000000    -0.500000
   12    -1.000000   180.000000    -0.500000    -0.866025     0.000000     0.000000     0.000000    -0.500000
 
 Subroutine IBZKPT returns following result:
 ===========================================
 
 Found     14 irreducible k-points:
 
 Following reciprocal coordinates:
            Coordinates               Weight
  0.000000  0.000000  0.000000      1.000000
  0.166667  0.000000  0.000000      6.000000
  0.333333  0.000000  0.000000      6.000000
  0.500000  0.000000  0.000000      3.000000
  0.166667  0.166667  0.000000      6.000000
  0.333333  0.166667  0.000000     12.000000
  0.333333  0.333333  0.000000      2.000000
  0.000000  0.000000  0.500000      1.000000
  0.166667  0.000000  0.500000      6.000000
  0.333333  0.000000  0.500000      6.000000
  0.500000  0.000000  0.500000      3.000000
  0.166667  0.166667  0.500000      6.000000
  0.333333  0.166667  0.500000     12.000000
  0.333333  0.333333  0.500000      2.000000
 
 Following cartesian coordinates:
            Coordinates               Weight
  0.000000  0.000000  0.000000      1.000000
  0.033101  0.019111  0.000000      6.000000
  0.066202  0.038222  0.000000      6.000000
  0.099303  0.057333  0.000000      3.000000
  0.033101  0.057333  0.000000      6.000000
  0.066202  0.076443  0.000000     12.000000
  0.066202  0.114665  0.000000      2.000000
  0.000000  0.000000  0.036342      1.000000
  0.033101  0.019111  0.036342      6.000000
  0.066202  0.038222  0.036342      6.000000
  0.099303  0.057333  0.036342      3.000000
  0.033101  0.057333  0.036342      6.000000
  0.066202  0.076443  0.036342     12.000000
  0.066202  0.114665  0.036342      2.000000
 
 TETIRR: Found     71 inequivalent tetrahedra from      432


--------------------------------------------------------------------------------------------------------




 Dimension of arrays:
   k-points           NKPTS =     14   k-points in BZ     NKDIM =     14   number of bands    NBANDS=    204
   number of dos      NEDOS =    301   number of ions     NIONS =     30
   non local maximal  LDIM  =      6   non local SUM 2l+1 LMDIM =     18
   total plane-waves  NPLWV = 408240
   max r-space proj   IRMAX =  10351   max aug-charges    IRDMAX=  40222
   dimension x,y,z NGX =    54 NGY =   54 NGZ =  140
   dimension x,y,z NGXF=   108 NGYF=  108 NGZF=  280
   support grid    NGXF=   108 NGYF=  108 NGZF=  280
   ions per type =              12  18
   NGX,Y,Z   is equivalent  to a cutoff of  17.83, 17.83, 16.92 a.u.
   NGXF,Y,Z  is equivalent  to a cutoff of  35.66, 35.66, 33.83 a.u.

 SYSTEM =  unknown system                          
 POSCAR =  Fe12 O18                                

 Startparameter for this run:
   NWRITE =      2    write-flag & timer
   PREC   = accura    normal or accurate (medium, high low for compatibility)
   ISTART =      0    job   : 0-new  1-cont  2-samecut
   ICHARG =      2    charge: 1-file 2-atom 10-const
   ISPIN  =      2    spin polarized calculation?
   LNONCOLLINEAR =      F non collinear calculations
   LSORBIT =      F    spin-orbit coupling
   INIWAV =      1    electr: 0-lowe 1-rand  2-diag
   LASPH  =      F    aspherical Exc in radial PAW
   METAGGA=      F    non-selfconsistent MetaGGA calc.

 Electronic Relaxation 1
   ENCUT  =  980.0 eV  72.03 Ry    8.49 a.u.  12.85 12.85 35.12*2*pi/ulx,y,z
   ENINI  =  980.0     initial cutoff
   ENAUG  =  605.4 eV  augmentation charge cutoff
   NELM   =    100;   NELMIN=  2; NELMDL= -5     # of ELM steps 
   EDIFF  = 0.1E-06   stopping-criterion for ELM
   LREAL  =      T    real-space projection
   NLSPLINE    = F    spline interpolate recip. space projectors
   LCOMPAT=      F    compatible to vasp.4.4
   GGA_COMPAT  = T    GGA compatible to vasp.4.4-vasp.4.6
   LMAXPAW     = -100 max onsite density
   LMAXMIX     =    2 max onsite mixed and CHGCAR
   VOSKOWN=      0    Vosko Wilk Nusair interpolation
   ROPT   =   -0.00025  -0.00025
 Ionic relaxation
   EDIFFG = 0.1E-05   stopping-criterion for IOM
   NSW    =      0    number of steps for IOM
   NBLOCK =      1;   KBLOCK =      1    inner block; outer block 
   IBRION =     -1    ionic relax: 0-MD 1-quasi-New 2-CG
   NFREE  =      0    steps in history (QN), initial steepest desc. (CG)
   ISIF   =      3    stress and relaxation
   IWAVPR =     10    prediction:  0-non 1-charg 2-wave 3-comb
   ISYM   =      2    0-nonsym 1-usesym 2-fastsym
   LCORR  =      T    Harris-Foulkes like correction to forces

   POTIM  = 0.5000    time-step for ionic-motion
   TEIN   =    0.0    initial temperature
   TEBEG  =    0.0;   TEEND  =   0.0 temperature during run
   SMASS  =  -3.00    Nose mass-parameter (am)
   estimated Nose-frequenzy (Omega)   =  0.10E-29 period in steps =****** mass=  -0.579E-27a.u.
   SCALEE = 1.0000    scale energy and forces
   NPACO  =    256;   APACO  = 16.0  distance and # of slots for P.C.
   PSTRESS=    0.0 pullay stress

  Mass of Ions in am
   POMASS =  55.85 16.00
  Ionic Valenz
   ZVAL   =  14.00  6.00
  Atomic Wigner-Seitz radii
   RWIGS  =  -1.00 -1.00
  virtual crystal weights 
   VCA    =   1.00  1.00
   NELECT =     276.0000    total number of electrons
   NUPDOWN=      -1.0000    fix difference up-down

 DOS related values:
   EMIN   =  10.00;   EMAX   =-10.00  energy-range for DOS
   EFERMI =   0.00
   ISMEAR =    -5;   SIGMA  =   0.05  broadening in eV -4-tet -1-fermi 0-gaus

 Electronic relaxation 2 (details)
   IALGO  =     38    algorithm
   LDIAG  =      T    sub-space diagonalisation (order eigenvalues)
   LSUBROT=      F    optimize rotation matrix (better conditioning)
   TURBO    =      0    0=normal 1=particle mesh
   IRESTART =      0    0=no restart 2=restart with 2 vectors
   NREBOOT  =      0    no. of reboots
   NMIN     =      0    reboot dimension
   EREF     =   0.00    reference energy to select bands
   IMIX   =      4    mixing-type and parameters
     AMIX     =   0.40;   BMIX     =  1.00
     AMIX_MAG =   1.60;   BMIX_MAG =  1.00
     AMIN     =   0.10
     WC   =   100.;   INIMIX=   1;  MIXPRE=   1;  MAXMIX= -45

 Intra band minimization:
   WEIMIN = 0.0000     energy-eigenvalue tresh-hold
   EBREAK =  0.12E-09  absolut break condition
   DEPER  =   0.30     relativ break condition  

   TIME   =   0.40     timestep for ELM

  volume/ion in A,a.u.               =      10.07        67.95
  Fermi-wavevector in a.u.,A,eV,Ry     =   1.588581  3.001983 34.335534  2.523591
  Thomas-Fermi vector in A             =   2.687563
 
 Write flags
   LWAVE        =      F    write WAVECAR
   LDOWNSAMPLE  =      F    k-point downsampling of WAVECAR
   LCHARG       =      F    write CHGCAR
   LVTOT        =      F    write LOCPOT, total local potential
   LVHAR        =      F    write LOCPOT, Hartree potential only
   LELF         =      F    write electronic localiz. function (ELF)
   LORBIT       =     11    0 simple, 1 ext, 2 COOP (PROOUT), +10 PAW based schemes


 Dipole corrections
   LMONO  =      F    monopole corrections only (constant potential shift)
   LDIPOL =      F    correct potential (dipole corrections)
   IDIPOL =      0    1-x, 2-y, 3-z, 4-all directions 
   EPSILON=  1.0000000 bulk dielectric constant

 Exchange correlation treatment:
   GGA     =    --    GGA type
   LEXCH   =     8    internal setting for exchange type
   VOSKOWN=      0    Vosko Wilk Nusair interpolation
   LHFCALC =     F    Hartree Fock is set to
   LHFONE  =     F    Hartree Fock one center treatment
   AEXX    =    0.0000 exact exchange contribution

 Linear response parameters
   LEPSILON=     F    determine dielectric tensor
   LRPA    =     F    only Hartree local field effects (RPA)
   LNABLA  =     F    use nabla operator in PAW spheres
   LVEL    =     F    velocity operator in full k-point grid
   LINTERFAST=   F  fast interpolation
   KINTER  =     0    interpolate to denser k-point grid
   CSHIFT  =0.1000    complex shift for real part using Kramers Kronig
   OMEGAMAX=  -1.0    maximum frequency
   DEG_THRESHOLD= 0.2000000E-02 threshold for treating states as degnerate
   RTIME   =   -0.100 relaxation time in fs
  (WPLASMAI=    0.000 imaginary part of plasma frequency in eV, 0.658/RTIME)
   DFIELD  = 0.0000000 0.0000000 0.0000000 field for delta impulse in time
 
 Orbital magnetization related:
   ORBITALMAG=     F  switch on orbital magnetization
   LCHIMAG   =     F  perturbation theory with respect to B field
   DQ        =  0.001000  dq finite difference perturbation B field
   LLRAUG    =     F  two centre corrections for induced B field



--------------------------------------------------------------------------------------------------------


 Static calculation
 charge density and potential will be updated during run
 spin polarized calculation
 Variant of blocked Davidson
 Davidson routine will perform the subspace rotation
 perform sub-space diagonalisation
    after iterative eigenvector-optimisation
 modified Broyden-mixing scheme, WC =      100.0
 initial mixing is a Kerker type mixing with AMIX =  0.4000 and BMIX =      1.0000
 Hartree-type preconditioning will be used
 using additional bands           66
 real space projection scheme for non local part
 use partial core corrections
 calculate Harris-corrections to forces 
   (improved forces if not selfconsistent)
 use gradient corrections 
 use of overlap-Matrix (Vanderbilt PP)
 Fermi weights with tetrahedron method with Bloechl corrections


--------------------------------------------------------------------------------------------------------


  energy-cutoff  :      980.00
  volume of cell :      302.07
      direct lattice vectors                 reciprocal lattice vectors
     5.035100000  0.000000000  0.000000000     0.198605787  0.114665118  0.000000000
    -2.517550000  4.360524000  0.000000000     0.000000000  0.229330236  0.000000000
     0.000000000  0.000000000 13.758100000     0.000000000  0.000000000  0.072684455

  length of vectors
     5.035100000  5.035099558 13.758100000     0.229330216  0.229330236  0.072684455


 
 k-points in units of 2pi/SCALE and weight: pymatgen with grid density = 2464 / numb
   0.00000000  0.00000000  0.00000000       0.014
   0.03310096  0.01911085  0.00000000       0.083
   0.06620193  0.03822171  0.00000000       0.083
   0.09930289  0.05733256  0.00000000       0.042
   0.03310096  0.05733256  0.00000000       0.083
   0.06620193  0.07644341  0.00000000       0.167
   0.06620193  0.11466512  0.00000000       0.028
   0.00000000  0.00000000  0.03634223       0.014
   0.03310096  0.01911085  0.03634223       0.083
   0.06620193  0.03822171  0.03634223       0.083
   0.09930289  0.05733256  0.03634223       0.042
   0.03310096  0.05733256  0.03634223       0.083
   0.06620193  0.07644341  0.03634223       0.167
   0.06620193  0.11466512  0.03634223       0.028
 
 k-points in reciprocal lattice and weights: pymatgen with grid density = 2464 / numb
   0.00000000  0.00000000  0.00000000       0.014
   0.16666667  0.00000000  0.00000000       0.083
   0.33333333  0.00000000  0.00000000       0.083
   0.50000000  0.00000000  0.00000000       0.042
   0.16666667  0.16666667  0.00000000       0.083
   0.33333333  0.16666667  0.00000000       0.167
   0.33333333  0.33333333  0.00000000       0.028
   0.00000000  0.00000000  0.50000000       0.014
   0.16666667  0.00000000  0.50000000       0.083
   0.33333333  0.00000000  0.50000000       0.083
   0.50000000  0.00000000  0.50000000       0.042
   0.16666667  0.16666667  0.50000000       0.083
   0.33333333  0.16666667  0.50000000       0.167
   0.33333333  0.33333333  0.50000000       0.028
 
 position of ions in fractional coordinates (direct lattice) 
   0.00000000  0.00000000  0.35532000
   0.00000000  0.00000000  0.64468000
   0.33333300  0.66666700  0.02198700
   0.66666700  0.33333300  0.68865300
   0.33333300  0.66666700  0.31134700
   0.66666700  0.33333300  0.97801300
   0.00000000  0.00000000  0.14468000
   0.00000000  0.00000000  0.85532000
   0.33333300  0.66666700  0.81134700
   0.33333300  0.66666700  0.52198700
   0.66666700  0.33333300  0.47801300
   0.66666700  0.33333300  0.18865300
   0.30618000  0.00000000  0.25000000
   0.69382000  0.00000000  0.75000000
   0.63951300  0.66666700  0.91666700
   0.97284700  0.33333300  0.58333300
   0.02715300  0.66666700  0.41666700
   0.36048700  0.33333300  0.08333300
   0.00000000  0.30618000  0.25000000
   0.00000000  0.69382000  0.75000000
   0.33333300  0.97284700  0.91666700
   0.66666700  0.63951300  0.58333300
   0.33333300  0.36048700  0.41666700
   0.66666700  0.02715300  0.08333300
   0.69382000  0.69382000  0.25000000
   0.30618000  0.30618000  0.75000000
   0.02715300  0.36048700  0.91666700
   0.63951300  0.97284700  0.41666700
   0.36048700  0.02715300  0.58333300
   0.97284700  0.63951300  0.08333300
 
 position of ions in cartesian coordinates  (Angst):
   0.00000000  0.00000000  4.88852809
   0.00000000  0.00000000  8.86957191
  -0.00000252  2.90701745  0.30249934
   2.51755252  1.45350655  9.47455684
  -0.00000252  2.90701745  4.28354316
   2.51755252  1.45350655 13.45560066
   0.00000000  0.00000000  1.99052191
   0.00000000  0.00000000 11.76757809
  -0.00000252  2.90701745 11.16259316
  -0.00000252  2.90701745  7.18154934
   2.51755252  1.45350655  6.57655066
   2.51755252  1.45350655  2.59550684
   1.54164692  0.00000000  3.43952500
   3.49345308  0.00000000 10.31857500
   1.54164440  2.90701745 12.61159625
   4.05919944  1.45350655  8.02555375
  -1.54164944  2.90701745  5.73254625
   0.97590560  1.45350655  1.14650375
  -0.77082346  1.33510524  3.43952500
  -1.74672654  3.02541876 10.31857500
  -0.77082598  4.24212269 12.61159625
   1.74672906  2.78861178  8.02555375
   0.77082094  1.57191222  5.73254625
   3.28837598  0.11840131  1.14650375
   1.74672654  3.02541876  3.43952500
   0.77082346  1.33510524 10.31857500
  -0.77082598  1.57191222 12.61159625
   0.77082094  4.24212269  5.73254625
   1.74672906  0.11840131  8.02555375
   3.28837598  2.78861178  1.14650375
 


--------------------------------------------------------------------------------------------------------


 k-point  1 :   0.0000 0.0000 0.0000  plane waves:   21041
 k-point  2 :   0.1667 0.0000 0.0000  plane waves:   21044
 k-point  3 :   0.3333 0.0000 0.0000  plane waves:   21028
 k-point  4 :   0.5000 0.0000 0.0000  plane waves:   21110
 k-point  5 :   0.1667 0.1667 0.0000  plane waves:   21013
 k-point  6 :   0.3333 0.1667 0.0000  plane waves:   21043
 k-point  7 :   0.3333 0.3333 0.0000  plane waves:   21069
 k-point  8 :   0.0000 0.0000 0.5000  plane waves:   20938
 k-point  9 :   0.1667 0.0000 0.5000  plane waves:   21022
 k-point 10 :   0.3333 0.0000 0.5000  plane waves:   21060
 k-point 11 :   0.5000 0.0000 0.5000  plane waves:   21060
 k-point 12 :   0.1667 0.1667 0.5000  plane waves:   21058
 k-point 13 :   0.3333 0.1667 0.5000  plane waves:   21042
 k-point 14 :   0.3333 0.3333 0.5000  plane waves:   21090

 maximum and minimum number of plane-waves per node :      5293     5206

 maximum number of plane-waves:     21110
 maximum index in each direction: 
   IXMAX=   12   IYMAX=   12   IZMAX=   35
   IXMIN=  -13   IYMIN=  -13   IZMIN=  -35


 real space projection operators:
  total allocation   :      22350.38 KBytes
  max/ min on nodes  :       5795.25       5365.75


 parallel 3D FFT for wavefunctions:
    minimum data exchange during FFTs selected (reduces bandwidth)
 parallel 3D FFT for charge:
    minimum data exchange during FFTs selected (reduces bandwidth)


 total amount of memory used by VASP MPI-rank0   153245. kBytes
=======================================================================

   base      :      30000. kBytes
   nonlr-proj:      12409. kBytes
   fftplans  :       8137. kBytes
   grid      :      20656. kBytes
   one-center:        248. kBytes
   wavefun   :      81795. kBytes
 
     INWAV:  cpu time    0.0000: real time    0.0001
 Broyden mixing: mesh for mixing (old mesh)
   NGX = 25   NGY = 25   NGZ = 71
  (NGX  =108   NGY  =108   NGZ  =280)
  gives a total of  44375 points

 initial charge density was supplied:
 charge density of overlapping atoms calculated
 number of electron     276.0000000 magnetization      70.8000000
 keeping initial charge density in first step


--------------------------------------------------------------------------------------------------------


 Maximum index for non-local projection operator         2739
 Maximum index for augmentation-charges         2160 (set IRDMAX)


--------------------------------------------------------------------------------------------------------


 First call to EWALD:  gamma=   0.264
 Maximum number of real-space cells 4x 4x 2
 Maximum number of reciprocal cells 2x 2x 5

    FEWALD:  cpu time    0.0019: real time    0.0020


--------------------------------------- Iteration      1(   1)  ---------------------------------------


    POTLOK:  cpu time    0.2030: real time    0.2045
    SETDIJ:  cpu time    0.0216: real time    0.0217
     EDDAV:  cpu time   26.9596: real time   27.0495
 BZINTS: Fermi energy: 34.561058;276.000000 electrons
         Band energy:2289.724303;  BLOECHL correction: -0.131121
       DOS:  cpu time    0.0465: real time    0.0466
    --------------------------------------------
      LOOP:  cpu time   27.2307: real time   27.3223

 eigenvalue-minimisations  : 11436
 total energy-change (2. order) : 0.5306403E+04  (-0.1989341E+05)
 number of electron     276.0000000 magnetization      70.8000000
 augmentation part      276.0000000 magnetization      70.8000000

 Free energy of the ion-electron system (eV)
  ---------------------------------------------------
  alpha Z        PSCENC =      1362.55286497
  Ewald energy   TEWEN  =    -25513.06237826
  -Hartree energ DENC   =    -10371.14386019
  -exchange      EXHF   =         0.00000000
  -V(xc)+E(xc)   XCENC  =      1375.27777495
  PAW double counting   =     30224.59406688   -31333.39571732
  entropy T*S    EENTRO =         0.00000000
  eigenvalues    EBANDS =      2289.72430342
  atomic energy  EATOM  =     37271.85588019
  Solvation  Ediel_sol  =         0.00000000
  ---------------------------------------------------
  free energy    TOTEN  =      5306.40293463 eV

  energy without entropy =     5306.40293463  energy(sigma->0) =     5306.40293463


--------------------------------------------------------------------------------------------------------




--------------------------------------- Iteration      1(   2)  ---------------------------------------


     EDDAV:  cpu time   26.7500: real time   26.8286
 BZINTS: Fermi energy: 12.566238;276.000000 electrons
         Band energy:***********;  BLOECHL correction: -0.032361
       DOS:  cpu time    0.0484: real time    0.0485
    --------------------------------------------
      LOOP:  cpu time   26.7984: real time   26.8771

 eigenvalue-minimisations  : 11424
 total energy-change (2. order) :-0.4590041E+04  (-0.4215126E+04)
 number of electron     276.0000000 magnetization      70.8000000
 augmentation part      276.0000000 magnetization      70.8000000

 Free energy of the ion-electron system (eV)
  ---------------------------------------------------
  alpha Z        PSCENC =      1362.55286497
  Ewald energy   TEWEN  =    -25513.06237826
  -Hartree energ DENC   =    -10371.14386019
  -exchange      EXHF   =         0.00000000
  -V(xc)+E(xc)   XCENC  =      1375.27777495
  PAW double counting   =     30224.59406688   -31333.39571732
  entropy T*S    EENTRO =         0.00000000
  eigenvalues    EBANDS =     -2300.31704580
  atomic energy  EATOM  =     37271.85588019
  Solvation  Ediel_sol  =         0.00000000
  ---------------------------------------------------
  free energy    TOTEN  =       716.36158541 eV

  energy without entropy =      716.36158541  energy(sigma->0) =      716.36158541


--------------------------------------------------------------------------------------------------------




--------------------------------------- Iteration      1(   3)  ---------------------------------------


     EDDAV:  cpu time   27.3800: real time   27.4683
 BZINTS: Fermi energy:  8.835442;276.000000 electrons
         Band energy:***********;  BLOECHL correction:  0.000000
       DOS:  cpu time    0.0076: real time    0.0076
    --------------------------------------------
      LOOP:  cpu time   27.3876: real time   27.4759

 eigenvalue-minimisations  : 11784
 total energy-change (2. order) :-0.9316011E+03  (-0.7972674E+03)
 number of electron     276.0000000 magnetization      70.8000000
 augmentation part      276.0000000 magnetization      70.8000000

 Free energy of the ion-electron system (eV)
  ---------------------------------------------------
  alpha Z        PSCENC =      1362.55286497
  Ewald energy   TEWEN  =    -25513.06237826
  -Hartree energ DENC   =    -10371.14386019
  -exchange      EXHF   =         0.00000000
  -V(xc)+E(xc)   XCENC  =      1375.27777495
  PAW double counting   =     30224.59406688   -31333.39571732
  entropy T*S    EENTRO =         0.00000000
  eigenvalues    EBANDS =     -3231.91815509
  atomic energy  EATOM  =     37271.85588019
  Solvation  Ediel_sol  =         0.00000000
  ---------------------------------------------------
  free energy    TOTEN  =      -215.23952387 eV

  energy without entropy =     -215.23952387  energy(sigma->0) =     -215.23952387


--------------------------------------------------------------------------------------------------------




--------------------------------------- Iteration      1(   4)  ---------------------------------------


     EDDAV:  cpu time   29.5063: real time   29.5938
 BZINTS: Fermi energy:  8.235678;276.000000 electrons
         Band energy:***********;  BLOECHL correction:  0.000000
       DOS:  cpu time    0.0066: real time    0.0066
    --------------------------------------------
      LOOP:  cpu time   29.5129: real time   29.6004

 eigenvalue-minimisations  : 12972
 total energy-change (2. order) :-0.7829834E+02  (-0.7727999E+02)
 number of electron     276.0000000 magnetization      70.8000000
 augmentation part      276.0000000 magnetization      70.8000000

 Free energy of the ion-electron system (eV)
  ---------------------------------------------------
  alpha Z        PSCENC =      1362.55286497
  Ewald energy   TEWEN  =    -25513.06237826
  -Hartree energ DENC   =    -10371.14386019
  -exchange      EXHF   =         0.00000000
  -V(xc)+E(xc)   XCENC  =      1375.27777495
  PAW double counting   =     30224.59406688   -31333.39571732
  entropy T*S    EENTRO =         0.00000000
  eigenvalues    EBANDS =     -3310.21649816
  atomic energy  EATOM  =     37271.85588019
  Solvation  Ediel_sol  =         0.00000000
  ---------------------------------------------------
  free energy    TOTEN  =      -293.53786695 eV

  energy without entropy =     -293.53786695  energy(sigma->0) =     -293.53786695


--------------------------------------------------------------------------------------------------------




--------------------------------------- Iteration      1(   5)  ---------------------------------------


     EDDAV:  cpu time   28.3369: real time   28.4122
 BZINTS: Fermi energy:  8.318977;276.000000 electrons
         Band energy:***********;  BLOECHL correction:  0.000000
       DOS:  cpu time    0.0076: real time    0.0076
    CHARGE:  cpu time    1.2871: real time    1.2905
    MIXING:  cpu time    0.0040: real time    0.0041
    --------------------------------------------
      LOOP:  cpu time   29.6357: real time   29.7144

 eigenvalue-minimisations  : 12756
 total energy-change (2. order) :-0.9743101E+00  (-0.9706679E+00)
 number of electron     275.9999985 magnetization      67.8179405
 augmentation part      108.0134346 magnetization      47.0442576

 Broyden mixing:
  rms(total) = 0.80919E+01    rms(broyden)= 0.80919E+01
  rms(prec ) = 0.88379E+01
  weight for this iteration     100.00

 Free energy of the ion-electron system (eV)
  ---------------------------------------------------
  alpha Z        PSCENC =      1362.55286497
  Ewald energy   TEWEN  =    -25513.06237826
  -Hartree energ DENC   =    -10371.14386019
  -exchange      EXHF   =         0.00000000
  -V(xc)+E(xc)   XCENC  =      1375.27777495
  PAW double counting   =     30224.59406688   -31333.39571732
  entropy T*S    EENTRO =         0.00000000
  eigenvalues    EBANDS =     -3311.19080826
  atomic energy  EATOM  =     37271.85588019
  Solvation  Ediel_sol  =         0.00000000
  ---------------------------------------------------
  free energy    TOTEN  =      -294.51217704 eV

  energy without entropy =     -294.51217704  energy(sigma->0) =     -294.51217704


--------------------------------------------------------------------------------------------------------




--------------------------------------- Iteration      1(   6)  ---------------------------------------


    POTLOK:  cpu time    0.1896: real time    0.1902
    SETDIJ:  cpu time    0.0193: real time    0.0194
     EDDAV:  cpu time   32.0144: real time   32.0962
 BZINTS: Fermi energy:  5.534861;276.000000 electrons
         Band energy:***********;  BLOECHL correction: -0.054738
       DOS:  cpu time    0.0514: real time    0.0515
    CHARGE:  cpu time    1.3154: real time    1.3186
    MIXING:  cpu time    0.0041: real time    0.0042
    --------------------------------------------
      LOOP:  cpu time   33.5942: real time   33.6801

 eigenvalue-minimisations  : 14820
 total energy-change (2. order) : 0.5928075E+02  (-0.2527174E+02)
 number of electron     275.9999991 magnetization      62.9798839
 augmentation part      120.6996568 magnetization      54.4111455

 Broyden mixing:
  rms(total) = 0.91160E+01    rms(broyden)= 0.91160E+01
  rms(prec ) = 0.97640E+01
  weight for this iteration     100.00

 eigenvalues of (default mixing * dielectric matrix)
  average eigenvalue GAMMA=   0.3188
  0.3188

 Free energy of the ion-electron system (eV)
  ---------------------------------------------------
  alpha Z        PSCENC =      1362.55286497
  Ewald energy   TEWEN  =    -25513.06237826
  -Hartree energ DENC   =     -9965.67723589
  -exchange      EXHF   =         0.00000000
  -V(xc)+E(xc)   XCENC  =      1376.63561698
  PAW double counting   =     31435.09272076   -32501.99357412
  entropy T*S    EENTRO =         0.00000000
  eigenvalues    EBANDS =     -3700.63531912
  atomic energy  EATOM  =     37271.85588019
  Solvation  Ediel_sol  =         0.00000000
  ---------------------------------------------------
  free energy    TOTEN  =      -235.23142450 eV

  energy without entropy =     -235.23142450  energy(sigma->0) =     -235.23142450


--------------------------------------------------------------------------------------------------------




--------------------------------------- Iteration      1(   7)  ---------------------------------------


    POTLOK:  cpu time    0.1878: real time    0.1907
    SETDIJ:  cpu time    0.0192: real time    0.0193
     EDDAV:  cpu time   27.6373: real time   27.7091
 BZINTS: Fermi energy:  7.078254;276.000000 electrons
         Band energy:***********;  BLOECHL correction: -0.036410
       DOS:  cpu time    0.0480: real time    0.0482
    CHARGE:  cpu time    1.2176: real time    1.2207
    MIXING:  cpu time    0.0039: real time    0.0039
    --------------------------------------------
      LOOP:  cpu time   29.1138: real time   29.1919

 eigenvalue-minimisations  : 12300
 total energy-change (2. order) : 0.2315948E+02  (-0.1140609E+02)
 number of electron     275.9999987 magnetization      58.7843932
 augmentation part      109.3451420 magnetization      40.3339450

 Broyden mixing:
  rms(total) = 0.43688E+01    rms(broyden)= 0.43688E+01
  rms(prec ) = 0.45284E+01
  weight for this iteration     100.00

 eigenvalues of (default mixing * dielectric matrix)
  average eigenvalue GAMMA=   0.6787
  1.0269  0.3305

 Free energy of the ion-electron system (eV)
  ---------------------------------------------------
  alpha Z        PSCENC =      1362.55286497
  Ewald energy   TEWEN  =    -25513.06237826
  -Hartree energ DENC   =    -10207.44900753
  -exchange      EXHF   =         0.00000000
  -V(xc)+E(xc)   XCENC  =      1372.38045780
  PAW double counting   =     32866.88172447   -33995.30525281
  entropy T*S    EENTRO =         0.00000000
  eigenvalues    EBANDS =     -3369.92623633
  atomic energy  EATOM  =     37271.85588019
  Solvation  Ediel_sol  =         0.00000000
  ---------------------------------------------------
  free energy    TOTEN  =      -212.07194750 eV

  energy without entropy =     -212.07194750  energy(sigma->0) =     -212.07194750


--------------------------------------------------------------------------------------------------------




--------------------------------------- Iteration      1(   8)  ---------------------------------------


    POTLOK:  cpu time    0.1796: real time    0.1803
    SETDIJ:  cpu time    0.0177: real time    0.0178
     EDDAV:  cpu time   26.2646: real time   26.3313
 BZINTS: Fermi energy:  6.444754;276.000000 electrons
         Band energy:***********;  BLOECHL correction: -0.034115
       DOS:  cpu time    0.0492: real time    0.0493
    CHARGE:  cpu time    1.2669: real time    1.2701
    MIXING:  cpu time    0.0042: real time    0.0042
    --------------------------------------------
      LOOP:  cpu time   27.7823: real time   27.8529

 eigenvalue-minimisations  : 12120
 total energy-change (2. order) :-0.6249548E+01  (-0.2146288E+01)
 number of electron     275.9999987 magnetization      51.9548739
 augmentation part      111.2666665 magnetization      35.0372652

 Broyden mixing:
  rms(total) = 0.26515E+01    rms(broyden)= 0.26515E+01
  rms(prec ) = 0.27116E+01
  weight for this iteration     100.00

 eigenvalues of (default mixing * dielectric matrix)
  average eigenvalue GAMMA=   1.0713
  2.2508  0.5794  0.3838

 Free energy of the ion-electron system (eV)
  ---------------------------------------------------
  alpha Z        PSCENC =      1362.55286497
  Ewald energy   TEWEN  =    -25513.06237826
  -Hartree energ DENC   =    -10072.25727313
  -exchange      EXHF   =         0.00000000
  -V(xc)+E(xc)   XCENC  =      1366.36324111
  PAW double counting   =     34223.07587288   -35363.21361902
  entropy T*S    EENTRO =         0.00000000
  eigenvalues    EBANDS =     -3493.63608455
  atomic energy  EATOM  =     37271.85588019
  Solvation  Ediel_sol  =         0.00000000
  ---------------------------------------------------
  free energy    TOTEN  =      -218.32149580 eV

  energy without entropy =     -218.32149580  energy(sigma->0) =     -218.32149580


--------------------------------------------------------------------------------------------------------




--------------------------------------- Iteration      1(   9)  ---------------------------------------


    POTLOK:  cpu time    0.1868: real time    0.1879
    SETDIJ:  cpu time    0.0191: real time    0.0192
     EDDAV:  cpu time   27.5972: real time   27.6740
 BZINTS: Fermi energy:  5.882450;276.000000 electrons
         Band energy:***********;  BLOECHL correction: -0.038219
       DOS:  cpu time    0.0511: real time    0.0512
    CHARGE:  cpu time    1.2751: real time    1.2783
    MIXING:  cpu time    0.0045: real time    0.0045
    --------------------------------------------
      LOOP:  cpu time   29.1338: real time   29.2150

 eigenvalue-minimisations  : 12612
 total energy-change (2. order) :-0.4165563E+01  (-0.8175012E+00)
 number of electron     275.9999989 magnetization      50.9209072
 augmentation part      114.1179606 magnetization      37.7804497

 Broyden mixing:
  rms(total) = 0.26971E+01    rms(broyden)= 0.26971E+01
  rms(prec ) = 0.28257E+01
  weight for this iteration     100.00

 eigenvalues of (default mixing * dielectric matrix)
  average eigenvalue GAMMA=   1.1014
  2.8495  0.8033  0.3764  0.3764

 Free energy of the ion-electron system (eV)
  ---------------------------------------------------
  alpha Z        PSCENC =      1362.55286497
  Ewald energy   TEWEN  =    -25513.06237826
  -Hartree energ DENC   =     -9933.86439129
  -exchange      EXHF   =         0.00000000
  -V(xc)+E(xc)   XCENC  =      1362.36479123
  PAW double counting   =     36502.14721484   -37671.07064118
  entropy T*S    EENTRO =         0.00000000
  eigenvalues    EBANDS =     -3603.41039946
  atomic energy  EATOM  =     37271.85588019
  Solvation  Ediel_sol  =         0.00000000
  ---------------------------------------------------
  free energy    TOTEN  =      -222.48705896 eV

  energy without entropy =     -222.48705896  energy(sigma->0) =     -222.48705896


--------------------------------------------------------------------------------------------------------




--------------------------------------- Iteration      1(  10)  ---------------------------------------


    POTLOK:  cpu time    0.1862: real time    0.1874
    SETDIJ:  cpu time    0.0191: real time    0.0191
     EDDAV:  cpu time   27.5589: real time   27.6334
 BZINTS: Fermi energy:  5.959250;276.000000 electrons
         Band energy:***********;  BLOECHL correction: -0.037059
       DOS:  cpu time    0.0483: real time    0.0484
    CHARGE:  cpu time    1.2212: real time    1.2244
    MIXING:  cpu time    0.0041: real time    0.0041
    --------------------------------------------
      LOOP:  cpu time   29.0378: real time   29.1169

 eigenvalue-minimisations  : 12540
 total energy-change (2. order) : 0.3264870E+00  (-0.2446725E+00)
 number of electron     275.9999989 magnetization      50.6175150
 augmentation part      113.4119063 magnetization      37.3013194

 Broyden mixing:
  rms(total) = 0.18538E+01    rms(broyden)= 0.18538E+01
  rms(prec ) = 0.19639E+01
  weight for this iteration     100.00

 eigenvalues of (default mixing * dielectric matrix)
  average eigenvalue GAMMA=   1.0180
  2.6171  0.3742  0.7704  0.6641  0.6641

 Free energy of the ion-electron system (eV)
  ---------------------------------------------------
  alpha Z        PSCENC =      1362.55286497
  Ewald energy   TEWEN  =    -25513.06237826
  -Hartree energ DENC   =     -9949.26648768
  -exchange      EXHF   =         0.00000000
  -V(xc)+E(xc)   XCENC  =      1360.91687000
  PAW double counting   =     36541.96499491   -37714.28798973
  entropy T*S    EENTRO =         0.00000000
  eigenvalues    EBANDS =     -3582.83432639
  atomic energy  EATOM  =     37271.85588019
  Solvation  Ediel_sol  =         0.00000000
  ---------------------------------------------------
  free energy    TOTEN  =      -222.16057200 eV

  energy without entropy =     -222.16057200  energy(sigma->0) =     -222.16057200


--------------------------------------------------------------------------------------------------------




--------------------------------------- Iteration      1(  11)  ---------------------------------------


    POTLOK:  cpu time    0.1801: real time    0.1807
    SETDIJ:  cpu time    0.0180: real time    0.0180
     EDDAV:  cpu time   30.6929: real time   30.7767
 BZINTS: Fermi energy:  6.020073;276.000000 electrons
         Band energy:***********;  BLOECHL correction: -0.033993
       DOS:  cpu time    0.0485: real time    0.0486
    CHARGE:  cpu time    1.2774: real time    1.2807
    MIXING:  cpu time    0.0045: real time    0.0045
    --------------------------------------------
      LOOP:  cpu time   32.2213: real time   32.3091

 eigenvalue-minimisations  : 14244
 total energy-change (2. order) : 0.5591670E+00  (-0.2243138E-01)
 number of electron     275.9999988 magnetization      49.2977052
 augmentation part      112.9954360 magnetization      35.5983022

 Broyden mixing:
  rms(total) = 0.12154E+01    rms(broyden)= 0.12154E+01
  rms(prec ) = 0.12885E+01
  weight for this iteration     100.00

 eigenvalues of (default mixing * dielectric matrix)
  average eigenvalue GAMMA=   1.0465
  2.5823  0.9738  0.9738  0.3793  0.8013  0.5684

 Free energy of the ion-electron system (eV)
  ---------------------------------------------------
  alpha Z        PSCENC =      1362.55286497
  Ewald energy   TEWEN  =    -25513.06237826
  -Hartree energ DENC   =     -9960.31701162
  -exchange      EXHF   =         0.00000000
  -V(xc)+E(xc)   XCENC  =      1360.24751869
  PAW double counting   =     36373.66880765   -37544.00115269
  entropy T*S    EENTRO =         0.00000000
  eigenvalues    EBANDS =     -3572.54593398
  atomic energy  EATOM  =     37271.85588019
  Solvation  Ediel_sol  =         0.00000000
  ---------------------------------------------------
  free energy    TOTEN  =      -221.60140504 eV

  energy without entropy =     -221.60140504  energy(sigma->0) =     -221.60140504


--------------------------------------------------------------------------------------------------------




--------------------------------------- Iteration      1(  12)  ---------------------------------------


    POTLOK:  cpu time    0.1857: real time    0.1881
    SETDIJ:  cpu time    0.0191: real time    0.0192
     EDDAV:  cpu time   32.2834: real time   32.3654
 BZINTS: Fermi energy:  6.080278;276.000000 electrons
         Band energy:***********;  BLOECHL correction: -0.033257
       DOS:  cpu time    0.0505: real time    0.0508
    CHARGE:  cpu time    1.2958: real time    1.2990
    MIXING:  cpu time    0.0047: real time    0.0047
    --------------------------------------------
      LOOP:  cpu time   33.8393: real time   33.9272

 eigenvalue-minimisations  : 15216
 total energy-change (2. order) : 0.2033827E+00  (-0.1968953E-01)
 number of electron     275.9999988 magnetization      46.8446120
 augmentation part      112.6723473 magnetization      33.0416613

 Broyden mixing:
  rms(total) = 0.83796E+00    rms(broyden)= 0.83796E+00
  rms(prec ) = 0.87843E+00
  weight for this iteration     100.00

 eigenvalues of (default mixing * dielectric matrix)
  average eigenvalue GAMMA=   1.0996
  2.1148  1.7602  1.4198  0.3779  0.7508  0.6369  0.6369

 Free energy of the ion-electron system (eV)
  ---------------------------------------------------
  alpha Z        PSCENC =      1362.55286497
  Ewald energy   TEWEN  =    -25513.06237826
  -Hartree energ DENC   =     -9973.40261329
  -exchange      EXHF   =         0.00000000
  -V(xc)+E(xc)   XCENC  =      1359.59655894
  PAW double counting   =     36258.44028240   -37427.72299757
  entropy T*S    EENTRO =         0.00000000
  eigenvalues    EBANDS =     -3559.65561976
  atomic energy  EATOM  =     37271.85588019
  Solvation  Ediel_sol  =         0.00000000
  ---------------------------------------------------
  free energy    TOTEN  =      -221.39802238 eV

  energy without entropy =     -221.39802238  energy(sigma->0) =     -221.39802238


--------------------------------------------------------------------------------------------------------




--------------------------------------- Iteration      1(  13)  ---------------------------------------


    POTLOK:  cpu time    0.1884: real time    0.1896
    SETDIJ:  cpu time    0.0194: real time    0.0195
     EDDAV:  cpu time   29.0026: real time   29.0807
 BZINTS: Fermi energy:  6.139492;276.000000 electrons
         Band energy:***********;  BLOECHL correction: -0.034415
       DOS:  cpu time    0.0485: real time    0.0486
    CHARGE:  cpu time    1.2259: real time    1.2290
    MIXING:  cpu time    0.0048: real time    0.0048
    --------------------------------------------
      LOOP:  cpu time   30.4896: real time   30.5722

 eigenvalue-minimisations  : 13920
 total energy-change (2. order) :-0.1432840E-02  (-0.1138689E-01)
 number of electron     275.9999988 magnetization      43.9860258
 augmentation part      112.4026349 magnetization      30.4345595

 Broyden mixing:
  rms(total) = 0.46191E+00    rms(broyden)= 0.46191E+00
  rms(prec ) = 0.48477E+00
  weight for this iteration     100.00

 eigenvalues of (default mixing * dielectric matrix)
  average eigenvalue GAMMA=   1.3970
  3.4766  3.4193  0.3782  0.9267  0.9267  0.7246  0.7246  0.5991

 Free energy of the ion-electron system (eV)
  ---------------------------------------------------
  alpha Z        PSCENC =      1362.55286497
  Ewald energy   TEWEN  =    -25513.06237826
  -Hartree energ DENC   =     -9991.40781140
  -exchange      EXHF   =         0.00000000
  -V(xc)+E(xc)   XCENC  =      1358.77050916
  PAW double counting   =     36029.89425492   -37196.12767159
  entropy T*S    EENTRO =         0.00000000
  eigenvalues    EBANDS =     -3543.87510322
  atomic energy  EATOM  =     37271.85588019
  Solvation  Ediel_sol  =         0.00000000
  ---------------------------------------------------
  free energy    TOTEN  =      -221.39945522 eV

  energy without entropy =     -221.39945522  energy(sigma->0) =     -221.39945522


--------------------------------------------------------------------------------------------------------




--------------------------------------- Iteration      1(  14)  ---------------------------------------


    POTLOK:  cpu time    0.1795: real time    0.1814
    SETDIJ:  cpu time    0.0178: real time    0.0179
     EDDAV:  cpu time   33.2925: real time   33.3783
 BZINTS: Fermi energy:  6.171031;276.000000 electrons
         Band energy:***********;  BLOECHL correction: -0.032760
       DOS:  cpu time    0.0511: real time    0.0512
    CHARGE:  cpu time    1.3284: real time    1.3317
    MIXING:  cpu time    0.0054: real time    0.0054
    --------------------------------------------
      LOOP:  cpu time   34.8746: real time   34.9657

 eigenvalue-minimisations  : 14928
 total energy-change (2. order) :-0.4481336E-01  (-0.1505255E-01)
 number of electron     275.9999988 magnetization      43.0707226
 augmentation part      112.2243762 magnetization      29.9020460

 Broyden mixing:
  rms(total) = 0.18091E+00    rms(broyden)= 0.18091E+00
  rms(prec ) = 0.18854E+00
  weight for this iteration     100.00

 eigenvalues of (default mixing * dielectric matrix)
  average eigenvalue GAMMA=   1.5045
  5.3471  2.7879  1.2162  0.3782  0.8367  0.8367  0.8865  0.6256  0.6256

 Free energy of the ion-electron system (eV)
  ---------------------------------------------------
  alpha Z        PSCENC =      1362.55286497
  Ewald energy   TEWEN  =    -25513.06237826
  -Hartree energ DENC   =    -10003.85645157
  -exchange      EXHF   =         0.00000000
  -V(xc)+E(xc)   XCENC  =      1357.69335209
  PAW double counting   =     35832.15805466   -36995.38830976
  entropy T*S    EENTRO =         0.00000000
  eigenvalues    EBANDS =     -3533.39728090
  atomic energy  EATOM  =     37271.85588019
  Solvation  Ediel_sol  =         0.00000000
  ---------------------------------------------------
  free energy    TOTEN  =      -221.44426859 eV

  energy without entropy =     -221.44426859  energy(sigma->0) =     -221.44426859


--------------------------------------------------------------------------------------------------------




--------------------------------------- Iteration      1(  15)  ---------------------------------------


    POTLOK:  cpu time    0.1922: real time    0.1950
    SETDIJ:  cpu time    0.0201: real time    0.0201
     EDDAV:  cpu time   28.1064: real time   28.1775
 BZINTS: Fermi energy:  6.157343;276.000000 electrons
         Band energy:***********;  BLOECHL correction: -0.032963
       DOS:  cpu time    0.0484: real time    0.0485
    CHARGE:  cpu time    1.2214: real time    1.2245
    MIXING:  cpu time    0.0051: real time    0.0051
    --------------------------------------------
      LOOP:  cpu time   29.5936: real time   29.6707

 eigenvalue-minimisations  : 12780
 total energy-change (2. order) :-0.1775097E-01  (-0.6025223E-02)
 number of electron     275.9999988 magnetization      42.6257500
 augmentation part      112.2739336 magnetization      29.6317752

 Broyden mixing:
  rms(total) = 0.14300E+00    rms(broyden)= 0.14300E+00
  rms(prec ) = 0.15151E+00
  weight for this iteration     100.00

 eigenvalues of (default mixing * dielectric matrix)
  average eigenvalue GAMMA=   1.5491
  6.1651  2.8503  1.3329  1.0811  0.3782  0.8498  0.8498  0.6943  0.6943  0.5956

 Free energy of the ion-electron system (eV)
  ---------------------------------------------------
  alpha Z        PSCENC =      1362.55286497
  Ewald energy   TEWEN  =    -25513.06237826
  -Hartree energ DENC   =    -10002.67186417
  -exchange      EXHF   =         0.00000000
  -V(xc)+E(xc)   XCENC  =      1357.20211600
  PAW double counting   =     35817.17971332   -36980.02542806
  entropy T*S    EENTRO =         0.00000000
  eigenvalues    EBANDS =     -3534.49292353
  atomic energy  EATOM  =     37271.85588019
  Solvation  Ediel_sol  =         0.00000000
  ---------------------------------------------------
  free energy    TOTEN  =      -221.46201955 eV

  energy without entropy =     -221.46201955  energy(sigma->0) =     -221.46201955


--------------------------------------------------------------------------------------------------------




--------------------------------------- Iteration      1(  16)  ---------------------------------------


    POTLOK:  cpu time    0.1795: real time    0.1805
    SETDIJ:  cpu time    0.0178: real time    0.0179
     EDDAV:  cpu time   30.7321: real time   30.8103
 BZINTS: Fermi energy:  6.178501;276.000000 electrons
         Band energy:***********;  BLOECHL correction: -0.032841
       DOS:  cpu time    0.0471: real time    0.0472
    CHARGE:  cpu time    1.2274: real time    1.2305
    MIXING:  cpu time    0.0056: real time    0.0056
    --------------------------------------------
      LOOP:  cpu time   32.2095: real time   32.2919

 eigenvalue-minimisations  : 14460
 total energy-change (2. order) : 0.5109905E-02  (-0.8971413E-03)
 number of electron     275.9999988 magnetization      42.4956311
 augmentation part      112.1836016 magnetization      29.5029645

 Broyden mixing:
  rms(total) = 0.36955E-01    rms(broyden)= 0.36955E-01
  rms(prec ) = 0.38690E-01
  weight for this iteration     100.00

 eigenvalues of (default mixing * dielectric matrix)
  average eigenvalue GAMMA=   1.5386
  6.3292  2.7784  1.3055  1.3055  1.1424  0.3782  0.8060  0.8060  0.7353  0.7296
  0.6085

 Free energy of the ion-electron system (eV)
  ---------------------------------------------------
  alpha Z        PSCENC =      1362.55286497
  Ewald energy   TEWEN  =    -25513.06237826
  -Hartree energ DENC   =    -10007.27951609
  -exchange      EXHF   =         0.00000000
  -V(xc)+E(xc)   XCENC  =      1357.08611039
  PAW double counting   =     35775.25865971   -36937.99970407
  entropy T*S    EENTRO =         0.00000000
  eigenvalues    EBANDS =     -3529.86882649
  atomic energy  EATOM  =     37271.85588019
  Solvation  Ediel_sol  =         0.00000000
  ---------------------------------------------------
  free energy    TOTEN  =      -221.45690965 eV

  energy without entropy =     -221.45690965  energy(sigma->0) =     -221.45690965


--------------------------------------------------------------------------------------------------------




--------------------------------------- Iteration      1(  17)  ---------------------------------------


    POTLOK:  cpu time    0.1806: real time    0.1822
    SETDIJ:  cpu time    0.0178: real time    0.0180
     EDDAV:  cpu time   27.5729: real time   27.6453
 BZINTS: Fermi energy:  6.179296;276.000000 electrons
         Band energy:***********;  BLOECHL correction: -0.032786
       DOS:  cpu time    0.0515: real time    0.0517
    CHARGE:  cpu time    1.2989: real time    1.3023
    MIXING:  cpu time    0.0059: real time    0.0059
    --------------------------------------------
      LOOP:  cpu time   29.1277: real time   29.2055

 eigenvalue-minimisations  : 12372
 total energy-change (2. order) :-0.5884212E-03  (-0.4856941E-03)
 number of electron     275.9999988 magnetization      42.3979567
 augmentation part      112.1799454 magnetization      29.4171843

 Broyden mixing:
  rms(total) = 0.19824E-01    rms(broyden)= 0.19824E-01
  rms(prec ) = 0.20446E-01
  weight for this iteration     100.00

 eigenvalues of (default mixing * dielectric matrix)
  average eigenvalue GAMMA=   1.5611
  6.5297  2.7612  2.4467  0.3782  1.0652  1.0652  0.8949  0.8949  0.7201  0.7201
  0.6043  0.6530

 Free energy of the ion-electron system (eV)
  ---------------------------------------------------
  alpha Z        PSCENC =      1362.55286497
  Ewald energy   TEWEN  =    -25513.06237826
  -Hartree energ DENC   =    -10006.86232846
  -exchange      EXHF   =         0.00000000
  -V(xc)+E(xc)   XCENC  =      1357.01845216
  PAW double counting   =     35796.65651121   -36959.98351200
  entropy T*S    EENTRO =         0.00000000
  eigenvalues    EBANDS =     -3529.63298788
  atomic energy  EATOM  =     37271.85588019
  Solvation  Ediel_sol  =         0.00000000
  ---------------------------------------------------
  free energy    TOTEN  =      -221.45749807 eV

  energy without entropy =     -221.45749807  energy(sigma->0) =     -221.45749807


--------------------------------------------------------------------------------------------------------




--------------------------------------- Iteration      1(  18)  ---------------------------------------


    POTLOK:  cpu time    0.1875: real time    0.1886
    SETDIJ:  cpu time    0.0191: real time    0.0192
     EDDAV:  cpu time   30.9222: real time   31.0034
 BZINTS: Fermi energy:  6.180070;276.000000 electrons
         Band energy:***********;  BLOECHL correction: -0.032901
       DOS:  cpu time    0.0489: real time    0.0490
    CHARGE:  cpu time    1.3067: real time    1.3100
    MIXING:  cpu time    0.0062: real time    0.0062
    --------------------------------------------
      LOOP:  cpu time   32.4906: real time   32.5763

 eigenvalue-minimisations  : 14232
 total energy-change (2. order) :-0.2181028E-03  (-0.2365997E-04)
 number of electron     275.9999988 magnetization      42.3487284
 augmentation part      112.1739088 magnetization      29.3849996

 Broyden mixing:
  rms(total) = 0.82971E-02    rms(broyden)= 0.82970E-02
  rms(prec ) = 0.86269E-02
  weight for this iteration     100.00

 eigenvalues of (default mixing * dielectric matrix)
  average eigenvalue GAMMA=   1.5313
  6.6552  2.8327  2.4484  1.1471  1.1471  0.9559  0.9559  0.3782  0.7389  0.7389
  0.6881  0.6106  0.6106

 Free energy of the ion-electron system (eV)
  ---------------------------------------------------
  alpha Z        PSCENC =      1362.55286497
  Ewald energy   TEWEN  =    -25513.06237826
  -Hartree energ DENC   =    -10007.22979488
  -exchange      EXHF   =         0.00000000
  -V(xc)+E(xc)   XCENC  =      1356.97239530
  PAW double counting   =     35793.81319976   -36957.17823905
  entropy T*S    EENTRO =         0.00000000
  eigenvalues    EBANDS =     -3529.18164419
  atomic energy  EATOM  =     37271.85588019
  Solvation  Ediel_sol  =         0.00000000
  ---------------------------------------------------
  free energy    TOTEN  =      -221.45771617 eV

  energy without entropy =     -221.45771617  energy(sigma->0) =     -221.45771617


--------------------------------------------------------------------------------------------------------




--------------------------------------- Iteration      1(  19)  ---------------------------------------


    POTLOK:  cpu time    0.1896: real time    0.1920
    SETDIJ:  cpu time    0.0194: real time    0.0195
     EDDAV:  cpu time   30.0380: real time   30.1156
 BZINTS: Fermi energy:  6.180976;276.000000 electrons
         Band energy:***********;  BLOECHL correction: -0.032960
       DOS:  cpu time    0.0513: real time    0.0515
    CHARGE:  cpu time    1.3088: real time    1.3122
    MIXING:  cpu time    0.0065: real time    0.0065
    --------------------------------------------
      LOOP:  cpu time   31.6136: real time   31.6972

 eigenvalue-minimisations  : 13752
 total energy-change (2. order) :-0.5924558E-04  (-0.1070919E-04)
 number of electron     275.9999988 magnetization      42.3379281
 augmentation part      112.1702314 magnetization      29.3826058

 Broyden mixing:
  rms(total) = 0.19542E-02    rms(broyden)= 0.19541E-02
  rms(prec ) = 0.20831E-02
  weight for this iteration     100.00

 eigenvalues of (default mixing * dielectric matrix)
  average eigenvalue GAMMA=   1.5176
  6.7277  2.8705  2.4026  1.2971  1.2971  0.9960  0.9960  0.3782  0.7792  0.7792
  0.7498  0.7498  0.6118  0.6118

 Free energy of the ion-electron system (eV)
  ---------------------------------------------------
  alpha Z        PSCENC =      1362.55286497
  Ewald energy   TEWEN  =    -25513.06237826
  -Hartree energ DENC   =    -10007.56455310
  -exchange      EXHF   =         0.00000000
  -V(xc)+E(xc)   XCENC  =      1356.95361175
  PAW double counting   =     35789.63886045   -36952.95362758
  entropy T*S    EENTRO =         0.00000000
  eigenvalues    EBANDS =     -3528.87843384
  atomic energy  EATOM  =     37271.85588019
  Solvation  Ediel_sol  =         0.00000000
  ---------------------------------------------------
  free energy    TOTEN  =      -221.45777542 eV

  energy without entropy =     -221.45777542  energy(sigma->0) =     -221.45777542


--------------------------------------------------------------------------------------------------------




--------------------------------------- Iteration      1(  20)  ---------------------------------------


    POTLOK:  cpu time    0.1891: real time    0.1933
    SETDIJ:  cpu time    0.0193: real time    0.0193
     EDDAV:  cpu time   27.8737: real time   27.9445
 BZINTS: Fermi energy:  6.181463;276.000000 electrons
         Band energy:***********;  BLOECHL correction: -0.032967
       DOS:  cpu time    0.0476: real time    0.0477
    CHARGE:  cpu time    1.3277: real time    1.3310
    MIXING:  cpu time    0.0071: real time    0.0071
    --------------------------------------------
      LOOP:  cpu time   29.4645: real time   29.5429

 eigenvalue-minimisations  : 12456
 total energy-change (2. order) :-0.8058370E-05  (-0.1736071E-05)
 number of electron     275.9999988 magnetization      42.3344596
 augmentation part      112.1688111 magnetization      29.3807328

 Broyden mixing:
  rms(total) = 0.74691E-03    rms(broyden)= 0.74689E-03
  rms(prec ) = 0.76734E-03
  weight for this iteration     100.00

 eigenvalues of (default mixing * dielectric matrix)
  average eigenvalue GAMMA=   1.5166
  6.7589  2.9590  2.3750  1.9057  1.0871  1.0871  1.0082  1.0082  0.3782  0.7451
  0.7451  0.7233  0.7233  0.6071  0.6383

 Free energy of the ion-electron system (eV)
  ---------------------------------------------------
  alpha Z        PSCENC =      1362.55286497
  Ewald energy   TEWEN  =    -25513.06237826
  -Hartree energ DENC   =    -10007.68174902
  -exchange      EXHF   =         0.00000000
  -V(xc)+E(xc)   XCENC  =      1356.95004663
  PAW double counting   =     35789.11710070   -36952.43519224
  entropy T*S    EENTRO =         0.00000000
  eigenvalues    EBANDS =     -3528.75435645
  atomic energy  EATOM  =     37271.85588019
  Solvation  Ediel_sol  =         0.00000000
  ---------------------------------------------------
  free energy    TOTEN  =      -221.45778348 eV

  energy without entropy =     -221.45778348  energy(sigma->0) =     -221.45778348


--------------------------------------------------------------------------------------------------------




--------------------------------------- Iteration      1(  21)  ---------------------------------------


    POTLOK:  cpu time    0.1873: real time    0.1883
    SETDIJ:  cpu time    0.0197: real time    0.0197
     EDDAV:  cpu time   26.7998: real time   26.8687
 BZINTS: Fermi energy:  6.181694;276.000000 electrons
         Band energy:***********;  BLOECHL correction: -0.032966
       DOS:  cpu time    0.0485: real time    0.0486
    CHARGE:  cpu time    1.2331: real time    1.2364
    MIXING:  cpu time    0.0066: real time    0.0066
    --------------------------------------------
      LOOP:  cpu time   28.2950: real time   28.3683

 eigenvalue-minimisations  : 12228
 total energy-change (2. order) : 0.4489993E-07  (-0.2809079E-06)
 number of electron     275.9999988 magnetization      42.3363192
 augmentation part      112.1680547 magnetization      29.3825770

 Broyden mixing:
  rms(total) = 0.10216E-02    rms(broyden)= 0.10216E-02
  rms(prec ) = 0.10853E-02
  weight for this iteration     100.00

 eigenvalues of (default mixing * dielectric matrix)
  average eigenvalue GAMMA=   1.5051
  6.7597  2.9995  2.4310  2.1937  1.1902  1.1902  1.0003  1.0003  0.3782  0.7863
  0.7863  0.7326  0.7326  0.6807  0.6102  0.6102

 Free energy of the ion-electron system (eV)
  ---------------------------------------------------
  alpha Z        PSCENC =      1362.55286497
  Ewald energy   TEWEN  =    -25513.06237826
  -Hartree energ DENC   =    -10007.72666153
  -exchange      EXHF   =         0.00000000
  -V(xc)+E(xc)   XCENC  =      1356.94955492
  PAW double counting   =     35788.92007698   -36952.24589279
  entropy T*S    EENTRO =         0.00000000
  eigenvalues    EBANDS =     -3528.70122792
  atomic energy  EATOM  =     37271.85588019
  Solvation  Ediel_sol  =         0.00000000
  ---------------------------------------------------
  free energy    TOTEN  =      -221.45778343 eV

  energy without entropy =     -221.45778343  energy(sigma->0) =     -221.45778343


--------------------------------------------------------------------------------------------------------




--------------------------------------- Iteration      1(  22)  ---------------------------------------


    POTLOK:  cpu time    0.1795: real time    0.1801
    SETDIJ:  cpu time    0.0178: real time    0.0178
     EDDAV:  cpu time   24.7274: real time   24.7923
 BZINTS: Fermi energy:  6.181544;276.000000 electrons
         Band energy:***********;  BLOECHL correction: -0.032968
       DOS:  cpu time    0.0499: real time    0.0501
    CHARGE:  cpu time    1.2956: real time    1.2988
    MIXING:  cpu time    0.0073: real time    0.0073
    --------------------------------------------
      LOOP:  cpu time   26.2775: real time   26.3464

 eigenvalue-minimisations  : 11064
 total energy-change (2. order) :-0.1322049E-05  (-0.1142841E-06)
 number of electron     275.9999988 magnetization      42.3383058
 augmentation part      112.1687358 magnetization      29.3847151

 Broyden mixing:
  rms(total) = 0.50049E-03    rms(broyden)= 0.50049E-03
  rms(prec ) = 0.52064E-03
  weight for this iteration     100.00

 eigenvalues of (default mixing * dielectric matrix)
  average eigenvalue GAMMA=   1.4876
  6.7461  3.0000  2.6174  2.2065  1.2325  1.2325  1.0264  1.0264  0.3782  0.8692
  0.8692  0.7328  0.7328  0.7384  0.6109  0.6346  0.6346

 Free energy of the ion-electron system (eV)
  ---------------------------------------------------
  alpha Z        PSCENC =      1362.55286497
  Ewald energy   TEWEN  =    -25513.06237826
  -Hartree energ DENC   =    -10007.69429260
  -exchange      EXHF   =         0.00000000
  -V(xc)+E(xc)   XCENC  =      1356.94969658
  PAW double counting   =     35789.16148651   -36952.48941971
  entropy T*S    EENTRO =         0.00000000
  eigenvalues    EBANDS =     -3528.73162243
  atomic energy  EATOM  =     37271.85588019
  Solvation  Ediel_sol  =         0.00000000
  ---------------------------------------------------
  free energy    TOTEN  =      -221.45778476 eV

  energy without entropy =     -221.45778476  energy(sigma->0) =     -221.45778476


--------------------------------------------------------------------------------------------------------




--------------------------------------- Iteration      1(  23)  ---------------------------------------


    POTLOK:  cpu time    0.1874: real time    0.1880
    SETDIJ:  cpu time    0.0193: real time    0.0194
     EDDAV:  cpu time   20.9783: real time   21.0347
 BZINTS: Fermi energy:  6.181501;276.000000 electrons
         Band energy:***********;  BLOECHL correction: -0.032967
       DOS:  cpu time    0.0504: real time    0.0505
    CHARGE:  cpu time    1.3486: real time    1.3521
    MIXING:  cpu time    0.0077: real time    0.0078
    --------------------------------------------
      LOOP:  cpu time   22.5918: real time   22.6525

 eigenvalue-minimisations  :  8760
 total energy-change (2. order) : 0.7271956E-06  (-0.2087457E-07)
 number of electron     275.9999988 magnetization      42.3390661
 augmentation part      112.1689665 magnetization      29.3852606

 Broyden mixing:
  rms(total) = 0.13616E-03    rms(broyden)= 0.13616E-03
  rms(prec ) = 0.14094E-03
  weight for this iteration     100.00

 eigenvalues of (default mixing * dielectric matrix)
  average eigenvalue GAMMA=   1.4861
  6.7407  3.0116  2.7084  2.2591  1.4042  1.4042  0.3782  1.0390  1.0390  0.9493
  0.9493  0.7404  0.7404  0.7887  0.6860  0.6860  0.6129  0.6129

 Free energy of the ion-electron system (eV)
  ---------------------------------------------------
  alpha Z        PSCENC =      1362.55286497
  Ewald energy   TEWEN  =    -25513.06237826
  -Hartree energ DENC   =    -10007.68008347
  -exchange      EXHF   =         0.00000000
  -V(xc)+E(xc)   XCENC  =      1356.95059796
  PAW double counting   =     35789.35821307   -36952.68957949
  entropy T*S    EENTRO =         0.00000000
  eigenvalues    EBANDS =     -3528.74329899
  atomic energy  EATOM  =     37271.85588019
  Solvation  Ediel_sol  =         0.00000000
  ---------------------------------------------------
  free energy    TOTEN  =      -221.45778403 eV

  energy without entropy =     -221.45778403  energy(sigma->0) =     -221.45778403


--------------------------------------------------------------------------------------------------------




--------------------------------------- Iteration      1(  24)  ---------------------------------------


    POTLOK:  cpu time    0.1909: real time    0.1914
    SETDIJ:  cpu time    0.0197: real time    0.0197
     EDDAV:  cpu time   18.3997: real time   18.4461
 BZINTS: Fermi energy:  6.181505;276.000000 electrons
         Band energy:***********;  BLOECHL correction: -0.032966
       DOS:  cpu time    0.0517: real time    0.0518
    CHARGE:  cpu time    1.3600: real time    1.3635
    MIXING:  cpu time    0.0081: real time    0.0081
    --------------------------------------------
      LOOP:  cpu time   20.0300: real time   20.0807

 eigenvalue-minimisations  :  6420
 total energy-change (2. order) : 0.8739516E-06  (-0.6648242E-08)
 number of electron     275.9999988 magnetization      42.3392583
 augmentation part      112.1689636 magnetization      29.3853104

 Broyden mixing:
  rms(total) = 0.56707E-04    rms(broyden)= 0.56706E-04
  rms(prec ) = 0.60588E-04
  weight for this iteration     100.00

 eigenvalues of (default mixing * dielectric matrix)
[...]
 -0.000  -0.002  -0.000  -0.000  -0.001  -0.000   0.000   0.000  -0.006   0.000   0.000   0.000   0.000   0.009  -0.000  -0.000
 total augmentation occupancy for first ion, spin component:           2
 -0.003  -0.000  -0.000  -0.010   0.000   0.000   0.002   0.001  -0.000   0.000   0.000  -0.003  -0.002   0.000  -0.000  -0.000
 -0.000  -0.003   0.000   0.000  -0.010   0.000   0.000   0.000  -0.001   0.000   0.000   0.000   0.000   0.002  -0.000  -0.000
  0.000   0.000  -0.003  -0.000   0.000  -0.010   0.000  -0.000   0.000   0.001  -0.002  -0.000   0.000  -0.000  -0.002   0.003
 -0.010   0.000  -0.000   0.021   0.000   0.000  -0.085  -0.050  -0.000   0.002   0.013   0.049   0.032   0.000  -0.001  -0.008
  0.000  -0.010   0.000  -0.000   0.017   0.000   0.000   0.000   0.076   0.000  -0.000  -0.000   0.000  -0.043   0.000   0.000
  0.000  -0.000  -0.010   0.000  -0.000   0.021   0.013  -0.002  -0.000  -0.050   0.085  -0.008   0.001   0.000   0.032  -0.049
  0.002  -0.000   0.000  -0.085  -0.000   0.013   4.295   0.577   0.000  -0.179  -0.000  -2.428  -0.471  -0.000   0.166   0.002
  0.001   0.000  -0.000  -0.050  -0.000  -0.002   0.577   5.021   0.000   0.000  -0.179  -0.469  -3.025  -0.000   0.003   0.166
 -0.000  -0.001   0.000  -0.000   0.076  -0.000   0.000   0.000   4.387   0.000  -0.000   0.000  -0.000  -2.382  -0.000   0.000
  0.000   0.000   0.001   0.002  -0.000  -0.050  -0.179  -0.000   0.000   5.021  -0.577   0.166  -0.003  -0.000  -3.025   0.469
  0.000   0.000  -0.002   0.013  -0.000   0.085   0.000  -0.179  -0.000  -0.577   4.295  -0.002   0.166   0.000   0.471  -2.428
 -0.003   0.000  -0.000   0.049   0.000  -0.008  -2.428  -0.469   0.000   0.166  -0.002   1.294   0.332  -0.000  -0.129  -0.000
 -0.002   0.000   0.000   0.032  -0.000   0.001  -0.471  -3.025  -0.000  -0.003   0.166   0.332   1.751   0.000   0.000  -0.129
  0.000   0.002  -0.000   0.000  -0.043   0.000  -0.000  -0.000  -2.382  -0.000   0.000   0.000   0.000   1.231   0.000  -0.000
 -0.000  -0.000  -0.002  -0.001   0.000   0.032   0.166   0.003  -0.000  -3.025   0.471  -0.129   0.000   0.000   1.751  -0.332
 -0.000  -0.000   0.003  -0.008   0.000  -0.049   0.002   0.166   0.000   0.469  -2.428   0.000  -0.129  -0.000  -0.332   1.294
  0.000   0.000  -0.000   0.000   0.001  -0.000  -0.000   0.000   0.044   0.000  -0.000  -0.000  -0.000  -0.022   0.000   0.000
 -0.000   0.000   0.000  -0.000   0.001   0.000   0.000  -0.000   0.007   0.000  -0.000   0.000  -0.000  -0.005   0.000   0.000


------------------------ aborting loop because EDIFF is reached ----------------------------------------


 


 total charge     
 
# of ion       s       p       d       tot
------------------------------------------
    1        0.284   6.340   5.852  12.476
    2        0.284   6.340   5.854  12.478
    3        0.284   6.340   5.862  12.486
    4        0.284   6.340   5.852  12.475
    5        0.283   6.340   5.854  12.478
    6        0.284   6.340   5.865  12.489
    7        0.284   6.340   5.851  12.474
    8        0.284   6.340   5.853  12.477
    9        0.283   6.340   5.854  12.477
   10        0.283   6.340   5.868  12.492
   11        0.283   6.340   5.865  12.489
   12        0.283   6.340   5.857  12.480
   13        1.567   3.416   0.000   4.983
   14        1.567   3.415   0.000   4.982
   15        1.567   3.416   0.000   4.983
   16        1.567   3.417   0.000   4.984
   17        1.567   3.417   0.000   4.984
   18        1.567   3.416   0.000   4.983
   19        1.566   3.403   0.000   4.969
   20        1.566   3.403   0.000   4.969
   21        1.566   3.404   0.000   4.970
   22        1.566   3.404   0.000   4.970
   23        1.566   3.404   0.000   4.970
   24        1.566   3.404   0.000   4.970
   25        1.568   3.417   0.000   4.985
   26        1.568   3.416   0.000   4.984
   27        1.568   3.418   0.000   4.986
   28        1.568   3.419   0.000   4.987
   29        1.568   3.419   0.000   4.987
   30        1.568   3.418   0.000   4.986
--------------------------------------------------
tot         31.607 137.507  70.287 239.401
 


 magnetization (x)
 
# of ion       s       p       d       tot
------------------------------------------
    1        0.024   0.036   3.141   3.201
    2        0.024   0.036   3.138   3.198
    3        0.025   0.036   3.135   3.195
    4        0.025   0.036   3.140   3.201
    5        0.025   0.036   3.141   3.201
    6        0.025   0.036   3.132   3.193
    7        0.024   0.036   3.125   3.186
    8        0.024   0.036   3.122   3.183
    9        0.025   0.036   3.123   3.183
   10        0.025   0.036   3.117   3.177
   11        0.025   0.036   3.119   3.180
   12        0.025   0.036   3.123   3.183
   13        0.020   0.139   0.000   0.160
   14        0.020   0.139   0.000   0.159
   15        0.020   0.139   0.000   0.159
   16        0.020   0.140   0.000   0.160
   17        0.020   0.140   0.000   0.161
   18        0.020   0.139   0.000   0.160
   19        0.021   0.143   0.000   0.165
   20        0.021   0.143   0.000   0.164
   21        0.021   0.144   0.000   0.165
   22        0.021   0.144   0.000   0.165
   23        0.021   0.144   0.000   0.165
   24        0.021   0.144   0.000   0.166
   25        0.020   0.136   0.000   0.156
   26        0.020   0.135   0.000   0.155
   27        0.020   0.136   0.000   0.157
   28        0.020   0.137   0.000   0.158
   29        0.020   0.137   0.000   0.157
   30        0.020   0.137   0.000   0.157
--------------------------------------------------
tot          0.668   2.948  37.556  41.172
 
    CHARGE:  cpu time    1.3573: real time    1.3606
    FORLOC:  cpu time    0.0214: real time    0.0214
    FORNL :  cpu time    8.2955: real time    8.3311
    STRESS:  cpu time   25.1120: real time   25.1792
    FORCOR:  cpu time    0.2066: real time    0.2071
    FORHAR:  cpu time    0.0375: real time    0.0376
    MIXING:  cpu time    0.0083: real time    0.0084
    OFIELD:  cpu time    0.0001: real time    0.0001

  FORCE on cell =-STRESS in cart. coord.  units (eV):
  Direction    XX          YY          ZZ          XY          YZ          ZX
  --------------------------------------------------------------------------------------
  Alpha Z  1362.55286  1362.55286  1362.55286
  Ewald   -8201.75422 -8201.75360 -9109.63806     0.00000     0.00002    -0.00000
  Hartree  3503.89246  3503.89231  2999.88979    -0.00000     0.00001    -0.00000
  E(xc)   -1615.80835 -1615.80837 -1617.37255    -0.00002    -0.00000     0.00000
  Local    -165.04900  -165.04888  1230.78815    -0.00017    -0.00003     0.00000
  n-local  -743.08511  -741.97604  -744.59226    -4.16569     0.49368     0.11382
  augment  1844.63225  1844.63208  1846.55310     0.00012     0.00000     0.00000
  Kinetic  4007.30048  4009.39583  4025.15937     7.65598    -1.99158    -5.04326
  Fock        0.00000     0.00000     0.00000     0.00000     0.00000     0.00000
  -------------------------------------------------------------------------------------
  Total      -5.71622    -5.71622    -6.65960     0.00000     0.00000     0.00000
  in kB     -30.31898   -30.31897   -35.32267     0.00000     0.00000     0.00000
  external pressure =      -31.99 kB  Pullay stress =        0.00 kB


 VOLUME and BASIS-vectors are now :
 -----------------------------------------------------------------------------
  energy-cutoff  :      980.00
  volume of cell :      302.07
      direct lattice vectors                 reciprocal lattice vectors
     5.035100000  0.000000000  0.000000000     0.198605787  0.114665118  0.000000000
    -2.517550000  4.360524000  0.000000000     0.000000000  0.229330236  0.000000000
     0.000000000  0.000000000 13.758100000     0.000000000  0.000000000  0.072684455

  length of vectors
     5.035100000  5.035099558 13.758100000     0.229330216  0.229330236  0.072684455


 FORCES acting on ions
    electron-ion (+dipol)            ewald-force                    non-local-force                 convergence-correction
 -----------------------------------------------------------------------------------------------
   0.155E-03 0.365E-03 -.126E+03   -.101E-02 0.523E-03 0.128E+03   0.160E-16 0.477E-17 -.288E+01   -.733E-08 0.469E-08 -.183E-04
   -.401E-03 0.580E-03 0.126E+03   0.101E-02 -.523E-03 -.128E+03   -.260E-17 0.347E-17 0.288E+01   0.931E-08 -.462E-08 0.183E-04
   -.135E-03 0.533E-03 -.126E+03   0.314E-02 -.187E-02 0.128E+03   0.520E-17 0.304E-17 -.288E+01   0.171E-06 -.989E-07 -.105E-04
   -.328E-03 0.644E-03 -.126E+03   -.220E-02 0.121E-02 0.128E+03   0.824E-17 0.434E-17 -.288E+01   -.161E-06 0.929E-07 -.782E-05
   0.821E-04 0.301E-03 0.126E+03   0.220E-02 -.121E-02 -.128E+03   -.347E-17 0.130E-17 0.288E+01   0.163E-06 -.928E-07 0.782E-05
   -.111E-03 0.412E-03 0.126E+03   -.314E-02 0.187E-02 -.128E+03   -.477E-17 0.304E-17 0.288E+01   -.169E-06 0.990E-07 0.105E-04
   0.566E-03 -.105E-02 0.126E+03   0.964E-03 -.523E-03 -.128E+03   -.158E-16 -.607E-17 0.288E+01   0.111E-07 -.759E-08 0.183E-04
   0.104E-02 -.127E-02 -.126E+03   -.964E-03 0.523E-03 0.128E+03   0.260E-17 -.304E-17 -.288E+01   -.557E-08 0.168E-08 -.183E-04
   0.105E-02 -.133E-02 0.126E+03   0.215E-02 -.121E-02 -.128E+03   -.239E-17 -.477E-17 0.288E+01   0.164E-06 -.967E-07 0.782E-05
   0.750E-03 -.110E-02 -.126E+03   0.319E-02 -.187E-02 0.128E+03   0.629E-17 -.867E-18 -.288E+01   0.173E-06 -.101E-06 -.105E-04
   0.856E-03 -.122E-02 0.126E+03   -.319E-02 0.187E-02 -.128E+03   -.141E-16 -.390E-17 0.288E+01   -.168E-06 0.950E-07 0.105E-04
   0.557E-03 -.988E-03 -.126E+03   -.215E-02 0.121E-02 0.128E+03   0.585E-17 -.130E-17 -.288E+01   -.159E-06 0.908E-07 -.782E-05
   -.424E+02 -.134E-02 0.216E-03   0.418E+02 0.106E-02 -.470E-03   0.676E+00 0.176E-18 -.759E-18   -.306E-04 0.395E-07 -.371E-08
   0.424E+02 -.868E-04 -.337E-03   -.418E+02 -.106E-02 0.470E-03   -.676E+00 0.287E-17 -.119E-17   0.306E-04 -.432E-07 0.167E-08
   -.424E+02 -.320E-02 -.584E-02   0.418E+02 0.570E-03 -.997E-03   0.676E+00 -.542E-18 0.314E-17   -.306E-04 -.363E-07 -.235E-05
   -.424E+02 0.240E-02 0.544E-02   0.418E+02 -.163E-02 0.147E-02   0.676E+00 0.461E-17 -.130E-17   -.305E-04 -.851E-08 0.235E-05
   0.424E+02 -.383E-02 -.557E-02   -.418E+02 0.163E-02 -.147E-02   -.676E+00 0.233E-17 0.314E-17   0.305E-04 0.480E-08 -.236E-05
   0.424E+02 0.177E-02 0.572E-02   -.418E+02 -.570E-03 0.997E-03   -.676E+00 -.710E-17 0.217E-17   0.306E-04 0.326E-07 0.235E-05
   0.212E+02 -.367E+02 -.308E-03   -.209E+02 0.362E+02 0.438E-03   -.338E+00 0.585E+00 -.347E-17   0.153E-04 -.265E-04 0.167E-08
   -.212E+02 0.367E+02 0.194E-03   0.209E+02 -.362E+02 -.438E-03   0.338E+00 -.585E+00 0.434E-17   -.153E-04 0.265E-04 -.361E-08
   0.212E+02 -.367E+02 -.554E-02   -.209E+02 0.362E+02 -.150E-02   -.338E+00 0.585E+00 -.347E-17   0.153E-04 -.264E-04 -.236E-05
   0.212E+02 -.367E+02 0.575E-02   -.209E+02 0.362E+02 0.964E-03   -.338E+00 0.585E+00 0.000E+00   0.153E-04 -.265E-04 0.235E-05
   -.212E+02 0.367E+02 -.586E-02   0.209E+02 -.362E+02 -.964E-03   0.338E+00 -.585E+00 0.520E-17   -.153E-04 0.265E-04 -.235E-05
   -.212E+02 0.367E+02 0.542E-02   0.209E+02 -.362E+02 0.150E-02   0.338E+00 -.585E+00 -.954E-17   -.153E-04 0.264E-04 0.235E-05
   0.212E+02 0.367E+02 0.939E-04   -.209E+02 -.362E+02 0.322E-04   -.338E+00 -.585E+00 -.477E-17   0.153E-04 0.264E-04 0.197E-08
   -.212E+02 -.367E+02 0.144E-03   0.209E+02 0.362E+02 -.322E-04   0.338E+00 0.585E+00 -.130E-17   -.153E-04 -.264E-04 0.187E-08
   0.212E+02 0.367E+02 -.409E-02   -.209E+02 -.362E+02 -.303E-02   -.338E+00 -.585E+00 0.347E-17   0.153E-04 0.265E-04 -.235E-05
   -.212E+02 -.367E+02 -.404E-02   0.209E+02 0.362E+02 -.310E-02   0.338E+00 0.585E+00 0.260E-17   -.152E-04 -.265E-04 -.235E-05
   0.212E+02 0.367E+02 0.427E-02   -.209E+02 -.362E+02 0.310E-02   -.338E+00 -.585E+00 -.130E-17   0.152E-04 0.265E-04 0.236E-05
   -.212E+02 -.367E+02 0.433E-02   0.209E+02 0.362E+02 0.303E-02   0.338E+00 0.585E+00 -.130E-17   -.153E-04 -.265E-04 0.236E-05
 -----------------------------------------------------------------------------------------------
   0.150E-01 -.165E-01 -.111E-04   -.995E-13 -.995E-13 -.192E-12   -.500E-15 0.111E-15 -.893E-15   0.415E-07 -.370E-07 -.490E-09
 
 
 POSITION                                       TOTAL-FORCE (eV/Angst)
 -----------------------------------------------------------------------------------
      0.00000      0.00000      4.88853        -0.000000      0.000000     -0.925535
      0.00000      0.00000      8.86957        -0.000000      0.000000      0.925535
     -0.00000      2.90702      0.30250        -0.000000      0.000000     -0.925535
      2.51755      1.45351      9.47456        -0.000000      0.000000     -0.925535
     -0.00000      2.90702      4.28354        -0.000000      0.000000      0.925535
      2.51755      1.45351     13.45560        -0.000000      0.000000      0.925535
      0.00000      0.00000      1.99052        -0.000000      0.000000      0.925535
      0.00000      0.00000     11.76758        -0.000000      0.000000     -0.925535
     -0.00000      2.90702     11.16259        -0.000000      0.000000      0.925535
     -0.00000      2.90702      7.18155        -0.000000      0.000000     -0.925535
      2.51755      1.45351      6.57655        -0.000000      0.000000      0.925535
      2.51755      1.45351      2.59551        -0.000000      0.000000     -0.925535
      1.54165      0.00000      3.43953         0.083482      0.000000      0.000000
      3.49345      0.00000     10.31858        -0.083482      0.000000      0.000000
      1.54164      2.90702     12.61160         0.083482      0.000000      0.000000
      4.05920      1.45351      8.02555         0.083482      0.000000      0.000000
     -1.54165      2.90702      5.73255        -0.083482      0.000000      0.000000
      0.97591      1.45351      1.14650        -0.083482      0.000000      0.000000
     -0.77082      1.33511      3.43953        -0.041741      0.072297      0.000000
     -1.74673      3.02542     10.31858         0.041741     -0.072297      0.000000
     -0.77083      4.24212     12.61160        -0.041741      0.072297      0.000000
      1.74673      2.78861      8.02555        -0.041741      0.072297      0.000000
      0.77082      1.57191      5.73255         0.041741     -0.072297      0.000000
      3.28838      0.11840      1.14650         0.041741     -0.072297      0.000000
      1.74673      3.02542      3.43953        -0.041741     -0.072297      0.000000
      0.77082      1.33511     10.31858         0.041741      0.072297      0.000000
     -0.77083      1.57191     12.61160        -0.041741     -0.072297      0.000000
      0.77082      4.24212      5.73255         0.041741      0.072297      0.000000
      1.74673      0.11840      8.02555        -0.041741     -0.072297      0.000000
      3.28838      2.78861      1.14650         0.041741      0.072297      0.000000
 -----------------------------------------------------------------------------------
    total drift:                                0.015003     -0.016540     -0.000011


--------------------------------------------------------------------------------------------------------



  FREE ENERGIE OF THE ION-ELECTRON SYSTEM (eV)
  ---------------------------------------------------
  free  energy   TOTEN  =      -221.45778319 eV

  energy  without entropy=     -221.45778319  energy(sigma->0) =     -221.45778319
 


--------------------------------------------------------------------------------------------------------


    POTLOK:  cpu time    0.2127: real time    0.2132


--------------------------------------------------------------------------------------------------------


     LOOP+:  cpu time  755.8448: real time  757.9089
    4ORBIT:  cpu time    0.0000: real time    0.0000
 


 total charge     
 
# of ion       s       p       d       tot
------------------------------------------
    1        0.284   6.340   5.852  12.476
    2        0.284   6.340   5.854  12.478
    3        0.284   6.340   5.862  12.486
    4        0.284   6.340   5.852  12.475
    5        0.283   6.340   5.854  12.478
    6        0.284   6.340   5.865  12.489
    7        0.284   6.340   5.851  12.474
    8        0.284   6.340   5.853  12.477
    9        0.283   6.340   5.854  12.477
   10        0.283   6.340   5.868  12.492
   11        0.283   6.340   5.865  12.489
   12        0.283   6.340   5.857  12.480
   13        1.567   3.416   0.000   4.983
   14        1.567   3.415   0.000   4.982
   15        1.567   3.416   0.000   4.983
   16        1.567   3.417   0.000   4.984
   17        1.567   3.417   0.000   4.984
   18        1.567   3.416   0.000   4.983
   19        1.566   3.403   0.000   4.969
   20        1.566   3.403   0.000   4.969
   21        1.566   3.404   0.000   4.970
   22        1.566   3.404   0.000   4.970
   23        1.566   3.404   0.000   4.970
   24        1.566   3.404   0.000   4.970
   25        1.568   3.417   0.000   4.985
   26        1.568   3.416   0.000   4.984
   27        1.568   3.418   0.000   4.986
   28        1.568   3.419   0.000   4.987
   29        1.568   3.419   0.000   4.987
   30        1.568   3.418   0.000   4.986
--------------------------------------------------
tot         31.607 137.507  70.287 239.401
 


 magnetization (x)
 
# of ion       s       p       d       tot
------------------------------------------
    1        0.024   0.036   3.141   3.201
    2        0.024   0.036   3.138   3.198
    3        0.025   0.036   3.135   3.195
    4        0.025   0.036   3.140   3.201
    5        0.025   0.036   3.141   3.201
    6        0.025   0.036   3.132   3.193
    7        0.024   0.036   3.125   3.186
    8        0.024   0.036   3.122   3.183
    9        0.025   0.036   3.123   3.183
   10        0.025   0.036   3.117   3.177
   11        0.025   0.036   3.119   3.180
   12        0.025   0.036   3.123   3.183
   13        0.020   0.139   0.000   0.160
   14        0.020   0.139   0.000   0.159
   15        0.020   0.139   0.000   0.159
   16        0.020   0.140   0.000   0.160
   17        0.020   0.140   0.000   0.161
   18        0.020   0.139   0.000   0.160
   19        0.021   0.143   0.000   0.165
   20        0.021   0.143   0.000   0.164
   21        0.021   0.144   0.000   0.165
   22        0.021   0.144   0.000   0.165
   23        0.021   0.144   0.000   0.165
   24        0.021   0.144   0.000   0.166
   25        0.020   0.136   0.000   0.156
   26        0.020   0.135   0.000   0.155
   27        0.020   0.136   0.000   0.157
   28        0.020   0.137   0.000   0.158
   29        0.020   0.137   0.000   0.157
   30        0.020   0.137   0.000   0.157
--------------------------------------------------
tot          0.668   2.948  37.556  41.172
 
 BZINTS: Fermi energy:  6.181494;276.000000 electrons
         Band energy:***********;  BLOECHL correction: -0.032966

 total amount of memory used by VASP MPI-rank0   153245. kBytes
=======================================================================

   base      :      30000. kBytes
   nonlr-proj:      12409. kBytes
   fftplans  :       8137. kBytes
   grid      :      20656. kBytes
   one-center:        248. kBytes
   wavefun   :      81795. kBytes
 
  
  
 General timing and accounting informations for this job:
 ========================================================
  
                  Total CPU time used (sec):      768.486
                            User time (sec):      766.840
                          System time (sec):        1.646
                         Elapsed time (sec):      770.722
  
                   Maximum memory used (kb):      198804.
                   Average memory used (kb):           0.
  
                          Minor page faults:        85048
                          Major page faults:            0
                 Voluntary context switches:          340
