 vasp.5.4.4.18Apr17-6-g9f103f2a35 (build Apr 28 2018 00:24:27) complex          
  
 executed on             LinuxIFC date 2021.09.07  01:12:08
 running on   24 total cores
 distrk:  each k-point on   24 cores,    1 groups
 distr:  one band on NCORES_PER_BAND=   4 cores,    6 groups


--------------------------------------------------------------------------------------------------------


 INCAR:
 POTCAR:    PAW_PBE Fe_pv 02Aug2007               
 POTCAR:    PAW_PBE Fe_pv 02Aug2007               
   VRHFIN =Fe:  3pd7s1                                                          
   LEXCH  = PE                                                                  
   EATOM  =  2457.4239 eV,  180.6156 Ry                                         
                                                                                
   TITEL  = PAW_PBE Fe_pv 02Aug2007                                             
   LULTRA =        F    use ultrasoft PP ?                                      
   IUNSCR =        1    unscreen: 0-lin 1-nonlin 2-no                           
   RPACOR =    1.750    partial core radius                                     
   POMASS =   55.847; ZVAL   =   14.000    mass and valenz                      
   RCORE  =    2.200    outmost cutoff radius                                   
   RWIGS  =    2.200; RWIGS  =    1.164    wigner-seitz radius (au A)           
   ENMAX  =  293.238; ENMIN  =  219.928 eV                                      
   ICORE  =        3    local potential                                         
   LCOR   =        T    correct aug charges                                     
   LPAW   =        T    paw PP                                                  
   EAUG   =  578.342                                                            
   DEXC   =    0.000                                                            
   RMAX   =    2.249    core radius for proj-oper                               
   RAUG   =    1.300    factor for augmentation sphere                          
   RDEP   =    2.296    radius for radial grids                                 
   RDEPT  =    1.766    core radius for aug-charge                              
                                                                                
   Atomic configuration                                                         
    8 entries                                                                   
     n  l   j            E        occ.                                          
     1  0  0.50     -6993.8440   2.0000                                         
     2  0  0.50      -814.6047   2.0000                                         
     2  1  1.50      -693.3689   6.0000                                         
     3  0  0.50       -89.4732   2.0000                                         
     3  1  1.50       -55.6373   6.0000                                         
     3  2  2.50        -3.8151   7.0000                                         
     4  0  0.50        -4.2551   1.0000                                         
     4  3  2.50        -1.3606   0.0000                                         
   Description                                                                  
     l       E           TYP  RCUT    TYP  RCUT                                 
     1    -55.6372668     23  2.000                                             
     1     -5.4423304     23  2.000                                             
     2     -3.8151096     23  2.200                                             
     2     -5.1756922     23  2.200                                             
     0     -4.2550951     23  2.200                                             
     0     27.2116520     23  2.200                                             
     3     -1.3605826     23  2.200                                             
  local pseudopotential read in
  partial core-charges read in
  partial kinetic energy density read in
  atomic valenz-charges read in
  non local Contribution for L=           1  read in
    real space projection operators read in
  non local Contribution for L=           1  read in
    real space projection operators read in
  non local Contribution for L=           2  read in
    real space projection operators read in
  non local Contribution for L=           2  read in
    real space projection operators read in
  non local Contribution for L=           0  read in
    real space projection operators read in
  non local Contribution for L=           0  read in
    real space projection operators read in
    PAW grid and wavefunctions read in
 
   number of l-projection  operators is LMAX  =           6
   number of lm-projection operators is LMMAX =          18
 

 ----------------------------------------------------------------------------- 
|                                                                             |
|  ADVICE TO THIS USER RUNNING 'VASP/VAMP'   (HEAR YOUR MASTER'S VOICE ...):  |
|                                                                             |
|      You have a (more or less) 'small supercell' and for smaller cells      |
|      it is recommended  to use the reciprocal-space projection scheme!      |
|      The real space optimization is not  efficient for small cells and it   |
|      is also less accurate ...                                              |
|      Therefore set LREAL=.FALSE. in the  INCAR file                         |
|                                                                             |
 ----------------------------------------------------------------------------- 

 Optimization of the real space projectors (new method)

 maximal supplied QI-value         = 17.01
 optimisation between [QCUT,QGAM] = [ 15.48, 30.95] = [ 67.08,268.30] Ry 
 Optimized for a Real-space Cutoff    1.26 Angstroem

   l    n(q)    QCUT    max X(q) W(low)/X(q) W(high)/X(q)  e(spline) 
   1     11    15.477     4.267    0.90E-04    0.14E-03    0.59E-06
   1     11    15.477     5.750    0.14E-03    0.21E-03    0.81E-06
   2     11    15.477    53.656    0.97E-04    0.12E-03    0.26E-06
   2     11    15.477    49.521    0.10E-03    0.12E-03    0.27E-06
   0     12    15.477    31.246    0.35E-04    0.34E-04    0.27E-06
   0     12    15.477    12.201    0.29E-04    0.28E-04    0.22E-06
  PAW_PBE Fe_pv 02Aug2007               :
 energy of atom  1       EATOM=-2457.4239
 kinetic energy error for atom=    0.0010 (will be added to EATOM!!)
 
 
 POSCAR: Fe2                                     
  positions in direct lattice
  No initial velocities read in
 exchange correlation table for  LEXCH =        8
   RHO(1)=    0.500       N(1)  =     2000
   RHO(2)=  100.500       N(2)  =     4000
 


--------------------------------------------------------------------------------------------------------


 ion  position               nearest neighbor table
   1  0.000  0.000  0.000-   2 2.46   2 2.46   2 2.46   2 2.46   2 2.46   2 2.46   2 2.46   2 2.46

   2  0.500  0.500  0.500-   1 2.46   1 2.46   1 2.46   1 2.46   1 2.46   1 2.46   1 2.46   1 2.46

 
  LATTYP: Found a simple cubic cell.
 ALAT       =     2.8400520000
  
  Lattice vectors:
  
 A1 = (   2.8400520000,   0.0000000000,   0.0000000000)
 A2 = (   0.0000000000,   2.8400520000,   0.0000000000)
 A3 = (   0.0000000000,   0.0000000000,   2.8400520000)


Analysis of symmetry for initial positions (statically):
=====================================================================
 Subroutine PRICEL returns following result:
 
  LATTYP: Found a body centered cubic cell.
 ALAT       =     2.8400520000
  
  Lattice vectors:
  
 A1 = (   1.4200260000,   1.4200260000,   1.4200260000)
 A2 = (   1.4200260000,  -1.4200260000,  -1.4200260000)
 A3 = (  -1.4200260000,   1.4200260000,  -1.4200260000)
 
   2 primitive cells build up your supercell.
 

 Routine SETGRP: Setting up the symmetry group for a 
 simple cubic supercell.


 Subroutine GETGRP returns: Found 48 space group operations
 (whereof 48 operations were pure point group operations)
 out of a pool of 48 trial point group operations.


The static configuration has the point symmetry O_h .


Analysis of symmetry for dynamics (positions and initial velocities):
=====================================================================
 Subroutine PRICEL returns following result:
 
  LATTYP: Found a body centered cubic cell.
 ALAT       =     2.8400520000
  
  Lattice vectors:
  
 A1 = (   1.4200260000,   1.4200260000,   1.4200260000)
 A2 = (   1.4200260000,  -1.4200260000,  -1.4200260000)
 A3 = (  -1.4200260000,   1.4200260000,  -1.4200260000)
 
   2 primitive cells build up your supercell.
 

 Routine SETGRP: Setting up the symmetry group for a 
 simple cubic supercell.


 Subroutine GETGRP returns: Found 48 space group operations
 (whereof 48 operations were pure point group operations)
 out of a pool of 48 trial point group operations.


The dynamic configuration has the point symmetry O_h .


Analysis of structural, dynamic, and magnetic symmetry:
=====================================================================
 Subroutine PRICEL returns following result:
 
  LATTYP: Found a body centered cubic cell.
 ALAT       =     2.8400520000
  
  Lattice vectors:
  
 A1 = (   1.4200260000,   1.4200260000,   1.4200260000)
 A2 = (   1.4200260000,  -1.4200260000,  -1.4200260000)
 A3 = (  -1.4200260000,   1.4200260000,  -1.4200260000)
 
   2 primitive cells build up your supercell.
 

 Routine SETGRP: Setting up the symmetry group for a 
 simple cubic supercell.


 Subroutine GETGRP returns: Found 48 space group operations
 (whereof 48 operations were pure point group operations)
 out of a pool of 48 trial point group operations.


The magnetic configuration has the point symmetry O_h .


 Subroutine INISYM returns: Found 48 space group operations
 (whereof 48 operations are pure point group operations),
 and found     2 'primitive' translations

 
 
 KPOINTS: Automatic mesh                          

Automatic generation of k-mesh.
 generate k-points for:   32   32   32
Space group operators:
 irot       det(A)        alpha          n_x          n_y          n_z        tau_x        tau_y        tau_z
    1     1.000000     0.000000     1.000000     0.000000     0.000000     0.000000     0.000000     0.000000
    2    -1.000000     0.000000     1.000000     0.000000     0.000000     0.000000     0.000000     0.000000
    3     1.000000   120.000000    -0.577350    -0.577350    -0.577350     0.000000     0.000000     0.000000
    4    -1.000000   120.000000    -0.577350    -0.577350    -0.577350     0.000000     0.000000     0.000000
    5     1.000000   120.000000     0.577350     0.577350     0.577350     0.000000     0.000000     0.000000
    6    -1.000000   120.000000     0.577350     0.577350     0.577350     0.000000     0.000000     0.000000
    7     1.000000    90.000000     0.000000     0.000000    -1.000000     0.000000     0.000000     0.000000
    8    -1.000000    90.000000     0.000000     0.000000    -1.000000     0.000000     0.000000     0.000000
    9     1.000000   180.000000     0.000000     0.707107     0.707107     0.000000     0.000000     0.000000
   10    -1.000000   180.000000     0.000000     0.707107     0.707107     0.000000     0.000000     0.000000
   11     1.000000    90.000000     0.000000     1.000000     0.000000     0.000000     0.000000     0.000000
   12    -1.000000    90.000000     0.000000     1.000000     0.000000     0.000000     0.000000     0.000000
   13     1.000000   180.000000     0.000000     0.000000     1.000000     0.000000     0.000000     0.000000
   14    -1.000000   180.000000     0.000000     0.000000     1.000000     0.000000     0.000000     0.000000
   15     1.000000   120.000000    -0.577350     0.577350     0.577350     0.000000     0.000000     0.000000
   16    -1.000000   120.000000    -0.577350     0.577350     0.577350     0.000000     0.000000     0.000000
   17     1.000000   120.000000    -0.577350     0.577350    -0.577350     0.000000     0.000000     0.000000
   18    -1.000000   120.000000    -0.577350     0.577350    -0.577350     0.000000     0.000000     0.000000
   19     1.000000    90.000000     0.000000     0.000000     1.000000     0.000000     0.000000     0.000000
   20    -1.000000    90.000000     0.000000     0.000000     1.000000     0.000000     0.000000     0.000000
   21     1.000000    90.000000    -1.000000     0.000000     0.000000     0.000000     0.000000     0.000000
   22    -1.000000    90.000000    -1.000000     0.000000     0.000000     0.000000     0.000000     0.000000
   23     1.000000   180.000000     0.707107     0.000000     0.707107     0.000000     0.000000     0.000000
   24    -1.000000   180.000000     0.707107     0.000000     0.707107     0.000000     0.000000     0.000000
   25     1.000000   120.000000     0.577350    -0.577350     0.577350     0.000000     0.000000     0.000000
   26    -1.000000   120.000000     0.577350    -0.577350     0.577350     0.000000     0.000000     0.000000
   27     1.000000   120.000000    -0.577350    -0.577350     0.577350     0.000000     0.000000     0.000000
   28    -1.000000   120.000000    -0.577350    -0.577350     0.577350     0.000000     0.000000     0.000000
   29     1.000000   180.000000     1.000000     0.000000     0.000000     0.000000     0.000000     0.000000
   30    -1.000000   180.000000     1.000000     0.000000     0.000000     0.000000     0.000000     0.000000
   31     1.000000    90.000000     0.000000    -1.000000     0.000000     0.000000     0.000000     0.000000
   32    -1.000000    90.000000     0.000000    -1.000000     0.000000     0.000000     0.000000     0.000000
   33     1.000000   180.000000     0.707107     0.707107     0.000000     0.000000     0.000000     0.000000
   34    -1.000000   180.000000     0.707107     0.707107     0.000000     0.000000     0.000000     0.000000
   35     1.000000    90.000000     1.000000     0.000000     0.000000     0.000000     0.000000     0.000000
   36    -1.000000    90.000000     1.000000     0.000000     0.000000     0.000000     0.000000     0.000000
   37     1.000000   120.000000     0.577350    -0.577350    -0.577350     0.000000     0.000000     0.000000
   38    -1.000000   120.000000     0.577350    -0.577350    -0.577350     0.000000     0.000000     0.000000
   39     1.000000   180.000000     0.000000     1.000000     0.000000     0.000000     0.000000     0.000000
   40    -1.000000   180.000000     0.000000     1.000000     0.000000     0.000000     0.000000     0.000000
   41     1.000000   120.000000     0.577350     0.577350    -0.577350     0.000000     0.000000     0.000000
   42    -1.000000   120.000000     0.577350     0.577350    -0.577350     0.000000     0.000000     0.000000
   43     1.000000   180.000000     0.000000    -0.707107     0.707107     0.000000     0.000000     0.000000
   44    -1.000000   180.000000     0.000000    -0.707107     0.707107     0.000000     0.000000     0.000000
   45     1.000000   180.000000     0.707107    -0.707107     0.000000     0.000000     0.000000     0.000000
   46    -1.000000   180.000000     0.707107    -0.707107     0.000000     0.000000     0.000000     0.000000
   47     1.000000   180.000000     0.707107     0.000000    -0.707107     0.000000     0.000000     0.000000
   48    -1.000000   180.000000     0.707107     0.000000    -0.707107     0.000000     0.000000     0.000000
 
 Subroutine IBZKPT returns following result:
 ===========================================
 
 Found    969 irreducible k-points:
 
 Following reciprocal coordinates:
            Coordinates               Weight
  0.000000  0.000000  0.000000      1.000000
  0.031250  0.000000  0.000000      6.000000
  0.062500  0.000000  0.000000      6.000000
  0.093750  0.000000  0.000000      6.000000
  0.125000  0.000000  0.000000      6.000000
  0.156250  0.000000  0.000000      6.000000
  0.187500  0.000000  0.000000      6.000000
  0.218750  0.000000  0.000000      6.000000
  0.250000  0.000000  0.000000      6.000000
  0.281250  0.000000  0.000000      6.000000
  0.312500  0.000000  0.000000      6.000000
  0.343750  0.000000  0.000000      6.000000
  0.375000  0.000000  0.000000      6.000000
  0.406250  0.000000  0.000000      6.000000
  0.437500  0.000000  0.000000      6.000000
  0.468750  0.000000  0.000000      6.000000
  0.500000  0.000000  0.000000      3.000000
  0.031250  0.031250  0.000000     12.000000
  0.062500  0.031250  0.000000     24.000000
  0.093750  0.031250  0.000000     24.000000
  0.125000  0.031250  0.000000     24.000000
  0.156250  0.031250  0.000000     24.000000
  0.187500  0.031250  0.000000     24.000000
  0.218750  0.031250  0.000000     24.000000
  0.250000  0.031250  0.000000     24.000000
  0.281250  0.031250  0.000000     24.000000
  0.312500  0.031250  0.000000     24.000000
  0.343750  0.031250  0.000000     24.000000
  0.375000  0.031250  0.000000     24.000000
  0.406250  0.031250  0.000000     24.000000
  0.437500  0.031250  0.000000     24.000000
  0.468750  0.031250  0.000000     24.000000
  0.500000  0.031250  0.000000     12.000000
  0.062500  0.062500  0.000000     12.000000
  0.093750  0.062500  0.000000     24.000000
  0.125000  0.062500  0.000000     24.000000
  0.156250  0.062500  0.000000     24.000000
  0.187500  0.062500  0.000000     24.000000
  0.218750  0.062500  0.000000     24.000000
  0.250000  0.062500  0.000000     24.000000
  0.281250  0.062500  0.000000     24.000000
  0.312500  0.062500  0.000000     24.000000
  0.343750  0.062500  0.000000     24.000000
  0.375000  0.062500  0.000000     24.000000
  0.406250  0.062500  0.000000     24.000000
  0.437500  0.062500  0.000000     24.000000
  0.468750  0.062500  0.000000     24.000000
  0.500000  0.062500  0.000000     12.000000
  0.093750  0.093750  0.000000     12.000000
  0.125000  0.093750  0.000000     24.000000
  0.156250  0.093750  0.000000     24.000000
  0.187500  0.093750  0.000000     24.000000
  0.218750  0.093750  0.000000     24.000000
  0.250000  0.093750  0.000000     24.000000
  0.281250  0.093750  0.000000     24.000000
  0.312500  0.093750  0.000000     24.000000
  0.343750  0.093750  0.000000     24.000000
  0.375000  0.093750  0.000000     24.000000
  0.406250  0.093750  0.000000     24.000000
  0.437500  0.093750  0.000000     24.000000
  0.468750  0.093750  0.000000     24.000000
  0.500000  0.093750  0.000000     12.000000
  0.125000  0.125000  0.000000     12.000000
  0.156250  0.125000  0.000000     24.000000
  0.187500  0.125000  0.000000     24.000000
  0.218750  0.125000  0.000000     24.000000
  0.250000  0.125000  0.000000     24.000000
  0.281250  0.125000  0.000000     24.000000
  0.312500  0.125000  0.000000     24.000000
  0.343750  0.125000  0.000000     24.000000
  0.375000  0.125000  0.000000     24.000000
  0.406250  0.125000  0.000000     24.000000
  0.437500  0.125000  0.000000     24.000000
  0.468750  0.125000  0.000000     24.000000
  0.500000  0.125000  0.000000     12.000000
  0.156250  0.156250  0.000000     12.000000
  0.187500  0.156250  0.000000     24.000000
  0.218750  0.156250  0.000000     24.000000
  0.250000  0.156250  0.000000     24.000000
  0.281250  0.156250  0.000000     24.000000
  0.312500  0.156250  0.000000     24.000000
  0.343750  0.156250  0.000000     24.000000
  0.375000  0.156250  0.000000     24.000000
  0.406250  0.156250  0.000000     24.000000
  0.437500  0.156250  0.000000     24.000000
  0.468750  0.156250  0.000000     24.000000
  0.500000  0.156250  0.000000     12.000000
  0.187500  0.187500  0.000000     12.000000
  0.218750  0.187500  0.000000     24.000000
  0.250000  0.187500  0.000000     24.000000
  0.281250  0.187500  0.000000     24.000000
  0.312500  0.187500  0.000000     24.000000
  0.343750  0.187500  0.000000     24.000000
  0.375000  0.187500  0.000000     24.000000
  0.406250  0.187500  0.000000     24.000000
  0.437500  0.187500  0.000000     24.000000
  0.468750  0.187500  0.000000     24.000000
  0.500000  0.187500  0.000000     12.000000
  0.218750  0.218750  0.000000     12.000000
  0.250000  0.218750  0.000000     24.000000
  0.281250  0.218750  0.000000     24.000000
  0.312500  0.218750  0.000000     24.000000
  0.343750  0.218750  0.000000     24.000000
  0.375000  0.218750  0.000000     24.000000
  0.406250  0.218750  0.000000     24.000000
  0.437500  0.218750  0.000000     24.000000
  0.468750  0.218750  0.000000     24.000000
  0.500000  0.218750  0.000000     12.000000
  0.250000  0.250000  0.000000     12.000000
  0.281250  0.250000  0.000000     24.000000
  0.312500  0.250000  0.000000     24.000000
  0.343750  0.250000  0.000000     24.000000
  0.375000  0.250000  0.000000     24.000000
  0.406250  0.250000  0.000000     24.000000
  0.437500  0.250000  0.000000     24.000000
  0.468750  0.250000  0.000000     24.000000
  0.500000  0.250000  0.000000     12.000000
  0.281250  0.281250  0.000000     12.000000
  0.312500  0.281250  0.000000     24.000000
  0.343750  0.281250  0.000000     24.000000
  0.375000  0.281250  0.000000     24.000000
  0.406250  0.281250  0.000000     24.000000
  0.437500  0.281250  0.000000     24.000000
  0.468750  0.281250  0.000000     24.000000
  0.500000  0.281250  0.000000     12.000000
  0.312500  0.312500  0.000000     12.000000
  0.343750  0.312500  0.000000     24.000000
  0.375000  0.312500  0.000000     24.000000
  0.406250  0.312500  0.000000     24.000000
  0.437500  0.312500  0.000000     24.000000
  0.468750  0.312500  0.000000     24.000000
  0.500000  0.312500  0.000000     12.000000
  0.343750  0.343750  0.000000     12.000000
  0.375000  0.343750  0.000000     24.000000
  0.406250  0.343750  0.000000     24.000000
  0.437500  0.343750  0.000000     24.000000
  0.468750  0.343750  0.000000     24.000000
  0.500000  0.343750  0.000000     12.000000
  0.375000  0.375000  0.000000     12.000000
  0.406250  0.375000  0.000000     24.000000
  0.437500  0.375000  0.000000     24.000000
  0.468750  0.375000  0.000000     24.000000
  0.500000  0.375000  0.000000     12.000000
  0.406250  0.406250  0.000000     12.000000
  0.437500  0.406250  0.000000     24.000000
  0.468750  0.406250  0.000000     24.000000
  0.500000  0.406250  0.000000     12.000000
  0.437500  0.437500  0.000000     12.000000
  0.468750  0.437500  0.000000     24.000000
  0.500000  0.437500  0.000000     12.000000
  0.468750  0.468750  0.000000     12.000000
  0.500000  0.468750  0.000000     12.000000
  0.500000  0.500000  0.000000      3.000000
  0.031250  0.031250  0.031250      8.000000
  0.062500  0.031250  0.031250     24.000000
  0.093750  0.031250  0.031250     24.000000
  0.125000  0.031250  0.031250     24.000000
  0.156250  0.031250  0.031250     24.000000
  0.187500  0.031250  0.031250     24.000000
  0.218750  0.031250  0.031250     24.000000
  0.250000  0.031250  0.031250     24.000000
  0.281250  0.031250  0.031250     24.000000
  0.312500  0.031250  0.031250     24.000000
  0.343750  0.031250  0.031250     24.000000
  0.375000  0.031250  0.031250     24.000000
  0.406250  0.031250  0.031250     24.000000
  0.437500  0.031250  0.031250     24.000000
  0.468750  0.031250  0.031250     24.000000
  0.500000  0.031250  0.031250     12.000000
  0.062500  0.062500  0.031250     24.000000
  0.093750  0.062500  0.031250     48.000000
  0.125000  0.062500  0.031250     48.000000
  0.156250  0.062500  0.031250     48.000000
  0.187500  0.062500  0.031250     48.000000
  0.218750  0.062500  0.031250     48.000000
  0.250000  0.062500  0.031250     48.000000
  0.281250  0.062500  0.031250     48.000000
  0.312500  0.062500  0.031250     48.000000
  0.343750  0.062500  0.031250     48.000000
  0.375000  0.062500  0.031250     48.000000
  0.406250  0.062500  0.031250     48.000000
  0.437500  0.062500  0.031250     48.000000
  0.468750  0.062500  0.031250     48.000000
  0.500000  0.062500  0.031250     24.000000
  0.093750  0.093750  0.031250     24.000000
  0.125000  0.093750  0.031250     48.000000
  0.156250  0.093750  0.031250     48.000000
  0.187500  0.093750  0.031250     48.000000
  0.218750  0.093750  0.031250     48.000000
  0.250000  0.093750  0.031250     48.000000
  0.281250  0.093750  0.031250     48.000000
  0.312500  0.093750  0.031250     48.000000
  0.343750  0.093750  0.031250     48.000000
  0.375000  0.093750  0.031250     48.000000
  0.406250  0.093750  0.031250     48.000000
  0.437500  0.093750  0.031250     48.000000
  0.468750  0.093750  0.031250     48.000000
  0.500000  0.093750  0.031250     24.000000
  0.125000  0.125000  0.031250     24.000000
  0.156250  0.125000  0.031250     48.000000
  0.187500  0.125000  0.031250     48.000000
  0.218750  0.125000  0.031250     48.000000
  0.250000  0.125000  0.031250     48.000000
  0.281250  0.125000  0.031250     48.000000
  0.312500  0.125000  0.031250     48.000000
  0.343750  0.125000  0.031250     48.000000
  0.375000  0.125000  0.031250     48.000000
  0.406250  0.125000  0.031250     48.000000
  0.437500  0.125000  0.031250     48.000000
  0.468750  0.125000  0.031250     48.000000
  0.500000  0.125000  0.031250     24.000000
  0.156250  0.156250  0.031250     24.000000
  0.187500  0.156250  0.031250     48.000000
  0.218750  0.156250  0.031250     48.000000
  0.250000  0.156250  0.031250     48.000000
  0.281250  0.156250  0.031250     48.000000
  0.312500  0.156250  0.031250     48.000000
  0.343750  0.156250  0.031250     48.000000
  0.375000  0.156250  0.031250     48.000000
  0.406250  0.156250  0.031250     48.000000
  0.437500  0.156250  0.031250     48.000000
  0.468750  0.156250  0.031250     48.000000
  0.500000  0.156250  0.031250     24.000000
  0.187500  0.187500  0.031250     24.000000
  0.218750  0.187500  0.031250     48.000000
  0.250000  0.187500  0.031250     48.000000
  0.281250  0.187500  0.031250     48.000000
  0.312500  0.187500  0.031250     48.000000
  0.343750  0.187500  0.031250     48.000000
  0.375000  0.187500  0.031250     48.000000
  0.406250  0.187500  0.031250     48.000000
  0.437500  0.187500  0.031250     48.000000
  0.468750  0.187500  0.031250     48.000000
  0.500000  0.187500  0.031250     24.000000
  0.218750  0.218750  0.031250     24.000000
  0.250000  0.218750  0.031250     48.000000
  0.281250  0.218750  0.031250     48.000000
  0.312500  0.218750  0.031250     48.000000
  0.343750  0.218750  0.031250     48.000000
  0.375000  0.218750  0.031250     48.000000
  0.406250  0.218750  0.031250     48.000000
  0.437500  0.218750  0.031250     48.000000
  0.468750  0.218750  0.031250     48.000000
  0.500000  0.218750  0.031250     24.000000
  0.250000  0.250000  0.031250     24.000000
  0.281250  0.250000  0.031250     48.000000
  0.312500  0.250000  0.031250     48.000000
  0.343750  0.250000  0.031250     48.000000
  0.375000  0.250000  0.031250     48.000000
  0.406250  0.250000  0.031250     48.000000
  0.437500  0.250000  0.031250     48.000000
  0.468750  0.250000  0.031250     48.000000
  0.500000  0.250000  0.031250     24.000000
  0.281250  0.281250  0.031250     24.000000
  0.312500  0.281250  0.031250     48.000000
  0.343750  0.281250  0.031250     48.000000
  0.375000  0.281250  0.031250     48.000000
  0.406250  0.281250  0.031250     48.000000
  0.437500  0.281250  0.031250     48.000000
  0.468750  0.281250  0.031250     48.000000
  0.500000  0.281250  0.031250     24.000000
  0.312500  0.312500  0.031250     24.000000
  0.343750  0.312500  0.031250     48.000000
  0.375000  0.312500  0.031250     48.000000
  0.406250  0.312500  0.031250     48.000000
  0.437500  0.312500  0.031250     48.000000
  0.468750  0.312500  0.031250     48.000000
  0.500000  0.312500  0.031250     24.000000
  0.343750  0.343750  0.031250     24.000000
  0.375000  0.343750  0.031250     48.000000
  0.406250  0.343750  0.031250     48.000000
  0.437500  0.343750  0.031250     48.000000
  0.468750  0.343750  0.031250     48.000000
  0.500000  0.343750  0.031250     24.000000
  0.375000  0.375000  0.031250     24.000000
  0.406250  0.375000  0.031250     48.000000
  0.437500  0.375000  0.031250     48.000000
  0.468750  0.375000  0.031250     48.000000
  0.500000  0.375000  0.031250     24.000000
  0.406250  0.406250  0.031250     24.000000
  0.437500  0.406250  0.031250     48.000000
  0.468750  0.406250  0.031250     48.000000
  0.500000  0.406250  0.031250     24.000000
  0.437500  0.437500  0.031250     24.000000
  0.468750  0.437500  0.031250     48.000000
  0.500000  0.437500  0.031250     24.000000
  0.468750  0.468750  0.031250     24.000000
  0.500000  0.468750  0.031250     24.000000
  0.500000  0.500000  0.031250      6.000000
  0.062500  0.062500  0.062500      8.000000
  0.093750  0.062500  0.062500     24.000000
  0.125000  0.062500  0.062500     24.000000
  0.156250  0.062500  0.062500     24.000000
  0.187500  0.062500  0.062500     24.000000
  0.218750  0.062500  0.062500     24.000000
  0.250000  0.062500  0.062500     24.000000
  0.281250  0.062500  0.062500     24.000000
  0.312500  0.062500  0.062500     24.000000
  0.343750  0.062500  0.062500     24.000000
  0.375000  0.062500  0.062500     24.000000
  0.406250  0.062500  0.062500     24.000000
  0.437500  0.062500  0.062500     24.000000
  0.468750  0.062500  0.062500     24.000000
  0.500000  0.062500  0.062500     12.000000
  0.093750  0.093750  0.062500     24.000000
  0.125000  0.093750  0.062500     48.000000
  0.156250  0.093750  0.062500     48.000000
  0.187500  0.093750  0.062500     48.000000
  0.218750  0.093750  0.062500     48.000000
  0.250000  0.093750  0.062500     48.000000
  0.281250  0.093750  0.062500     48.000000
  0.312500  0.093750  0.062500     48.000000
  0.343750  0.093750  0.062500     48.000000
  0.375000  0.093750  0.062500     48.000000
  0.406250  0.093750  0.062500     48.000000
  0.437500  0.093750  0.062500     48.000000
  0.468750  0.093750  0.062500     48.000000
  0.500000  0.093750  0.062500     24.000000
  0.125000  0.125000  0.062500     24.000000
  0.156250  0.125000  0.062500     48.000000
  0.187500  0.125000  0.062500     48.000000
  0.218750  0.125000  0.062500     48.000000
  0.250000  0.125000  0.062500     48.000000
  0.281250  0.125000  0.062500     48.000000
  0.312500  0.125000  0.062500     48.000000
  0.343750  0.125000  0.062500     48.000000
  0.375000  0.125000  0.062500     48.000000
  0.406250  0.125000  0.062500     48.000000
  0.437500  0.125000  0.062500     48.000000
  0.468750  0.125000  0.062500     48.000000
  0.500000  0.125000  0.062500     24.000000
  0.156250  0.156250  0.062500     24.000000
  0.187500  0.156250  0.062500     48.000000
  0.218750  0.156250  0.062500     48.000000
  0.250000  0.156250  0.062500     48.000000
  0.281250  0.156250  0.062500     48.000000
  0.312500  0.156250  0.062500     48.000000
  0.343750  0.156250  0.062500     48.000000
  0.375000  0.156250  0.062500     48.000000
  0.406250  0.156250  0.062500     48.000000
  0.437500  0.156250  0.062500     48.000000
  0.468750  0.156250  0.062500     48.000000
  0.500000  0.156250  0.062500     24.000000
  0.187500  0.187500  0.062500     24.000000
  0.218750  0.187500  0.062500     48.000000
  0.250000  0.187500  0.062500     48.000000
  0.281250  0.187500  0.062500     48.000000
  0.312500  0.187500  0.062500     48.000000
  0.343750  0.187500  0.062500     48.000000
  0.375000  0.187500  0.062500     48.000000
  0.406250  0.187500  0.062500     48.000000
  0.437500  0.187500  0.062500     48.000000
  0.468750  0.187500  0.062500     48.000000
  0.500000  0.187500  0.062500     24.000000
  0.218750  0.218750  0.062500     24.000000
  0.250000  0.218750  0.062500     48.000000
  0.281250  0.218750  0.062500     48.000000
  0.312500  0.218750  0.062500     48.000000
  0.343750  0.218750  0.062500     48.000000
  0.375000  0.218750  0.062500     48.000000
  0.406250  0.218750  0.062500     48.000000
  0.437500  0.218750  0.062500     48.000000
  0.468750  0.218750  0.062500     48.000000
  0.500000  0.218750  0.062500     24.000000
  0.250000  0.250000  0.062500     24.000000
  0.281250  0.250000  0.062500     48.000000
  0.312500  0.250000  0.062500     48.000000
  0.343750  0.250000  0.062500     48.000000
  0.375000  0.250000  0.062500     48.000000
  0.406250  0.250000  0.062500     48.000000
  0.437500  0.250000  0.062500     48.000000
  0.468750  0.250000  0.062500     48.000000
  0.500000  0.250000  0.062500     24.000000
  0.281250  0.281250  0.062500     24.000000
  0.312500  0.281250  0.062500     48.000000
  0.343750  0.281250  0.062500     48.000000
  0.375000  0.281250  0.062500     48.000000
  0.406250  0.281250  0.062500     48.000000
  0.437500  0.281250  0.062500     48.000000
  0.468750  0.281250  0.062500     48.000000
  0.500000  0.281250  0.062500     24.000000
  0.312500  0.312500  0.062500     24.000000
  0.343750  0.312500  0.062500     48.000000
  0.375000  0.312500  0.062500     48.000000
  0.406250  0.312500  0.062500     48.000000
  0.437500  0.312500  0.062500     48.000000
  0.468750  0.312500  0.062500     48.000000
  0.500000  0.312500  0.062500     24.000000
  0.343750  0.343750  0.062500     24.000000
  0.375000  0.343750  0.062500     48.000000
  0.406250  0.343750  0.062500     48.000000
  0.437500  0.343750  0.062500     48.000000
  0.468750  0.343750  0.062500     48.000000
  0.500000  0.343750  0.062500     24.000000
  0.375000  0.375000  0.062500     24.000000
  0.406250  0.375000  0.062500     48.000000
  0.437500  0.375000  0.062500     48.000000
  0.468750  0.375000  0.062500     48.000000
  0.500000  0.375000  0.062500     24.000000
  0.406250  0.406250  0.062500     24.000000
  0.437500  0.406250  0.062500     48.000000
  0.468750  0.406250  0.062500     48.000000
  0.500000  0.406250  0.062500     24.000000
  0.437500  0.437500  0.062500     24.000000
  0.468750  0.437500  0.062500     48.000000
  0.500000  0.437500  0.062500     24.000000
  0.468750  0.468750  0.062500     24.000000
  0.500000  0.468750  0.062500     24.000000
  0.500000  0.500000  0.062500      6.000000
  0.093750  0.093750  0.093750      8.000000
  0.125000  0.093750  0.093750     24.000000
  0.156250  0.093750  0.093750     24.000000
  0.187500  0.093750  0.093750     24.000000
  0.218750  0.093750  0.093750     24.000000
  0.250000  0.093750  0.093750     24.000000
  0.281250  0.093750  0.093750     24.000000
  0.312500  0.093750  0.093750     24.000000
  0.343750  0.093750  0.093750     24.000000
  0.375000  0.093750  0.093750     24.000000
  0.406250  0.093750  0.093750     24.000000
  0.437500  0.093750  0.093750     24.000000
  0.468750  0.093750  0.093750     24.000000
  0.500000  0.093750  0.093750     12.000000
  0.125000  0.125000  0.093750     24.000000
  0.156250  0.125000  0.093750     48.000000
  0.187500  0.125000  0.093750     48.000000
  0.218750  0.125000  0.093750     48.000000
  0.250000  0.125000  0.093750     48.000000
  0.281250  0.125000  0.093750     48.000000
  0.312500  0.125000  0.093750     48.000000
  0.343750  0.125000  0.093750     48.000000
  0.375000  0.125000  0.093750     48.000000
  0.406250  0.125000  0.093750     48.000000
  0.437500  0.125000  0.093750     48.000000
  0.468750  0.125000  0.093750     48.000000
  0.500000  0.125000  0.093750     24.000000
  0.156250  0.156250  0.093750     24.000000
  0.187500  0.156250  0.093750     48.000000
  0.218750  0.156250  0.093750     48.000000
  0.250000  0.156250  0.093750     48.000000
  0.281250  0.156250  0.093750     48.000000
  0.312500  0.156250  0.093750     48.000000
  0.343750  0.156250  0.093750     48.000000
  0.375000  0.156250  0.093750     48.000000
  0.406250  0.156250  0.093750     48.000000
  0.437500  0.156250  0.093750     48.000000
  0.468750  0.156250  0.093750     48.000000
  0.500000  0.156250  0.093750     24.000000
  0.187500  0.187500  0.093750     24.000000
  0.218750  0.187500  0.093750     48.000000
  0.250000  0.187500  0.093750     48.000000
  0.281250  0.187500  0.093750     48.000000
  0.312500  0.187500  0.093750     48.000000
  0.343750  0.187500  0.093750     48.000000
  0.375000  0.187500  0.093750     48.000000
  0.406250  0.187500  0.093750     48.000000
  0.437500  0.187500  0.093750     48.000000
  0.468750  0.187500  0.093750     48.000000
  0.500000  0.187500  0.093750     24.000000
  0.218750  0.218750  0.093750     24.000000
  0.250000  0.218750  0.093750     48.000000
  0.281250  0.218750  0.093750     48.000000
  0.312500  0.218750  0.093750     48.000000
  0.343750  0.218750  0.093750     48.000000
  0.375000  0.218750  0.093750     48.000000
  0.406250  0.218750  0.093750     48.000000
  0.437500  0.218750  0.093750     48.000000
  0.468750  0.218750  0.093750     48.000000
  0.500000  0.218750  0.093750     24.000000
  0.250000  0.250000  0.093750     24.000000
  0.281250  0.250000  0.093750     48.000000
  0.312500  0.250000  0.093750     48.000000
  0.343750  0.250000  0.093750     48.000000
  0.375000  0.250000  0.093750     48.000000
  0.406250  0.250000  0.093750     48.000000
  0.437500  0.250000  0.093750     48.000000
  0.468750  0.250000  0.093750     48.000000
  0.500000  0.250000  0.093750     24.000000
  0.281250  0.281250  0.093750     24.000000
  0.312500  0.281250  0.093750     48.000000
  0.343750  0.281250  0.093750     48.000000
  0.375000  0.281250  0.093750     48.000000
  0.406250  0.281250  0.093750     48.000000
  0.437500  0.281250  0.093750     48.000000
  0.468750  0.281250  0.093750     48.000000
  0.500000  0.281250  0.093750     24.000000
  0.312500  0.312500  0.093750     24.000000
  0.343750  0.312500  0.093750     48.000000
  0.375000  0.312500  0.093750     48.000000
  0.406250  0.312500  0.093750     48.000000
  0.437500  0.312500  0.093750     48.000000
  0.468750  0.312500  0.093750     48.000000
  0.500000  0.312500  0.093750     24.000000
  0.343750  0.343750  0.093750     24.000000
  0.375000  0.343750  0.093750     48.000000
  0.406250  0.343750  0.093750     48.000000
  0.437500  0.343750  0.093750     48.000000
  0.468750  0.343750  0.093750     48.000000
  0.500000  0.343750  0.093750     24.000000
  0.375000  0.375000  0.093750     24.000000
  0.406250  0.375000  0.093750     48.000000
  0.437500  0.375000  0.093750     48.000000
  0.468750  0.375000  0.093750     48.000000
  0.500000  0.375000  0.093750     24.000000
  0.406250  0.406250  0.093750     24.000000
  0.437500  0.406250  0.093750     48.000000
  0.468750  0.406250  0.093750     48.000000
  0.500000  0.406250  0.093750     24.000000
  0.437500  0.437500  0.093750     24.000000
  0.468750  0.437500  0.093750     48.000000
  0.500000  0.437500  0.093750     24.000000
  0.468750  0.468750  0.093750     24.000000
  0.500000  0.468750  0.093750     24.000000
  0.500000  0.500000  0.093750      6.000000
  0.125000  0.125000  0.125000      8.000000
  0.156250  0.125000  0.125000     24.000000
  0.187500  0.125000  0.125000     24.000000
  0.218750  0.125000  0.125000     24.000000
  0.250000  0.125000  0.125000     24.000000
  0.281250  0.125000  0.125000     24.000000
  0.312500  0.125000  0.125000     24.000000
  0.343750  0.125000  0.125000     24.000000
  0.375000  0.125000  0.125000     24.000000
  0.406250  0.125000  0.125000     24.000000
  0.437500  0.125000  0.125000     24.000000
  0.468750  0.125000  0.125000     24.000000
  0.500000  0.125000  0.125000     12.000000
  0.156250  0.156250  0.125000     24.000000
  0.187500  0.156250  0.125000     48.000000
  0.218750  0.156250  0.125000     48.000000
  0.250000  0.156250  0.125000     48.000000
  0.281250  0.156250  0.125000     48.000000
  0.312500  0.156250  0.125000     48.000000
  0.343750  0.156250  0.125000     48.000000
  0.375000  0.156250  0.125000     48.000000
  0.406250  0.156250  0.125000     48.000000
  0.437500  0.156250  0.125000     48.000000
  0.468750  0.156250  0.125000     48.000000
  0.500000  0.156250  0.125000     24.000000
  0.187500  0.187500  0.125000     24.000000
  0.218750  0.187500  0.125000     48.000000
  0.250000  0.187500  0.125000     48.000000
  0.281250  0.187500  0.125000     48.000000
  0.312500  0.187500  0.125000     48.000000
  0.343750  0.187500  0.125000     48.000000
  0.375000  0.187500  0.125000     48.000000
  0.406250  0.187500  0.125000     48.000000
  0.437500  0.187500  0.125000     48.000000
  0.468750  0.187500  0.125000     48.000000
  0.500000  0.187500  0.125000     24.000000
  0.218750  0.218750  0.125000     24.000000
  0.250000  0.218750  0.125000     48.000000
  0.281250  0.218750  0.125000     48.000000
  0.312500  0.218750  0.125000     48.000000
  0.343750  0.218750  0.125000     48.000000
  0.375000  0.218750  0.125000     48.000000
  0.406250  0.218750  0.125000     48.000000
  0.437500  0.218750  0.125000     48.000000
  0.468750  0.218750  0.125000     48.000000
  0.500000  0.218750  0.125000     24.000000
  0.250000  0.250000  0.125000     24.000000
  0.281250  0.250000  0.125000     48.000000
  0.312500  0.250000  0.125000     48.000000
  0.343750  0.250000  0.125000     48.000000
  0.375000  0.250000  0.125000     48.000000
  0.406250  0.250000  0.125000     48.000000
  0.437500  0.250000  0.125000     48.000000
  0.468750  0.250000  0.125000     48.000000
  0.500000  0.250000  0.125000     24.000000
  0.281250  0.281250  0.125000     24.000000
  0.312500  0.281250  0.125000     48.000000
  0.343750  0.281250  0.125000     48.000000
  0.375000  0.281250  0.125000     48.000000
  0.406250  0.281250  0.125000     48.000000
  0.437500  0.281250  0.125000     48.000000
  0.468750  0.281250  0.125000     48.000000
  0.500000  0.281250  0.125000     24.000000
  0.312500  0.312500  0.125000     24.000000
  0.343750  0.312500  0.125000     48.000000
  0.375000  0.312500  0.125000     48.000000
  0.406250  0.312500  0.125000     48.000000
  0.437500  0.312500  0.125000     48.000000
  0.468750  0.312500  0.125000     48.000000
  0.500000  0.312500  0.125000     24.000000
  0.343750  0.343750  0.125000     24.000000
  0.375000  0.343750  0.125000     48.000000
  0.406250  0.343750  0.125000     48.000000
  0.437500  0.343750  0.125000     48.000000
  0.468750  0.343750  0.125000     48.000000
  0.500000  0.343750  0.125000     24.000000
  0.375000  0.375000  0.125000     24.000000
  0.406250  0.375000  0.125000     48.000000
  0.437500  0.375000  0.125000     48.000000
  0.468750  0.375000  0.125000     48.000000
  0.500000  0.375000  0.125000     24.000000
  0.406250  0.406250  0.125000     24.000000
  0.437500  0.406250  0.125000     48.000000
  0.468750  0.406250  0.125000     48.000000
  0.500000  0.406250  0.125000     24.000000
  0.437500  0.437500  0.125000     24.000000
  0.468750  0.437500  0.125000     48.000000
  0.500000  0.437500  0.125000     24.000000
  0.468750  0.468750  0.125000     24.000000
  0.500000  0.468750  0.125000     24.000000
  0.500000  0.500000  0.125000      6.000000
  0.156250  0.156250  0.156250      8.000000
  0.187500  0.156250  0.156250     24.000000
  0.218750  0.156250  0.156250     24.000000
  0.250000  0.156250  0.156250     24.000000
  0.281250  0.156250  0.156250     24.000000
  0.312500  0.156250  0.156250     24.000000
  0.343750  0.156250  0.156250     24.000000
  0.375000  0.156250  0.156250     24.000000
  0.406250  0.156250  0.156250     24.000000
  0.437500  0.156250  0.156250     24.000000
  0.468750  0.156250  0.156250     24.000000
  0.500000  0.156250  0.156250     12.000000
  0.187500  0.187500  0.156250     24.000000
  0.218750  0.187500  0.156250     48.000000
  0.250000  0.187500  0.156250     48.000000
  0.281250  0.187500  0.156250     48.000000
  0.312500  0.187500  0.156250     48.000000
  0.343750  0.187500  0.156250     48.000000
  0.375000  0.187500  0.156250     48.000000
  0.406250  0.187500  0.156250     48.000000
  0.437500  0.187500  0.156250     48.000000
  0.468750  0.187500  0.156250     48.000000
  0.500000  0.187500  0.156250     24.000000
  0.218750  0.218750  0.156250     24.000000
  0.250000  0.218750  0.156250     48.000000
  0.281250  0.218750  0.156250     48.000000
  0.312500  0.218750  0.156250     48.000000
  0.343750  0.218750  0.156250     48.000000
  0.375000  0.218750  0.156250     48.000000
  0.406250  0.218750  0.156250     48.000000
  0.437500  0.218750  0.156250     48.000000
  0.468750  0.218750  0.156250     48.000000
  0.500000  0.218750  0.156250     24.000000
  0.250000  0.250000  0.156250     24.000000
  0.281250  0.250000  0.156250     48.000000
  0.312500  0.250000  0.156250     48.000000
  0.343750  0.250000  0.156250     48.000000
  0.375000  0.250000  0.156250     48.000000
  0.406250  0.250000  0.156250     48.000000
  0.437500  0.250000  0.156250     48.000000
  0.468750  0.250000  0.156250     48.000000
  0.500000  0.250000  0.156250     24.000000
  0.281250  0.281250  0.156250     24.000000
  0.312500  0.281250  0.156250     48.000000
  0.343750  0.281250  0.156250     48.000000
  0.375000  0.281250  0.156250     48.000000
  0.406250  0.281250  0.156250     48.000000
  0.437500  0.281250  0.156250     48.000000
  0.468750  0.281250  0.156250     48.000000
  0.500000  0.281250  0.156250     24.000000
  0.312500  0.312500  0.156250     24.000000
  0.343750  0.312500  0.156250     48.000000
  0.375000  0.312500  0.156250     48.000000
  0.406250  0.312500  0.156250     48.000000
  0.437500  0.312500  0.156250     48.000000
  0.468750  0.312500  0.156250     48.000000
  0.500000  0.312500  0.156250     24.000000
  0.343750  0.343750  0.156250     24.000000
  0.375000  0.343750  0.156250     48.000000
  0.406250  0.343750  0.156250     48.000000
  0.437500  0.343750  0.156250     48.000000
  0.468750  0.343750  0.156250     48.000000
  0.500000  0.343750  0.156250     24.000000
  0.375000  0.375000  0.156250     24.000000
  0.406250  0.375000  0.156250     48.000000
  0.437500  0.375000  0.156250     48.000000
  0.468750  0.375000  0.156250     48.000000
  0.500000  0.375000  0.156250     24.000000
  0.406250  0.406250  0.156250     24.000000
  0.437500  0.406250  0.156250     48.000000
  0.468750  0.406250  0.156250     48.000000
  0.500000  0.406250  0.156250     24.000000
  0.437500  0.437500  0.156250     24.000000
  0.468750  0.437500  0.156250     48.000000
  0.500000  0.437500  0.156250     24.000000
  0.468750  0.468750  0.156250     24.000000
  0.500000  0.468750  0.156250     24.000000
  0.500000  0.500000  0.156250      6.000000
  0.187500  0.187500  0.187500      8.000000
  0.218750  0.187500  0.187500     24.000000
  0.250000  0.187500  0.187500     24.000000
  0.281250  0.187500  0.187500     24.000000
  0.312500  0.187500  0.187500     24.000000
  0.343750  0.187500  0.187500     24.000000
  0.375000  0.187500  0.187500     24.000000
  0.406250  0.187500  0.187500     24.000000
  0.437500  0.187500  0.187500     24.000000
  0.468750  0.187500  0.187500     24.000000
  0.500000  0.187500  0.187500     12.000000
  0.218750  0.218750  0.187500     24.000000
  0.250000  0.218750  0.187500     48.000000
  0.281250  0.218750  0.187500     48.000000
  0.312500  0.218750  0.187500     48.000000
  0.343750  0.218750  0.187500     48.000000
  0.375000  0.218750  0.187500     48.000000
  0.406250  0.218750  0.187500     48.000000
  0.437500  0.218750  0.187500     48.000000
  0.468750  0.218750  0.187500     48.000000
  0.500000  0.218750  0.187500     24.000000
  0.250000  0.250000  0.187500     24.000000
  0.281250  0.250000  0.187500     48.000000
  0.312500  0.250000  0.187500     48.000000
  0.343750  0.250000  0.187500     48.000000
  0.375000  0.250000  0.187500     48.000000
  0.406250  0.250000  0.187500     48.000000
  0.437500  0.250000  0.187500     48.000000
  0.468750  0.250000  0.187500     48.000000
  0.500000  0.250000  0.187500     24.000000
  0.281250  0.281250  0.187500     24.000000
  0.312500  0.281250  0.187500     48.000000
  0.343750  0.281250  0.187500     48.000000
  0.375000  0.281250  0.187500     48.000000
  0.406250  0.281250  0.187500     48.000000
  0.437500  0.281250  0.187500     48.000000
  0.468750  0.281250  0.187500     48.000000
  0.500000  0.281250  0.187500     24.000000
  0.312500  0.312500  0.187500     24.000000
  0.343750  0.312500  0.187500     48.000000
  0.375000  0.312500  0.187500     48.000000
  0.406250  0.312500  0.187500     48.000000
  0.437500  0.312500  0.187500     48.000000
  0.468750  0.312500  0.187500     48.000000
  0.500000  0.312500  0.187500     24.000000
  0.343750  0.343750  0.187500     24.000000
  0.375000  0.343750  0.187500     48.000000
  0.406250  0.343750  0.187500     48.000000
  0.437500  0.343750  0.187500     48.000000
  0.468750  0.343750  0.187500     48.000000
  0.500000  0.343750  0.187500     24.000000
  0.375000  0.375000  0.187500     24.000000
  0.406250  0.375000  0.187500     48.000000
  0.437500  0.375000  0.187500     48.000000
  0.468750  0.375000  0.187500     48.000000
  0.500000  0.375000  0.187500     24.000000
  0.406250  0.406250  0.187500     24.000000
  0.437500  0.406250  0.187500     48.000000
  0.468750  0.406250  0.187500     48.000000
  0.500000  0.406250  0.187500     24.000000
  0.437500  0.437500  0.187500     24.000000
  0.468750  0.437500  0.187500     48.000000
  0.500000  0.437500  0.187500     24.000000
  0.468750  0.468750  0.187500     24.000000
  0.500000  0.468750  0.187500     24.000000
  0.500000  0.500000  0.187500      6.000000
  0.218750  0.218750  0.218750      8.000000
  0.250000  0.218750  0.218750     24.000000
  0.281250  0.218750  0.218750     24.000000
  0.312500  0.218750  0.218750     24.000000
  0.343750  0.218750  0.218750     24.000000
  0.375000  0.218750  0.218750     24.000000
  0.406250  0.218750  0.218750     24.000000
  0.437500  0.218750  0.218750     24.000000
  0.468750  0.218750  0.218750     24.000000
  0.500000  0.218750  0.218750     12.000000
  0.250000  0.250000  0.218750     24.000000
  0.281250  0.250000  0.218750     48.000000
  0.312500  0.250000  0.218750     48.000000
  0.343750  0.250000  0.218750     48.000000
  0.375000  0.250000  0.218750     48.000000
  0.406250  0.250000  0.218750     48.000000
  0.437500  0.250000  0.218750     48.000000
  0.468750  0.250000  0.218750     48.000000
  0.500000  0.250000  0.218750     24.000000
  0.281250  0.281250  0.218750     24.000000
  0.312500  0.281250  0.218750     48.000000
  0.343750  0.281250  0.218750     48.000000
  0.375000  0.281250  0.218750     48.000000
  0.406250  0.281250  0.218750     48.000000
  0.437500  0.281250  0.218750     48.000000
  0.468750  0.281250  0.218750     48.000000
  0.500000  0.281250  0.218750     24.000000
  0.312500  0.312500  0.218750     24.000000
  0.343750  0.312500  0.218750     48.000000
  0.375000  0.312500  0.218750     48.000000
  0.406250  0.312500  0.218750     48.000000
  0.437500  0.312500  0.218750     48.000000
  0.468750  0.312500  0.218750     48.000000
  0.500000  0.312500  0.218750     24.000000
  0.343750  0.343750  0.218750     24.000000
  0.375000  0.343750  0.218750     48.000000
  0.406250  0.343750  0.218750     48.000000
  0.437500  0.343750  0.218750     48.000000
  0.468750  0.343750  0.218750     48.000000
  0.500000  0.343750  0.218750     24.000000
  0.375000  0.375000  0.218750     24.000000
  0.406250  0.375000  0.218750     48.000000
  0.437500  0.375000  0.218750     48.000000
  0.468750  0.375000  0.218750     48.000000
  0.500000  0.375000  0.218750     24.000000
  0.406250  0.406250  0.218750     24.000000
  0.437500  0.406250  0.218750     48.000000
  0.468750  0.406250  0.218750     48.000000
  0.500000  0.406250  0.218750     24.000000
  0.437500  0.437500  0.218750     24.000000
  0.468750  0.437500  0.218750     48.000000
  0.500000  0.437500  0.218750     24.000000
  0.468750  0.468750  0.218750     24.000000
  0.500000  0.468750  0.218750     24.000000
  0.500000  0.500000  0.218750      6.000000
  0.250000  0.250000  0.250000      8.000000
  0.281250  0.250000  0.250000     24.000000
  0.312500  0.250000  0.250000     24.000000
  0.343750  0.250000  0.250000     24.000000
  0.375000  0.250000  0.250000     24.000000
  0.406250  0.250000  0.250000     24.000000
  0.437500  0.250000  0.250000     24.000000
  0.468750  0.250000  0.250000     24.000000
  0.500000  0.250000  0.250000     12.000000
  0.281250  0.281250  0.250000     24.000000
  0.312500  0.281250  0.250000     48.000000
  0.343750  0.281250  0.250000     48.000000
  0.375000  0.281250  0.250000     48.000000
  0.406250  0.281250  0.250000     48.000000
  0.437500  0.281250  0.250000     48.000000
  0.468750  0.281250  0.250000     48.000000
  0.500000  0.281250  0.250000     24.000000
  0.312500  0.312500  0.250000     24.000000
  0.343750  0.312500  0.250000     48.000000
  0.375000  0.312500  0.250000     48.000000
  0.406250  0.312500  0.250000     48.000000
  0.437500  0.312500  0.250000     48.000000
  0.468750  0.312500  0.250000     48.000000
  0.500000  0.312500  0.250000     24.000000
  0.343750  0.343750  0.250000     24.000000
  0.375000  0.343750  0.250000     48.000000
  0.406250  0.343750  0.250000     48.000000
  0.437500  0.343750  0.250000     48.000000
  0.468750  0.343750  0.250000     48.000000
  0.500000  0.343750  0.250000     24.000000
  0.375000  0.375000  0.250000     24.000000
  0.406250  0.375000  0.250000     48.000000
  0.437500  0.375000  0.250000     48.000000
  0.468750  0.375000  0.250000     48.000000
  0.500000  0.375000  0.250000     24.000000
  0.406250  0.406250  0.250000     24.000000
  0.437500  0.406250  0.250000     48.000000
  0.468750  0.406250  0.250000     48.000000
  0.500000  0.406250  0.250000     24.000000
  0.437500  0.437500  0.250000     24.000000
  0.468750  0.437500  0.250000     48.000000
  0.500000  0.437500  0.250000     24.000000
  0.468750  0.468750  0.250000     24.000000
  0.500000  0.468750  0.250000     24.000000
  0.500000  0.500000  0.250000      6.000000
  0.281250  0.281250  0.281250      8.000000
  0.312500  0.281250  0.281250     24.000000
  0.343750  0.281250  0.281250     24.000000
  0.375000  0.281250  0.281250     24.000000
  0.406250  0.281250  0.281250     24.000000
  0.437500  0.281250  0.281250     24.000000
  0.468750  0.281250  0.281250     24.000000
  0.500000  0.281250  0.281250     12.000000
  0.312500  0.312500  0.281250     24.000000
  0.343750  0.312500  0.281250     48.000000
  0.375000  0.312500  0.281250     48.000000
  0.406250  0.312500  0.281250     48.000000
  0.437500  0.312500  0.281250     48.000000
  0.468750  0.312500  0.281250     48.000000
  0.500000  0.312500  0.281250     24.000000
  0.343750  0.343750  0.281250     24.000000
  0.375000  0.343750  0.281250     48.000000
  0.406250  0.343750  0.281250     48.000000
  0.437500  0.343750  0.281250     48.000000
  0.468750  0.343750  0.281250     48.000000
  0.500000  0.343750  0.281250     24.000000
  0.375000  0.375000  0.281250     24.000000
  0.406250  0.375000  0.281250     48.000000
  0.437500  0.375000  0.281250     48.000000
  0.468750  0.375000  0.281250     48.000000
  0.500000  0.375000  0.281250     24.000000
  0.406250  0.406250  0.281250     24.000000
  0.437500  0.406250  0.281250     48.000000
  0.468750  0.406250  0.281250     48.000000
  0.500000  0.406250  0.281250     24.000000
  0.437500  0.437500  0.281250     24.000000
  0.468750  0.437500  0.281250     48.000000
  0.500000  0.437500  0.281250     24.000000
  0.468750  0.468750  0.281250     24.000000
  0.500000  0.468750  0.281250     24.000000
  0.500000  0.500000  0.281250      6.000000
  0.312500  0.312500  0.312500      8.000000
  0.343750  0.312500  0.312500     24.000000
  0.375000  0.312500  0.312500     24.000000
  0.406250  0.312500  0.312500     24.000000
  0.437500  0.312500  0.312500     24.000000
  0.468750  0.312500  0.312500     24.000000
  0.500000  0.312500  0.312500     12.000000
  0.343750  0.343750  0.312500     24.000000
  0.375000  0.343750  0.312500     48.000000
  0.406250  0.343750  0.312500     48.000000
  0.437500  0.343750  0.312500     48.000000
  0.468750  0.343750  0.312500     48.000000
  0.500000  0.343750  0.312500     24.000000
  0.375000  0.375000  0.312500     24.000000
  0.406250  0.375000  0.312500     48.000000
  0.437500  0.375000  0.312500     48.000000
  0.468750  0.375000  0.312500     48.000000
  0.500000  0.375000  0.312500     24.000000
  0.406250  0.406250  0.312500     24.000000
  0.437500  0.406250  0.312500     48.000000
  0.468750  0.406250  0.312500     48.000000
  0.500000  0.406250  0.312500     24.000000
  0.437500  0.437500  0.312500     24.000000
  0.468750  0.437500  0.312500     48.000000
  0.500000  0.437500  0.312500     24.000000
  0.468750  0.468750  0.312500     24.000000
  0.500000  0.468750  0.312500     24.000000
  0.500000  0.500000  0.312500      6.000000
  0.343750  0.343750  0.343750      8.000000
  0.375000  0.343750  0.343750     24.000000
  0.406250  0.343750  0.343750     24.000000
  0.437500  0.343750  0.343750     24.000000
  0.468750  0.343750  0.343750     24.000000
  0.500000  0.343750  0.343750     12.000000
  0.375000  0.375000  0.343750     24.000000
  0.406250  0.375000  0.343750     48.000000
  0.437500  0.375000  0.343750     48.000000
  0.468750  0.375000  0.343750     48.000000
  0.500000  0.375000  0.343750     24.000000
  0.406250  0.406250  0.343750     24.000000
  0.437500  0.406250  0.343750     48.000000
  0.468750  0.406250  0.343750     48.000000
  0.500000  0.406250  0.343750     24.000000
  0.437500  0.437500  0.343750     24.000000
  0.468750  0.437500  0.343750     48.000000
  0.500000  0.437500  0.343750     24.000000
  0.468750  0.468750  0.343750     24.000000
  0.500000  0.468750  0.343750     24.000000
  0.500000  0.500000  0.343750      6.000000
  0.375000  0.375000  0.375000      8.000000
  0.406250  0.375000  0.375000     24.000000
  0.437500  0.375000  0.375000     24.000000
  0.468750  0.375000  0.375000     24.000000
  0.500000  0.375000  0.375000     12.000000
  0.406250  0.406250  0.375000     24.000000
  0.437500  0.406250  0.375000     48.000000
  0.468750  0.406250  0.375000     48.000000
  0.500000  0.406250  0.375000     24.000000
  0.437500  0.437500  0.375000     24.000000
  0.468750  0.437500  0.375000     48.000000
  0.500000  0.437500  0.375000     24.000000
  0.468750  0.468750  0.375000     24.000000
  0.500000  0.468750  0.375000     24.000000
  0.500000  0.500000  0.375000      6.000000
  0.406250  0.406250  0.406250      8.000000
  0.437500  0.406250  0.406250     24.000000
  0.468750  0.406250  0.406250     24.000000
  0.500000  0.406250  0.406250     12.000000
  0.437500  0.437500  0.406250     24.000000
  0.468750  0.437500  0.406250     48.000000
  0.500000  0.437500  0.406250     24.000000
  0.468750  0.468750  0.406250     24.000000
  0.500000  0.468750  0.406250     24.000000
  0.500000  0.500000  0.406250      6.000000
  0.437500  0.437500  0.437500      8.000000
  0.468750  0.437500  0.437500     24.000000
  0.500000  0.437500  0.437500     12.000000
  0.468750  0.468750  0.437500     24.000000
  0.500000  0.468750  0.437500     24.000000
  0.500000  0.500000  0.437500      6.000000
  0.468750  0.468750  0.468750      8.000000
  0.500000  0.468750  0.468750     12.000000
  0.500000  0.500000  0.468750      6.000000
  0.500000  0.500000  0.500000      1.000000
 
 Following cartesian coordinates:
            Coordinates               Weight
  0.000000  0.000000  0.000000      1.000000
  0.011003  0.000000  0.000000      6.000000
  0.022007  0.000000  0.000000      6.000000
  0.033010  0.000000  0.000000      6.000000
  0.044013  0.000000  0.000000      6.000000
  0.055017  0.000000  0.000000      6.000000
  0.066020  0.000000  0.000000      6.000000
  0.077023  0.000000  0.000000      6.000000
  0.088027  0.000000  0.000000      6.000000
  0.099030  0.000000  0.000000      6.000000
  0.110033  0.000000  0.000000      6.000000
  0.121037  0.000000  0.000000      6.000000
  0.132040  0.000000  0.000000      6.000000
  0.143043  0.000000  0.000000      6.000000
  0.154046  0.000000  0.000000      6.000000
  0.165050  0.000000  0.000000      6.000000
  0.176053  0.000000  0.000000      3.000000
  0.011003  0.011003  0.000000     12.000000
  0.022007  0.011003  0.000000     24.000000
  0.033010  0.011003  0.000000     24.000000
  0.044013  0.011003  0.000000     24.000000
  0.055017  0.011003  0.000000     24.000000
  0.066020  0.011003  0.000000     24.000000
  0.077023  0.011003  0.000000     24.000000
  0.088027  0.011003  0.000000     24.000000
  0.099030  0.011003  0.000000     24.000000
  0.110033  0.011003  0.000000     24.000000
  0.121037  0.011003  0.000000     24.000000
  0.132040  0.011003  0.000000     24.000000
  0.143043  0.011003  0.000000     24.000000
  0.154046  0.011003  0.000000     24.000000
  0.165050  0.011003  0.000000     24.000000
  0.176053  0.011003  0.000000     12.000000
  0.022007  0.022007  0.000000     12.000000
  0.033010  0.022007  0.000000     24.000000
  0.044013  0.022007  0.000000     24.000000
  0.055017  0.022007  0.000000     24.000000
  0.066020  0.022007  0.000000     24.000000
  0.077023  0.022007  0.000000     24.000000
  0.088027  0.022007  0.000000     24.000000
  0.099030  0.022007  0.000000     24.000000
  0.110033  0.022007  0.000000     24.000000
  0.121037  0.022007  0.000000     24.000000
  0.132040  0.022007  0.000000     24.000000
  0.143043  0.022007  0.000000     24.000000
  0.154046  0.022007  0.000000     24.000000
  0.165050  0.022007  0.000000     24.000000
  0.176053  0.022007  0.000000     12.000000
  0.033010  0.033010  0.000000     12.000000
  0.044013  0.033010  0.000000     24.000000
  0.055017  0.033010  0.000000     24.000000
  0.066020  0.033010  0.000000     24.000000
  0.077023  0.033010  0.000000     24.000000
  0.088027  0.033010  0.000000     24.000000
  0.099030  0.033010  0.000000     24.000000
  0.110033  0.033010  0.000000     24.000000
  0.121037  0.033010  0.000000     24.000000
  0.132040  0.033010  0.000000     24.000000
  0.143043  0.033010  0.000000     24.000000
  0.154046  0.033010  0.000000     24.000000
  0.165050  0.033010  0.000000     24.000000
  0.176053  0.033010  0.000000     12.000000
  0.044013  0.044013  0.000000     12.000000
  0.055017  0.044013  0.000000     24.000000
  0.066020  0.044013  0.000000     24.000000
  0.077023  0.044013  0.000000     24.000000
  0.088027  0.044013  0.000000     24.000000
  0.099030  0.044013  0.000000     24.000000
  0.110033  0.044013  0.000000     24.000000
  0.121037  0.044013  0.000000     24.000000
  0.132040  0.044013  0.000000     24.000000
  0.143043  0.044013  0.000000     24.000000
  0.154046  0.044013  0.000000     24.000000
  0.165050  0.044013  0.000000     24.000000
  0.176053  0.044013  0.000000     12.000000
  0.055017  0.055017  0.000000     12.000000
  0.066020  0.055017  0.000000     24.000000
  0.077023  0.055017  0.000000     24.000000
  0.088027  0.055017  0.000000     24.000000
  0.099030  0.055017  0.000000     24.000000
  0.110033  0.055017  0.000000     24.000000
  0.121037  0.055017  0.000000     24.000000
  0.132040  0.055017  0.000000     24.000000
  0.143043  0.055017  0.000000     24.000000
  0.154046  0.055017  0.000000     24.000000
  0.165050  0.055017  0.000000     24.000000
  0.176053  0.055017  0.000000     12.000000
  0.066020  0.066020  0.000000     12.000000
  0.077023  0.066020  0.000000     24.000000
  0.088027  0.066020  0.000000     24.000000
  0.099030  0.066020  0.000000     24.000000
  0.110033  0.066020  0.000000     24.000000
  0.121037  0.066020  0.000000     24.000000
  0.132040  0.066020  0.000000     24.000000
  0.143043  0.066020  0.000000     24.000000
  0.154046  0.066020  0.000000     24.000000
  0.165050  0.066020  0.000000     24.000000
  0.176053  0.066020  0.000000     12.000000
  0.077023  0.077023  0.000000     12.000000
  0.088027  0.077023  0.000000     24.000000
  0.099030  0.077023  0.000000     24.000000
  0.110033  0.077023  0.000000     24.000000
  0.121037  0.077023  0.000000     24.000000
  0.132040  0.077023  0.000000     24.000000
  0.143043  0.077023  0.000000     24.000000
  0.154046  0.077023  0.000000     24.000000
  0.165050  0.077023  0.000000     24.000000
  0.176053  0.077023  0.000000     12.000000
  0.088027  0.088027  0.000000     12.000000
  0.099030  0.088027  0.000000     24.000000
  0.110033  0.088027  0.000000     24.000000
  0.121037  0.088027  0.000000     24.000000
  0.132040  0.088027  0.000000     24.000000
  0.143043  0.088027  0.000000     24.000000
  0.154046  0.088027  0.000000     24.000000
  0.165050  0.088027  0.000000     24.000000
  0.176053  0.088027  0.000000     12.000000
  0.099030  0.099030  0.000000     12.000000
  0.110033  0.099030  0.000000     24.000000
  0.121037  0.099030  0.000000     24.000000
  0.132040  0.099030  0.000000     24.000000
  0.143043  0.099030  0.000000     24.000000
  0.154046  0.099030  0.000000     24.000000
  0.165050  0.099030  0.000000     24.000000
  0.176053  0.099030  0.000000     12.000000
  0.110033  0.110033  0.000000     12.000000
  0.121037  0.110033  0.000000     24.000000
  0.132040  0.110033  0.000000     24.000000
  0.143043  0.110033  0.000000     24.000000
  0.154046  0.110033  0.000000     24.000000
  0.165050  0.110033  0.000000     24.000000
  0.176053  0.110033  0.000000     12.000000
  0.121037  0.121037  0.000000     12.000000
  0.132040  0.121037  0.000000     24.000000
  0.143043  0.121037  0.000000     24.000000
  0.154046  0.121037  0.000000     24.000000
  0.165050  0.121037  0.000000     24.000000
  0.176053  0.121037  0.000000     12.000000
  0.132040  0.132040  0.000000     12.000000
  0.143043  0.132040  0.000000     24.000000
  0.154046  0.132040  0.000000     24.000000
  0.165050  0.132040  0.000000     24.000000
  0.176053  0.132040  0.000000     12.000000
  0.143043  0.143043  0.000000     12.000000
  0.154046  0.143043  0.000000     24.000000
  0.165050  0.143043  0.000000     24.000000
  0.176053  0.143043  0.000000     12.000000
  0.154046  0.154046  0.000000     12.000000
  0.165050  0.154046  0.000000     24.000000
  0.176053  0.154046  0.000000     12.000000
  0.165050  0.165050  0.000000     12.000000
  0.176053  0.165050  0.000000     12.000000
  0.176053  0.176053  0.000000      3.000000
  0.011003  0.011003  0.011003      8.000000
  0.022007  0.011003  0.011003     24.000000
  0.033010  0.011003  0.011003     24.000000
  0.044013  0.011003  0.011003     24.000000
  0.055017  0.011003  0.011003     24.000000
  0.066020  0.011003  0.011003     24.000000
  0.077023  0.011003  0.011003     24.000000
  0.088027  0.011003  0.011003     24.000000
  0.099030  0.011003  0.011003     24.000000
  0.110033  0.011003  0.011003     24.000000
  0.121037  0.011003  0.011003     24.000000
  0.132040  0.011003  0.011003     24.000000
  0.143043  0.011003  0.011003     24.000000
  0.154046  0.011003  0.011003     24.000000
  0.165050  0.011003  0.011003     24.000000
  0.176053  0.011003  0.011003     12.000000
  0.022007  0.022007  0.011003     24.000000
  0.033010  0.022007  0.011003     48.000000
  0.044013  0.022007  0.011003     48.000000
  0.055017  0.022007  0.011003     48.000000
  0.066020  0.022007  0.011003     48.000000
  0.077023  0.022007  0.011003     48.000000
  0.088027  0.022007  0.011003     48.000000
  0.099030  0.022007  0.011003     48.000000
  0.110033  0.022007  0.011003     48.000000
  0.121037  0.022007  0.011003     48.000000
  0.132040  0.022007  0.011003     48.000000
  0.143043  0.022007  0.011003     48.000000
  0.154046  0.022007  0.011003     48.000000
  0.165050  0.022007  0.011003     48.000000
  0.176053  0.022007  0.011003     24.000000
  0.033010  0.033010  0.011003     24.000000
  0.044013  0.033010  0.011003     48.000000
  0.055017  0.033010  0.011003     48.000000
  0.066020  0.033010  0.011003     48.000000
  0.077023  0.033010  0.011003     48.000000
  0.088027  0.033010  0.011003     48.000000
  0.099030  0.033010  0.011003     48.000000
  0.110033  0.033010  0.011003     48.000000
  0.121037  0.033010  0.011003     48.000000
  0.132040  0.033010  0.011003     48.000000
  0.143043  0.033010  0.011003     48.000000
  0.154046  0.033010  0.011003     48.000000
  0.165050  0.033010  0.011003     48.000000
  0.176053  0.033010  0.011003     24.000000
  0.044013  0.044013  0.011003     24.000000
  0.055017  0.044013  0.011003     48.000000
  0.066020  0.044013  0.011003     48.000000
  0.077023  0.044013  0.011003     48.000000
  0.088027  0.044013  0.011003     48.000000
  0.099030  0.044013  0.011003     48.000000
  0.110033  0.044013  0.011003     48.000000
  0.121037  0.044013  0.011003     48.000000
  0.132040  0.044013  0.011003     48.000000
  0.143043  0.044013  0.011003     48.000000
  0.154046  0.044013  0.011003     48.000000
  0.165050  0.044013  0.011003     48.000000
  0.176053  0.044013  0.011003     24.000000
  0.055017  0.055017  0.011003     24.000000
  0.066020  0.055017  0.011003     48.000000
  0.077023  0.055017  0.011003     48.000000
  0.088027  0.055017  0.011003     48.000000
  0.099030  0.055017  0.011003     48.000000
  0.110033  0.055017  0.011003     48.000000
  0.121037  0.055017  0.011003     48.000000
  0.132040  0.055017  0.011003     48.000000
  0.143043  0.055017  0.011003     48.000000
  0.154046  0.055017  0.011003     48.000000
  0.165050  0.055017  0.011003     48.000000
  0.176053  0.055017  0.011003     24.000000
  0.066020  0.066020  0.011003     24.000000
  0.077023  0.066020  0.011003     48.000000
  0.088027  0.066020  0.011003     48.000000
  0.099030  0.066020  0.011003     48.000000
  0.110033  0.066020  0.011003     48.000000
  0.121037  0.066020  0.011003     48.000000
  0.132040  0.066020  0.011003     48.000000
  0.143043  0.066020  0.011003     48.000000
  0.154046  0.066020  0.011003     48.000000
  0.165050  0.066020  0.011003     48.000000
  0.176053  0.066020  0.011003     24.000000
  0.077023  0.077023  0.011003     24.000000
  0.088027  0.077023  0.011003     48.000000
  0.099030  0.077023  0.011003     48.000000
  0.110033  0.077023  0.011003     48.000000
  0.121037  0.077023  0.011003     48.000000
  0.132040  0.077023  0.011003     48.000000
  0.143043  0.077023  0.011003     48.000000
  0.154046  0.077023  0.011003     48.000000
  0.165050  0.077023  0.011003     48.000000
  0.176053  0.077023  0.011003     24.000000
  0.088027  0.088027  0.011003     24.000000
  0.099030  0.088027  0.011003     48.000000
  0.110033  0.088027  0.011003     48.000000
  0.121037  0.088027  0.011003     48.000000
  0.132040  0.088027  0.011003     48.000000
  0.143043  0.088027  0.011003     48.000000
  0.154046  0.088027  0.011003     48.000000
  0.165050  0.088027  0.011003     48.000000
  0.176053  0.088027  0.011003     24.000000
  0.099030  0.099030  0.011003     24.000000
  0.110033  0.099030  0.011003     48.000000
  0.121037  0.099030  0.011003     48.000000
  0.132040  0.099030  0.011003     48.000000
  0.143043  0.099030  0.011003     48.000000
  0.154046  0.099030  0.011003     48.000000
  0.165050  0.099030  0.011003     48.000000
  0.176053  0.099030  0.011003     24.000000
  0.110033  0.110033  0.011003     24.000000
  0.121037  0.110033  0.011003     48.000000
  0.132040  0.110033  0.011003     48.000000
  0.143043  0.110033  0.011003     48.000000
  0.154046  0.110033  0.011003     48.000000
  0.165050  0.110033  0.011003     48.000000
  0.176053  0.110033  0.011003     24.000000
  0.121037  0.121037  0.011003     24.000000
  0.132040  0.121037  0.011003     48.000000
  0.143043  0.121037  0.011003     48.000000
  0.154046  0.121037  0.011003     48.000000
  0.165050  0.121037  0.011003     48.000000
  0.176053  0.121037  0.011003     24.000000
  0.132040  0.132040  0.011003     24.000000
  0.143043  0.132040  0.011003     48.000000
  0.154046  0.132040  0.011003     48.000000
  0.165050  0.132040  0.011003     48.000000
  0.176053  0.132040  0.011003     24.000000
  0.143043  0.143043  0.011003     24.000000
  0.154046  0.143043  0.011003     48.000000
  0.165050  0.143043  0.011003     48.000000
  0.176053  0.143043  0.011003     24.000000
  0.154046  0.154046  0.011003     24.000000
  0.165050  0.154046  0.011003     48.000000
  0.176053  0.154046  0.011003     24.000000
  0.165050  0.165050  0.011003     24.000000
  0.176053  0.165050  0.011003     24.000000
  0.176053  0.176053  0.011003      6.000000
  0.022007  0.022007  0.022007      8.000000
  0.033010  0.022007  0.022007     24.000000
  0.044013  0.022007  0.022007     24.000000
  0.055017  0.022007  0.022007     24.000000
  0.066020  0.022007  0.022007     24.000000
  0.077023  0.022007  0.022007     24.000000
  0.088027  0.022007  0.022007     24.000000
  0.099030  0.022007  0.022007     24.000000
  0.110033  0.022007  0.022007     24.000000
  0.121037  0.022007  0.022007     24.000000
  0.132040  0.022007  0.022007     24.000000
  0.143043  0.022007  0.022007     24.000000
  0.154046  0.022007  0.022007     24.000000
  0.165050  0.022007  0.022007     24.000000
  0.176053  0.022007  0.022007     12.000000
  0.033010  0.033010  0.022007     24.000000
  0.044013  0.033010  0.022007     48.000000
  0.055017  0.033010  0.022007     48.000000
  0.066020  0.033010  0.022007     48.000000
  0.077023  0.033010  0.022007     48.000000
  0.088027  0.033010  0.022007     48.000000
  0.099030  0.033010  0.022007     48.000000
  0.110033  0.033010  0.022007     48.000000
  0.121037  0.033010  0.022007     48.000000
  0.132040  0.033010  0.022007     48.000000
  0.143043  0.033010  0.022007     48.000000
  0.154046  0.033010  0.022007     48.000000
  0.165050  0.033010  0.022007     48.000000
  0.176053  0.033010  0.022007     24.000000
  0.044013  0.044013  0.022007     24.000000
  0.055017  0.044013  0.022007     48.000000
  0.066020  0.044013  0.022007     48.000000
  0.077023  0.044013  0.022007     48.000000
  0.088027  0.044013  0.022007     48.000000
  0.099030  0.044013  0.022007     48.000000
  0.110033  0.044013  0.022007     48.000000
  0.121037  0.044013  0.022007     48.000000
  0.132040  0.044013  0.022007     48.000000
  0.143043  0.044013  0.022007     48.000000
  0.154046  0.044013  0.022007     48.000000
  0.165050  0.044013  0.022007     48.000000
  0.176053  0.044013  0.022007     24.000000
  0.055017  0.055017  0.022007     24.000000
  0.066020  0.055017  0.022007     48.000000
  0.077023  0.055017  0.022007     48.000000
  0.088027  0.055017  0.022007     48.000000
  0.099030  0.055017  0.022007     48.000000
  0.110033  0.055017  0.022007     48.000000
  0.121037  0.055017  0.022007     48.000000
  0.132040  0.055017  0.022007     48.000000
  0.143043  0.055017  0.022007     48.000000
  0.154046  0.055017  0.022007     48.000000
  0.165050  0.055017  0.022007     48.000000
  0.176053  0.055017  0.022007     24.000000
  0.066020  0.066020  0.022007     24.000000
  0.077023  0.066020  0.022007     48.000000
  0.088027  0.066020  0.022007     48.000000
  0.099030  0.066020  0.022007     48.000000
  0.110033  0.066020  0.022007     48.000000
  0.121037  0.066020  0.022007     48.000000
  0.132040  0.066020  0.022007     48.000000
  0.143043  0.066020  0.022007     48.000000
  0.154046  0.066020  0.022007     48.000000
  0.165050  0.066020  0.022007     48.000000
  0.176053  0.066020  0.022007     24.000000
  0.077023  0.077023  0.022007     24.000000
  0.088027  0.077023  0.022007     48.000000
  0.099030  0.077023  0.022007     48.000000
  0.110033  0.077023  0.022007     48.000000
  0.121037  0.077023  0.022007     48.000000
  0.132040  0.077023  0.022007     48.000000
  0.143043  0.077023  0.022007     48.000000
  0.154046  0.077023  0.022007     48.000000
  0.165050  0.077023  0.022007     48.000000
  0.176053  0.077023  0.022007     24.000000
  0.088027  0.088027  0.022007     24.000000
  0.099030  0.088027  0.022007     48.000000
  0.110033  0.088027  0.022007     48.000000
  0.121037  0.088027  0.022007     48.000000
  0.132040  0.088027  0.022007     48.000000
  0.143043  0.088027  0.022007     48.000000
  0.154046  0.088027  0.022007     48.000000
  0.165050  0.088027  0.022007     48.000000
  0.176053  0.088027  0.022007     24.000000
  0.099030  0.099030  0.022007     24.000000
  0.110033  0.099030  0.022007     48.000000
  0.121037  0.099030  0.022007     48.000000
  0.132040  0.099030  0.022007     48.000000
  0.143043  0.099030  0.022007     48.000000
  0.154046  0.099030  0.022007     48.000000
  0.165050  0.099030  0.022007     48.000000
  0.176053  0.099030  0.022007     24.000000
  0.110033  0.110033  0.022007     24.000000
  0.121037  0.110033  0.022007     48.000000
  0.132040  0.110033  0.022007     48.000000
  0.143043  0.110033  0.022007     48.000000
  0.154046  0.110033  0.022007     48.000000
  0.165050  0.110033  0.022007     48.000000
  0.176053  0.110033  0.022007     24.000000
  0.121037  0.121037  0.022007     24.000000
  0.132040  0.121037  0.022007     48.000000
  0.143043  0.121037  0.022007     48.000000
  0.154046  0.121037  0.022007     48.000000
  0.165050  0.121037  0.022007     48.000000
  0.176053  0.121037  0.022007     24.000000
  0.132040  0.132040  0.022007     24.000000
  0.143043  0.132040  0.022007     48.000000
  0.154046  0.132040  0.022007     48.000000
  0.165050  0.132040  0.022007     48.000000
  0.176053  0.132040  0.022007     24.000000
  0.143043  0.143043  0.022007     24.000000
  0.154046  0.143043  0.022007     48.000000
  0.165050  0.143043  0.022007     48.000000
  0.176053  0.143043  0.022007     24.000000
  0.154046  0.154046  0.022007     24.000000
  0.165050  0.154046  0.022007     48.000000
  0.176053  0.154046  0.022007     24.000000
  0.165050  0.165050  0.022007     24.000000
  0.176053  0.165050  0.022007     24.000000
  0.176053  0.176053  0.022007      6.000000
  0.033010  0.033010  0.033010      8.000000
  0.044013  0.033010  0.033010     24.000000
  0.055017  0.033010  0.033010     24.000000
  0.066020  0.033010  0.033010     24.000000
  0.077023  0.033010  0.033010     24.000000
  0.088027  0.033010  0.033010     24.000000
  0.099030  0.033010  0.033010     24.000000
  0.110033  0.033010  0.033010     24.000000
  0.121037  0.033010  0.033010     24.000000
  0.132040  0.033010  0.033010     24.000000
  0.143043  0.033010  0.033010     24.000000
  0.154046  0.033010  0.033010     24.000000
  0.165050  0.033010  0.033010     24.000000
  0.176053  0.033010  0.033010     12.000000
  0.044013  0.044013  0.033010     24.000000
  0.055017  0.044013  0.033010     48.000000
  0.066020  0.044013  0.033010     48.000000
  0.077023  0.044013  0.033010     48.000000
  0.088027  0.044013  0.033010     48.000000
  0.099030  0.044013  0.033010     48.000000
  0.110033  0.044013  0.033010     48.000000
  0.121037  0.044013  0.033010     48.000000
  0.132040  0.044013  0.033010     48.000000
  0.143043  0.044013  0.033010     48.000000
  0.154046  0.044013  0.033010     48.000000
  0.165050  0.044013  0.033010     48.000000
  0.176053  0.044013  0.033010     24.000000
  0.055017  0.055017  0.033010     24.000000
  0.066020  0.055017  0.033010     48.000000
  0.077023  0.055017  0.033010     48.000000
  0.088027  0.055017  0.033010     48.000000
  0.099030  0.055017  0.033010     48.000000
  0.110033  0.055017  0.033010     48.000000
  0.121037  0.055017  0.033010     48.000000
  0.132040  0.055017  0.033010     48.000000
  0.143043  0.055017  0.033010     48.000000
  0.154046  0.055017  0.033010     48.000000
  0.165050  0.055017  0.033010     48.000000
  0.176053  0.055017  0.033010     24.000000
  0.066020  0.066020  0.033010     24.000000
  0.077023  0.066020  0.033010     48.000000
  0.088027  0.066020  0.033010     48.000000
  0.099030  0.066020  0.033010     48.000000
  0.110033  0.066020  0.033010     48.000000
  0.121037  0.066020  0.033010     48.000000
  0.132040  0.066020  0.033010     48.000000
  0.143043  0.066020  0.033010     48.000000
  0.154046  0.066020  0.033010     48.000000
[...]
     19      18.7511      0.00000
     20      19.5787      0.00000
     21      20.1236      0.00000
     22      20.3606      0.00000
     23      21.4985      0.00000
     24      21.9559      0.00000

 k-point   964 :       0.5000    0.4688    0.4375
  band No.  band energies     occupation 
      1     -41.9090      1.00000
      2     -41.9090      1.00000
      3     -41.8593      1.00000
      4     -41.8593      1.00000
      5     -41.8133      1.00000
      6     -41.8133      1.00000
      7       7.7554      1.00000
      8       7.7554      1.00000
      9       7.8478      1.00000
     10       7.8478      1.00000
     11       7.9967      1.00000
     12       7.9967      1.00000
     13      11.5528      0.00000
     14      11.5528      0.00000
     15      11.5688      0.00000
     16      11.5688      0.00000
     17      17.8159      0.00000
     18      17.8159      0.00000
     19      19.1205      0.00000
     20      19.1205      0.00000
     21      20.2662      0.00000
     22      20.2662      0.00000
     23      21.6032      0.00000
     24      21.6032      0.00000

 k-point   965 :       0.5000    0.5000    0.4375
  band No.  band energies     occupation 
      1     -41.9047      1.00000
      2     -41.9047      1.00000
      3     -41.8588      1.00000
      4     -41.8588      1.00000
      5     -41.8186      1.00000
      6     -41.8186      1.00000
      7       7.7934      1.00000
      8       7.7934      1.00000
      9       7.8074      1.00000
     10       7.8074      1.00000
     11       8.0045      1.00000
     12       8.0045      1.00000
     13      11.5548      0.00000
     14      11.5548      0.00000
     15      11.5721      0.00000
     16      11.5721      0.00000
     17      17.9971      0.00000
     18      17.9971      0.00000
     19      18.9797      0.00000
     20      18.9797      0.00000
     21      20.3241      0.00000
     22      20.3241      0.00000
     23      21.4335      0.00000
     24      21.4335      0.00000

 k-point   966 :       0.4688    0.4688    0.4688
  band No.  band energies     occupation 
      1     -41.9036      1.00000
      2     -41.8825      1.00000
      3     -41.8825      1.00000
      4     -41.8393      1.00000
      5     -41.8393      1.00000
      6     -41.8182      1.00000
      7       7.7555      1.00000
      8       7.8349      1.00000
      9       7.8349      1.00000
     10       7.9293      1.00000
     11       7.9293      1.00000
     12       7.9334      1.00000
     13      11.5655      0.00000
     14      11.5655      0.00000
     15      11.5663      0.00000
     16      11.5663      0.00000
     17      17.8842      0.00000
     18      18.6025      0.00000
     19      18.6025      0.00000
     20      19.7643      0.00000
     21      19.7643      0.00000
     22      19.9246      0.00000
     23      21.2577      0.00000
     24      21.5328      0.00000

 k-point   967 :       0.5000    0.4688    0.4688
  band No.  band energies     occupation 
      1     -41.8917      1.00000
      2     -41.8917      1.00000
      3     -41.8609      1.00000
      4     -41.8609      1.00000
      5     -41.8307      1.00000
      6     -41.8307      1.00000
      7       7.8001      1.00000
      8       7.8001      1.00000
      9       7.8743      1.00000
     10       7.8743      1.00000
     11       7.9394      1.00000
     12       7.9394      1.00000
     13      11.5663      0.00000
     14      11.5663      0.00000
     15      11.5709      0.00000
     16      11.5709      0.00000
     17      18.2867      0.00000
     18      18.2867      0.00000
     19      19.1780      0.00000
     20      19.1780      0.00000
     21      19.8611      0.00000
     22      19.8611      0.00000
     23      21.2697      0.00000
     24      21.2697      0.00000

 k-point   968 :       0.5000    0.5000    0.4688
  band No.  band energies     occupation 
      1     -41.8831      1.00000
      2     -41.8831      1.00000
      3     -41.8608      1.00000
      4     -41.8608      1.00000
      5     -41.8399      1.00000
      6     -41.8399      1.00000
      7       7.8336      1.00000
      8       7.8336      1.00000
      9       7.8539      1.00000
     10       7.8539      1.00000
     11       7.9312      1.00000
     12       7.9312      1.00000
     13      11.5691      0.00000
     14      11.5691      0.00000
     15      11.5735      0.00000
     16      11.5735      0.00000
     17      18.5625      0.00000
     18      18.5625      0.00000
     19      19.0929      0.00000
     20      19.0929      0.00000
     21      19.7269      0.00000
     22      19.7269      0.00000
     23      21.1426      0.00000
     24      21.1426      0.00000

 k-point   969 :       0.5000    0.5000    0.5000
  band No.  band energies     occupation 
      1     -41.8615      1.00000
      2     -41.8615      1.00000
      3     -41.8615      1.00000
      4     -41.8615      1.00000
      5     -41.8615      1.00000
      6     -41.8615      1.00000
      7       7.8745      1.00000
      8       7.8745      1.00000
      9       7.8745      1.00000
     10       7.8745      1.00000
     11       7.8745      1.00000
     12       7.8745      1.00000
     13      11.5739      0.00000
     14      11.5739      0.00000
     15      11.5739      0.00000
     16      11.5739      0.00000
     17      19.1394      0.00000
     18      19.1394      0.00000
     19      19.1394      0.00000
     20      19.1394      0.00000
     21      19.1394      0.00000
     22      19.1394      0.00000
     23      21.0362      0.00000
     24      21.0362      0.00000


--------------------------------------------------------------------------------------------------------


 soft charge-density along one line, spin component           1
         0         1         2         3         4         5         6         7         8         9
 total charge-density along one line
 
 soft charge-density along one line, spin component           2
         0         1         2         3         4         5         6         7         8         9
 total charge-density along one line
 
 pseudopotential strength for first ion, spin component:           1
-44.850  -0.000   0.000   7.567   0.000  -0.000  -0.000  -0.000
 -0.000 -44.850  -0.000   0.000   7.567   0.000  -0.000  -0.000
  0.000  -0.000 -44.850  -0.000   0.000   7.567  -0.000  -0.000
  7.567   0.000  -0.000   5.639   0.000  -0.000   0.000   0.000
  0.000   7.567   0.000   0.000   5.639   0.000   0.000   0.000
 -0.000   0.000   7.567  -0.000   0.000   5.639   0.000   0.000
 -0.000  -0.000  -0.000   0.000   0.000   0.000  -1.976  -0.000
 -0.000  -0.000  -0.000   0.000   0.000   0.000  -0.000  -1.976
  0.000  -0.000  -0.000  -0.000   0.000  -0.000  -0.000  -0.000
 -0.000  -0.000  -0.000   0.000   0.000   0.000  -0.000   0.000
  0.000  -0.000   0.000  -0.000   0.000   0.000  -0.000   0.000
 -0.000  -0.000  -0.000   0.000   0.000   0.000  -2.491  -0.000
 -0.000  -0.000  -0.000   0.000   0.000   0.000  -0.000  -2.491
  0.000  -0.000   0.000  -0.000   0.000  -0.000  -0.000  -0.000
 -0.000  -0.000  -0.000   0.000   0.000   0.000  -0.000   0.000
  0.000  -0.000   0.000  -0.000   0.000   0.000  -0.000   0.000
  0.000   0.000   0.000   0.000   0.000   0.000  -0.000   0.000
  0.000   0.000   0.000   0.000   0.000   0.000  -0.000   0.000
 pseudopotential strength for first ion, spin component:           2
-42.872  -0.000   0.000   6.731   0.000  -0.000  -0.000  -0.000
 -0.000 -42.872  -0.000   0.000   6.731   0.000   0.000  -0.000
  0.000  -0.000 -42.872  -0.000   0.000   6.731  -0.000   0.000
  6.731   0.000  -0.000   5.868   0.000  -0.000   0.000   0.000
  0.000   6.731   0.000   0.000   5.868   0.000  -0.000   0.000
 -0.000   0.000   6.731  -0.000   0.000   5.868   0.000  -0.000
 -0.000   0.000  -0.000   0.000  -0.000   0.000  -0.442  -0.000
 -0.000  -0.000   0.000   0.000   0.000  -0.000  -0.000  -0.442
  0.000  -0.000   0.000  -0.000   0.000  -0.000  -0.000  -0.000
  0.000  -0.000  -0.000  -0.000   0.000   0.000  -0.000   0.000
  0.000  -0.000   0.000  -0.000   0.000  -0.000   0.000   0.000
 -0.000   0.000  -0.000   0.000  -0.000   0.000  -0.983  -0.000
 -0.000  -0.000   0.000   0.000   0.000  -0.000  -0.000  -0.983
  0.000  -0.000   0.000  -0.000   0.000  -0.000  -0.000  -0.000
  0.000  -0.000  -0.000  -0.000   0.000   0.000  -0.000   0.000
  0.000  -0.000   0.000  -0.000   0.000   0.000   0.000   0.000
  0.000   0.000   0.000   0.000   0.000  -0.000  -0.000   0.000
  0.000   0.000   0.000   0.000   0.000   0.000  -0.000   0.000
 total augmentation occupancy for first ion, spin component:           1
  1.992   0.000   0.000  -0.026  -0.000  -0.000   0.000  -0.000  -0.000   0.000  -0.000   0.000   0.000   0.000   0.000   0.000
  0.000   1.992   0.000   0.000  -0.026   0.000   0.000  -0.000   0.000  -0.000   0.000   0.000   0.000   0.000   0.000   0.000
  0.000   0.000   1.992   0.000  -0.000  -0.026   0.000  -0.000   0.000  -0.000  -0.000   0.000   0.000   0.000  -0.000  -0.000
 -0.026  -0.000  -0.000   0.200   0.000   0.000  -0.000   0.000   0.000   0.000   0.000   0.000  -0.000  -0.000   0.000   0.000
  0.000  -0.026   0.000   0.000   0.200  -0.000   0.000   0.000   0.000   0.000   0.000   0.000   0.000   0.000  -0.000   0.000
  0.000  -0.000  -0.026   0.000  -0.000   0.200   0.000  -0.000   0.000   0.000   0.000  -0.000   0.000   0.000  -0.000   0.000
  0.000   0.000   0.000   0.000   0.000   0.000   2.192   0.000  -0.000   0.000  -0.000  -1.240   0.000  -0.000   0.000  -0.000
 -0.000  -0.000  -0.000   0.000   0.000  -0.000   0.000   2.192   0.000  -0.000   0.000  -0.000  -1.240  -0.000  -0.000  -0.000
  0.000   0.000  -0.000  -0.000   0.000  -0.000  -0.000   0.000   3.389   0.000  -0.000   0.000   0.000  -2.174  -0.000  -0.000
  0.000  -0.000  -0.000   0.000   0.000   0.000  -0.000  -0.000   0.000   2.192  -0.000  -0.000   0.000  -0.000  -1.240  -0.000
 -0.000   0.000   0.000   0.000   0.000  -0.000   0.000  -0.000   0.000   0.000   3.389   0.000   0.000   0.000   0.000  -2.174
  0.000   0.000   0.000  -0.000   0.000   0.000  -1.240  -0.000   0.000   0.000  -0.000   1.666   0.000   0.000   0.000   0.000
  0.000   0.000   0.000   0.000   0.000   0.000  -0.000  -1.240   0.000   0.000  -0.000   0.000   1.666  -0.000  -0.000  -0.000
  0.000   0.000   0.000   0.000   0.000   0.000   0.000  -0.000  -2.174   0.000   0.000  -0.000   0.000   2.220   0.000   0.000
  0.000   0.000  -0.000   0.000   0.000   0.000  -0.000  -0.000   0.000  -1.240  -0.000   0.000  -0.000   0.000   1.666  -0.000
  0.000   0.000   0.000   0.000   0.000   0.000  -0.000  -0.000   0.000   0.000  -2.174   0.000  -0.000   0.000  -0.000   2.220
  0.000   0.000   0.000   0.000   0.000   0.000   0.000   0.000  -0.000  -0.000  -0.000  -0.000  -0.000   0.000  -0.000  -0.000
  0.000   0.000   0.000   0.000   0.000   0.000   0.000   0.000   0.000   0.000  -0.000   0.000   0.000  -0.000   0.000   0.000
 total augmentation occupancy for first ion, spin component:           2
 -0.002   0.000   0.000  -0.009   0.000   0.000   0.000   0.000   0.000   0.000   0.000  -0.000   0.000   0.000   0.000  -0.000
  0.000  -0.002   0.000  -0.000  -0.009   0.000   0.000   0.000   0.000   0.000   0.000   0.000   0.000   0.000   0.000   0.000
  0.000   0.000  -0.002   0.000  -0.000  -0.009   0.000   0.000   0.000   0.000   0.000   0.000   0.000   0.000  -0.000   0.000
 -0.009   0.000  -0.000  -0.018  -0.000  -0.000   0.000   0.000   0.000   0.000   0.000   0.000  -0.000  -0.000   0.000   0.000
 -0.000  -0.009  -0.000  -0.000  -0.018   0.000   0.000  -0.000   0.000   0.000   0.000   0.000  -0.000   0.000  -0.000   0.000
  0.000  -0.000  -0.009   0.000  -0.000  -0.018   0.000   0.000   0.000   0.000   0.000  -0.000   0.000   0.000  -0.000   0.000
  0.000   0.000   0.000   0.000   0.000   0.000   1.781  -0.000  -0.000   0.000   0.000  -0.674  -0.000  -0.000  -0.000   0.000
  0.000   0.000   0.000  -0.000  -0.000   0.000  -0.000   1.781   0.000   0.000   0.000  -0.000  -0.674   0.000   0.000   0.000
  0.000   0.000   0.000   0.000   0.000   0.000   0.000   0.000   2.800   0.000   0.000   0.000  -0.000  -1.148  -0.000   0.000
  0.000   0.000   0.000   0.000  -0.000  -0.000   0.000   0.000   0.000   1.781  -0.000   0.000   0.000  -0.000  -0.674   0.000
  0.000   0.000   0.000  -0.000   0.000  -0.000   0.000   0.000   0.000  -0.000   2.800  -0.000   0.000  -0.000  -0.000  -1.148
 -0.000   0.000   0.000  -0.000   0.000   0.000  -0.674  -0.000   0.000   0.000   0.000   0.001   0.000   0.000   0.000   0.000
  0.000   0.000   0.000   0.000   0.000   0.000  -0.000  -0.674  -0.000   0.000   0.000   0.000   0.001  -0.000   0.000  -0.000
  0.000   0.000   0.000   0.000   0.000   0.000   0.000  -0.000  -1.148  -0.000   0.000   0.000  -0.000   0.229   0.000   0.000
  0.000   0.000  -0.000   0.000   0.000   0.000   0.000   0.000  -0.000  -0.674  -0.000   0.000   0.000  -0.000   0.001   0.000
 -0.000   0.000   0.000   0.000   0.000   0.000   0.000   0.000   0.000   0.000  -1.148   0.000  -0.000   0.000   0.000   0.229
  0.000   0.000   0.000   0.000   0.000   0.000  -0.000  -0.000  -0.000  -0.000   0.000   0.000   0.000  -0.000   0.000  -0.000
  0.000   0.000  -0.000   0.000   0.000  -0.000   0.000   0.000  -0.000   0.000   0.000  -0.000  -0.000   0.000   0.000   0.000


------------------------ aborting loop because EDIFF is reached ----------------------------------------


 


 total charge     
 
# of ion       s       p       d       tot
------------------------------------------
    1        0.385   6.376   6.077  12.838
    2        0.385   6.376   6.078  12.839
--------------------------------------------------
tot          0.770  12.752  12.155  25.677
 


 magnetization (x)
 
# of ion       s       p       d       tot
------------------------------------------
    1       -0.008  -0.039   2.300   2.253
    2       -0.008  -0.039   2.300   2.253
--------------------------------------------------
tot         -0.016  -0.078   4.599   4.506
 
    CHARGE:  cpu time    0.3585: real time    0.3594
    FORLOC:  cpu time    0.0002: real time    0.0002
    FORNL :  cpu time    2.8251: real time    2.8328
    STRESS:  cpu time    8.4635: real time    8.4869
    FORCOR:  cpu time    0.0106: real time    0.0107
    FORHAR:  cpu time    0.0017: real time    0.0018
    MIXING:  cpu time    0.0006: real time    0.0006
    OFIELD:  cpu time    0.0000: real time    0.0000

  FORCE on cell =-STRESS in cart. coord.  units (eV):
  Direction    XX          YY          ZZ          XY          YZ          ZX
  --------------------------------------------------------------------------------------
  Alpha Z   218.87049   218.87049   218.87049
  Ewald   -1205.52018 -1205.52018 -1205.52018    -0.00000    -0.00000    -0.00000
  Hartree   363.41155   363.41155   363.41155    -0.00000    -0.00000    -0.00000
  E(xc)    -179.80291  -179.80291  -179.80291     0.00000    -0.00000     0.00000
  Local     289.66493   289.66493   289.66493    -0.00000    -0.00000     0.00000
  n-local   -60.34444   -54.15741   -50.47860     2.76538    -1.46788     0.59481
  augment   285.34656   285.34656   285.34656     0.00000     0.00000     0.00000
  Kinetic   283.92193   282.59120   281.96922     3.02217    -0.75057     0.04223
  Fock        0.00000     0.00000     0.00000     0.00000     0.00000     0.00000
  -------------------------------------------------------------------------------------
  Total      -0.19560    -0.19560    -0.19560     0.00000     0.00000    -0.00000
  in kB     -13.68037   -13.68037   -13.68037     0.00000     0.00000    -0.00000
  external pressure =      -13.68 kB  Pullay stress =        0.00 kB


 VOLUME and BASIS-vectors are now :
 -----------------------------------------------------------------------------
  energy-cutoff  :      920.00
  volume of cell :       22.91
      direct lattice vectors                 reciprocal lattice vectors
     2.840052000  0.000000000  0.000000000     0.352106229  0.000000000  0.000000000
     0.000000000  2.840052000  0.000000000     0.000000000  0.352106229  0.000000000
     0.000000000  0.000000000  2.840052000     0.000000000  0.000000000  0.352106229

  length of vectors
     2.840052000  2.840052000  2.840052000     0.352106229  0.352106229  0.352106229


 FORCES acting on ions
    electron-ion (+dipol)            ewald-force                    non-local-force                 convergence-correction
 -----------------------------------------------------------------------------------------------
   -.637E-13 -.273E-13 -.468E-13   -.529E-15 -.103E-14 -.897E-14   0.000E+00 -.323E-26 0.000E+00   0.697E-13 0.537E-14 -.765E-14
   0.800E-12 0.747E-11 0.865E-11   0.472E-14 0.447E-14 0.926E-14   0.000E+00 0.000E+00 0.000E+00   -.204E-13 -.105E-13 -.127E-12
 -----------------------------------------------------------------------------------------------
   0.736E-12 0.744E-11 0.860E-11   0.419E-14 0.343E-14 0.284E-15   0.000E+00 -.323E-26 0.000E+00   0.493E-13 -.512E-14 -.135E-12
 
 
 POSITION                                       TOTAL-FORCE (eV/Angst)
 -----------------------------------------------------------------------------------
      0.00000      0.00000      0.00000         0.000000      0.000000      0.000000
      1.42003      1.42003      1.42003        -0.000000     -0.000000     -0.000000
 -----------------------------------------------------------------------------------
    total drift:                                0.000000      0.000000      0.000000


--------------------------------------------------------------------------------------------------------



  FREE ENERGIE OF THE ION-ELECTRON SYSTEM (eV)
  ---------------------------------------------------
  free  energy   TOTEN  =       -16.51550937 eV

  energy  without entropy=      -16.51550937  energy(sigma->0) =      -16.51550937
 


--------------------------------------------------------------------------------------------------------


    POTLOK:  cpu time    0.0160: real time    0.0161


--------------------------------------------------------------------------------------------------------


     LOOP+:  cpu time  267.0604: real time  267.7763
    4ORBIT:  cpu time    0.0000: real time    0.0000
 


 total charge     
 
# of ion       s       p       d       tot
------------------------------------------
    1        0.385   6.376   6.077  12.838
    2        0.385   6.376   6.078  12.839
--------------------------------------------------
tot          0.770  12.752  12.155  25.677
 


 magnetization (x)
 
# of ion       s       p       d       tot
------------------------------------------
    1       -0.008  -0.039   2.300   2.253
    2       -0.008  -0.039   2.300   2.253
--------------------------------------------------
tot         -0.016  -0.078   4.599   4.506
 
 BZINTS: Fermi energy:  9.639197; 28.000000 electrons
         Band energy:-399.003288;  BLOECHL correction: -0.005708

 total amount of memory used by VASP MPI-rank0    80967. kBytes
=======================================================================

   base      :      30000. kBytes
   nonlr-proj:        945. kBytes
   fftplans  :        478. kBytes
   grid      :       1141. kBytes
   one-center:         31. kBytes
   wavefun   :      48372. kBytes
 
  
  
 General timing and accounting informations for this job:
 ========================================================
  
                  Total CPU time used (sec):      280.492
                            User time (sec):      277.843
                          System time (sec):        2.649
                         Elapsed time (sec):      282.266
  
                   Maximum memory used (kb):      153760.
                   Average memory used (kb):           0.
  
                          Minor page faults:        66082
                          Major page faults:            0
                 Voluntary context switches:         1603
