       N       E                     dE             d eps       ncg     rms          rms(c)
DAV:   1     0.131908550517E+04    0.13191E+04   -0.32108E+04 58592   0.370E+03
DAV:   2     0.356629124843E+03   -0.96246E+03   -0.87041E+03 67008   0.742E+02
DAV:   3    -0.388268498853E+01   -0.36051E+03   -0.34936E+03 76304   0.373E+02
DAV:   4    -0.747514163779E+02   -0.70869E+02   -0.69032E+02 93928   0.153E+02
DAV:   5    -0.816777189227E+02   -0.69263E+01   -0.64608E+01 95816   0.519E+01    0.378E+01
DAV:   6    -0.867771719023E+02   -0.50995E+01   -0.31485E+02 79984   0.162E+02    0.507E+01
DAV:   7    -0.813117255767E+02    0.54654E+01   -0.14202E+02 69456   0.149E+02    0.243E+01
DAV:   8    -0.838460544083E+02   -0.25343E+01   -0.37753E+01 88640   0.401E+01    0.941E+00
DAV:   9    -0.831700869889E+02    0.67597E+00   -0.89811E+00 83248   0.218E+01    0.701E+00
DAV:  10    -0.834177783796E+02   -0.24769E+00   -0.13964E+00 94568   0.949E+00    0.640E+00
DAV:  11    -0.832699284490E+02    0.14785E+00   -0.36011E-01 75368   0.655E+00    0.282E+00
DAV:  12    -0.832561570223E+02    0.13771E-01   -0.19091E-01 83904   0.432E+00    0.127E+00
DAV:  13    -0.832568852133E+02   -0.72819E-03   -0.56942E-02 87048   0.203E+00    0.672E-01
DAV:  14    -0.832564604849E+02    0.42473E-03   -0.15655E-02 92584   0.107E+00    0.186E-01
DAV:  15    -0.832570632644E+02   -0.60278E-03   -0.23758E-03 97280   0.373E-01    0.115E-01
DAV:  16    -0.832572007734E+02   -0.13751E-03   -0.53699E-04 97272   0.173E-01    0.703E-02
DAV:  17    -0.832572164462E+02   -0.15673E-04   -0.76698E-05 94200   0.770E-02    0.489E-02
DAV:  18    -0.832572147815E+02    0.16647E-05   -0.58495E-05 90520   0.714E-02    0.302E-02
DAV:  19    -0.832572140596E+02    0.72182E-06   -0.15829E-05 91408   0.387E-02    0.112E-02
DAV:  20    -0.832572153865E+02   -0.13268E-05   -0.53337E-06 92696   0.219E-02    0.488E-03
DAV:  21    -0.832572167177E+02   -0.13312E-05   -0.15572E-06 61736   0.105E-02    0.403E-03
DAV:  22    -0.832572166290E+02    0.88632E-07   -0.30823E-07 42976   0.792E-03
   1 F= -.83257217E+02 E0= -.83257217E+02  d E =0.000000E+00  mag=    -0.0001
