       N       E                     dE             d eps       ncg     rms          rms(c)
DAV:   1     0.515501910276E+02    0.51550E+02   -0.54380E+03  5826   0.798E+02
DAV:   2    -0.115786884650E+02   -0.63129E+02   -0.57162E+02  5544   0.169E+02
DAV:   3    -0.133241101465E+02   -0.17454E+01   -0.17195E+01  6250   0.341E+01
DAV:   4    -0.133474831799E+02   -0.23373E-01   -0.23366E-01  6778   0.343E+00
DAV:   5    -0.133480378008E+02   -0.55462E-03   -0.55461E-03  6392   0.480E-01
DAV:   6    -0.133480684705E+02   -0.30670E-04   -0.30669E-04  7156   0.873E-02
DAV:   7    -0.133480687263E+02   -0.25582E-06   -0.25662E-06  4978   0.646E-03
   1 F= -.13348069E+02 E0= -.13329241E+02  d E =-.376546E-01  mag=     3.2116
