       N       E                     dE             d eps       ncg     rms          rms(c)
DAV:   1     0.763655500235E+03    0.76366E+03   -0.34136E+04  7600   0.282E+03
DAV:   2     0.471247525948E+02   -0.71653E+03   -0.70579E+03  7392   0.746E+02
DAV:   3    -0.133499275022E+02   -0.60475E+02   -0.59603E+02  8362   0.223E+02
