unknown system                          
   1.00000000000000     
     2.500784    0.000000    0.000000
    -1.250392    2.165742    0.000000
     0.000000    0.000000    4.033331
   Co
     2
Direct
  0.666667  0.333333  0.750000
  0.333333  0.666667  0.250000
 
   40   40   60
 0.34190958167E+01 0.34304466012E+01 0.34644716172E+01 0.35212038543E+01 0.36005580341E+01
 0.37023694204E+01 0.38261754293E+01 0.39711611040E+01 0.41359854478E+01 0.43185010190E+01
 0.45158330164E+01 0.47241842147E+01 0.49383927384E+01 0.51526462978E+01 0.53606046557E+01
 0.55544496365E+01 0.57261937784E+01 0.58687323072E+01 0.59757529382E+01 0.60422113434E+01
 0.60647804695E+01 0.60422113434E+01 0.59757529382E+01 0.58687323072E+01 0.57261937784E+01
 0.55544496365E+01 0.53606046557E+01 0.51526462978E+01 0.49383927384E+01 0.47241842147E+01
 0.45158330164E+01 0.43185010190E+01 0.41359854478E+01 0.39711611040E+01 0.38261754293E+01
 0.37023694204E+01 0.36005580341E+01 0.35212038543E+01 0.34644716172E+01 0.34304466012E+01
 0.34304465999E+01 0.34304420208E+01 0.34531303821E+01 0.34985172345E+01 0.35666094503E+01
 0.36573168134E+01 0.37703575353E+01 0.39051683551E+01 0.40606248539E+01 0.42351954484E+01
 0.44262576034E+01 0.46306073774E+01 0.48436493579E+01 0.50601300922E+01 0.52736134210E+01
 0.54764757250E+01 0.56614655726E+01 0.58211595621E+01 0.59483840735E+01 0.60368922728E+01
 0.60822674801E+01 0.60822790710E+01 0.60368999934E+01 0.59483875026E+01 0.58212075658E+01
 0.56614352533E+01 0.54764187564E+01 0.52736349766E+01 0.50602263922E+01 0.48435646039E+01
 0.46306000762E+01 0.44263029757E+01 0.42351437048E+01 0.40606734099E+01 0.39051523569E+01
 0.37703660339E+01 0.36573142971E+01 0.35666119116E+01 0.34985220448E+01 0.34531308773E+01
 0.34644716118E+01 0.34531303784E+01 0.34644763961E+01 0.34985259911E+01 0.35553335838E+01
 0.36349012239E+01 0.37371572101E+01 0.38617316464E+01 0.40080037243E+01 0.41745839617E+01
 0.43596511009E+01 0.45602787900E+01 0.47724453165E+01 0.49918100351E+01 0.52115088521E+01
 0.54246554252E+01 0.56243350365E+01 0.58023382173E+01 0.59504379076E+01 0.60616839562E+01
 0.61307433983E+01 0.61541407448E+01 0.61307257655E+01 0.60616749963E+01 0.59503915952E+01
 0.58023185716E+01 0.56244313212E+01 0.54247114444E+01 0.52113741722E+01 0.49918079430E+01
 0.47725681564E+01 0.45602055756E+01 0.43597010901E+01 0.41745674697E+01 0.40079874611E+01
 0.38617375180E+01 0.37371572088E+01 0.36349027718E+01 0.35553277923E+01 0.34985220402E+01
 0.35212038410E+01 0.34985172243E+01 0.34985259855E+01 0.35211831926E+01 0.35666147060E+01
 0.36348825833E+01 0.37261212226E+01 0.38402071571E+01 0.39768257751E+01 0.41351457647E+01
 0.43137949835E+01 0.45103330576E+01 0.47217483550E+01 0.49435391152E+01 0.51694162706E+01
 0.53938826737E+01 0.56091523795E+01 0.58059428208E+01 0.59758004890E+01 0.61111150913E+01
 0.62053998425E+01 0.62538473051E+01 0.62538526127E+01 0.62054253095E+01 0.61111683146E+01
 0.59758357652E+01 0.58059103247E+01 0.56090459859E+01 0.53939546503E+01 0.51695113217E+01
 0.49434533494E+01 0.47217615469E+01 0.45103131360E+01 0.43138045394E+01 0.41351654653E+01
 0.39768373059E+01 0.38402172820E+01 0.37261120892E+01 0.36349027619E+01 0.35666118979E+01
 0.36005580083E+01 0.35666094301E+01 0.35553335704E+01 0.35666146995E+01 0.36005688498E+01
 0.36573207435E+01 0.37371644820E+01 0.38402051045E+01 0.39665763894E+01 0.41157390481E+01
 0.42870547088E+01 0.44785321335E+01 0.46879867956E+01 0.49113115989E+01 0.51431914743E+01
 0.53785439610E+01 0.56086416807E+01 0.58244061074E+01 0.60171796376E+01 0.61785625945E+01
 0.63004729430E+01 0.63763960951E+01 0.64021733926E+01 0.63763841403E+01 0.63004164499E+01
 0.61785261368E+01 0.60172002749E+01 0.58244776250E+01 0.56086641825E+01 0.53784727572E+01
 0.51432374515E+01 0.49112877165E+01 0.46880468250E+01 0.44785465025E+01 0.42870339827E+01
 0.41157464141E+01 0.39665560596E+01 0.38402172637E+01 0.37371571818E+01 0.36573142682E+01
 0.37023693755E+01 0.36573167782E+01 0.36349011994E+01 0.36348825687E+01 0.36573207373E+01
 0.37023387088E+01 0.37703648593E+01 0.38617192369E+01 0.39768297717E+01 0.41157278771E+01
 0.42782332619E+01 0.44630802567E+01 0.46689365522E+01 0.48918839562E+01 0.51280800992E+01
 0.53726775413E+01 0.56164753183E+01 0.58509002378E+01 0.60672602560E+01 0.62557932381E+01
 0.64066709105E+01 0.65118962038E+01 0.65658672040E+01 0.65658872593E+01 0.65119377496E+01
 0.64067290825E+01 0.62557961415E+01 0.60672273814E+01 0.58508923462E+01 0.56165160175E+01
 0.53726360401E+01 0.51281345317E+01 0.48918911528E+01 0.46688870675E+01 0.44630997279E+01
 0.42782453678E+01 0.41157463841E+01 0.39768372588E+01 0.38617374647E+01 0.37703659821E+01
 0.38261753572E+01 0.37703574788E+01 0.37371571700E+01 0.37261211973E+01 0.37371644690E+01
 0.37703648544E+01 0.38261972151E+01 0.39051483509E+01 0.40080150343E+01 0.41351436756E+01
 0.42870570993E+01 0.44630811613E+01 0.46626608013E+01 0.48828256920E+01 0.51207081931E+01
 0.53716157222E+01 0.56267420647E+01 0.58784216628E+01 0.61174196616E+01 0.63325231728E+01
 0.65121864585E+01 0.66471444293E+01 0.67307539733E+01 0.67590755681E+01 0.67307100699E+01
 0.66471157770E+01 0.65121746472E+01 0.63325454730E+01 0.61174431656E+01 0.58783942586E+01
 0.56268085600E+01 0.53716264633E+01 0.51206755929E+01 0.48828465774E+01 0.46626980343E+01
 0.44630996829E+01 0.42870339091E+01 0.41351653770E+01 0.40079873703E+01 0.39051522722E+01
 0.39711609946E+01 0.39051682687E+01 0.38617315841E+01 0.38402071169E+01 0.38402050828E+01
 0.38617192281E+01 0.39051483494E+01 0.39711377716E+01 0.40606422564E+01 0.41745547089E+01
 0.43138002851E+01 0.44785255688E+01 0.46689299941E+01 0.48828270922E+01 0.51184142350E+01
 0.53719545323E+01 0.56350243625E+01 0.59007298361E+01 0.61596556856E+01 0.63989571559E+01
 0.66057610047E+01 0.67699344312E+01 0.68837710408E+01 0.69421089026E+01 0.69421367713E+01
 0.68838136641E+01 0.67699391322E+01 0.66057788437E+01 0.63989663539E+01 0.61596818739E+01
 0.59007184946E+01 0.56350069112E+01 0.53719617263E+01 0.51184570228E+01 0.48828465158E+01
 0.46688869617E+01 0.44785463701E+01 0.43138043958E+01 0.41745673284E+01 0.40606732810E+01
 0.41359852894E+01 0.40606247277E+01 0.40080036318E+01 0.39768257139E+01 0.39665763552E+01
 0.39768297574E+01 0.40080150326E+01 0.40606422591E+01 0.41360200800E+01 0.42351510401E+01
 0.43596953895E+01 0.45102902306E+01 0.46880122517E+01 0.48918673742E+01 0.51207157582E+01
 0.53719448014E+01 0.56380764657E+01 0.59131284389E+01 0.61875777162E+01 0.64474820915E+01
 0.66789114989E+01 0.68709404795E+01 0.70151683499E+01 0.71048584069E+01 0.71352993219E+01
 0.71048393445E+01 0.70151644132E+01 0.68709501603E+01 0.66788970987E+01 0.64474726970E+01
 0.61876196632E+01 0.59131299034E+01 0.56381252142E+01 0.53719616475E+01 0.51206754527E+01
 0.48918909704E+01 0.46880466181E+01 0.45103129225E+01 0.43597008844E+01 0.42351435185E+01
 0.43185007986E+01 0.42351952706E+01 0.41745838285E+01 0.41351456744E+01 0.41157389955E+01
 0.41157278547E+01 0.41351436737E+01 0.41745547173E+01 0.42351510485E+01 0.43184574498E+01
 0.44262905964E+01 0.45602228608E+01 0.47217888622E+01 0.49112639965E+01 0.51280999354E+01
 0.53715952374E+01 0.56350329386E+01 0.59131165729E+01 0.61973284554E+01 0.64730046100E+01
 0.67252901221E+01 0.69428671017E+01 0.71166604886E+01 0.73016453229E+01 0.73714308952E+01
 0.73714376599E+01 0.73016382455E+01 0.71166797364E+01 0.69428823549E+01 0.67253368346E+01
 0.64729923542E+01 0.61973462264E+01 0.59131298111E+01 0.56350067403E+01 0.53716262304E+01
 0.51281342573E+01 0.49112874214E+01 0.47217612483E+01 0.45602052911E+01 0.44263027183E+01
 0.45158327200E+01 0.44262573614E+01 0.43596509154E+01 0.43137948542E+01 0.42870546297E+01
 0.42782332254E+01 0.42870570937E+01 0.43138002991E+01 0.43596954097E+01 0.44262906120E+01
 0.45158637566E+01 0.46305439035E+01 0.47725094750E+01 0.49434574454E+01 0.51432618798E+01
 0.53726082822E+01 0.56267897486E+01 0.59006898879E+01 0.61876076632E+01 0.64729848215E+01
 0.67412684502E+01 0.69803315912E+01 0.72410320417E+01 0.74113565313E+01 0.75189864168E+01
 0.75557060609E+01 0.75190043894E+01 0.74113785125E+01 0.72410129097E+01 0.69803322533E+01
 0.67412820475E+01 0.64729922559E+01 0.61876194705E+01 0.59007182211E+01 0.56268082251E+01
 0.53726356620E+01 0.51432370544E+01 0.49434529535E+01 0.47725677791E+01 0.46305997341E+01
 0.47241838300E+01 0.46306070571E+01 0.45602785390E+01 0.45103328762E+01 0.44785320173E+01
 0.44630801974E+01 0.44630811469E+01 0.44785255853E+01 0.45102902628E+01 0.45602228943E+01
 0.46305439250E+01 0.47241992798E+01 0.48436417898E+01 0.49917705087E+01 0.51694494681E+01
 0.53784813909E+01 0.56165159861E+01 0.58783642011E+01 0.61596816505E+01 0.64474449056E+01
 0.67253015691E+01 0.69803416528E+01 0.72663697625E+01 0.74689248219E+01 0.76128790944E+01
 0.76875362307E+01 0.76875435573E+01 0.76128577160E+01 0.74689343710E+01 0.72664075802E+01
 0.69803321593E+01 0.67253366411E+01 0.64474724054E+01 0.61596814956E+01 0.58783938152E+01
 0.56165155312E+01 0.53784722488E+01 0.51695108180E+01 0.49918074618E+01 0.48435641639E+01
 0.49383922531E+01 0.48436489465E+01 0.47724449873E+01 0.47217481096E+01 0.46879866312E+01
 0.46689364601E+01 0.46626607698E+01 0.46689300077E+01 0.46880122940E+01 0.47217889155E+01
 0.47725095233E+01 0.48436418186E+01 0.49382852266E+01 0.50602023680E+01 0.52114471835E+01
 0.53939001084E+01 0.56086253715E+01 0.58508985992E+01 0.61174132503E+01 0.63989631200E+01
 0.66788981794E+01 0.69428752819E+01 0.72409929178E+01 0.74689299872E+01 0.76450138347E+01
 0.77561990950E+01 0.77940941509E+01 0.77561919687E+01 0.76450465618E+01 0.74689342840E+01
 0.72410127219E+01 0.69428820759E+01 0.66788967171E+01 0.63989658781E+01 0.61174426154E+01
 0.58508917500E+01 0.56086635616E+01 0.53939540311E+01 0.52113735800E+01 0.50602258442E+01
 0.51526457028E+01 0.50601295798E+01 0.49918096144E+01 0.49435387911E+01 0.49113113700E+01
 0.48918838162E+01 0.48828256294E+01 0.48828270913E+01 0.48918674167E+01 0.49112640627E+01
 0.49434575172E+01 0.49917705689E+01 0.50602024035E+01 0.51526816557E+01 0.52735290693E+01
 0.54247066320E+01 0.56090919556E+01 0.58244105434E+01 0.60672375908E+01 0.63325025410E+01
 0.66057451888E+01 0.68709355062E+01 0.71166421249E+01 0.74113933463E+01 0.76128676226E+01
 0.77561873116E+01 0.78304720610E+01 0.78305041005E+01 0.77561919033E+01 0.76128575622E+01
 0.74113782545E+01 0.71166793867E+01 0.68709497045E+01 0.66057782855E+01 0.63325448289E+01
 0.60672266804E+01 0.58244768965E+01 0.56090452522E+01 0.54247107363E+01 0.52736343155E+01
 0.53606039463E+01 0.52736127987E+01 0.52115083289E+01 0.51694158555E+01 0.51431911694E+01
 0.51280799007E+01 0.51207080901E+01 0.51184142120E+01 0.51207157953E+01 0.51281000111E+01
 0.51432619720E+01 0.51694495568E+01 0.52114472526E+01 0.52735291081E+01 0.53606637967E+01
 0.54764243648E+01 0.56243341107E+01 0.58059370757E+01 0.60171679381E+01 0.62557850168E+01
 0.65121930839E+01 0.67699114718E+01 0.70151768135E+01 0.73016176003E+01 0.75189572990E+01
 0.76875230534E+01 0.77941186877E+01 0.78304720230E+01 0.77940940478E+01 0.76875433633E+01
 0.75190040874E+01 0.73016378267E+01 0.70151639027E+01 0.67699385114E+01 0.65121739288E+01
 0.62557953510E+01 0.60171994476E+01 0.58059094855E+01 0.56244304995E+01 0.54764179817E+01
 0.55544488149E+01 0.54764749896E+01 0.54246547936E+01 0.53938821580E+01 0.53785435673E+01
 0.53726772676E+01 0.53716155602E+01 0.53719544679E+01 0.53719448157E+01 0.53715953086E+01
 0.53726083865E+01 0.53784815055E+01 0.53939002119E+01 0.54247067083E+01 0.54764244042E+01
 0.55543846262E+01 0.56615054509E+01 0.58022614738E+01 0.59758268745E+01 0.61785035370E+01
 0.64066731820E+01 0.66471067515E+01 0.68837652980E+01 0.71048403789E+01 0.73714301529E+01
 0.75557263780E+01 0.76875230427E+01 0.77561872635E+01 0.77561989816E+01 0.76875360259E+01
 0.75557057442E+01 0.73714372199E+01 0.71048388039E+01 0.68838130055E+01 0.66471150085E+01
 0.64067282262E+01 0.61785252280E+01 0.59758348353E+01 0.58023176471E+01 0.56614343686E+01
 0.57261928529E+01 0.56614647262E+01 0.56243342937E+01 0.56091517554E+01 0.56086411861E+01
 0.56164749546E+01 0.56267418279E+01 0.56350242400E+01 0.56380764401E+01 0.56350329869E+01
 0.56267898465E+01 0.56165161089E+01 0.56086254977E+01 0.56090920655E+01 0.56243341896E+01
 0.56615054893E+01 0.57260986938E+01 0.58212146591E+01 0.59503752166E+01 0.61111376466E+01
 0.63004456023E+01 0.65118984842E+01 0.67307337613E+01 0.69421079612E+01 0.71352715085E+01
 0.73714301627E+01 0.75189572992E+01 0.76128675885E+01 0.76450137374E+01 0.76128789066E+01
 0.75189861149E+01 0.73714304649E+01 0.71352987784E+01 0.69421361013E+01 0.67307092785E+01
 0.65119368553E+01 0.63004154843E+01 0.61111673139E+01 0.59503905861E+01 0.58212065825E+01
 0.58687312912E+01 0.58211586140E+01 0.58023373667E+01 0.58059420878E+01 0.58244055066E+01
 0.58508997759E+01 0.58784213398E+01 0.59007296433E+01 0.59131283605E+01 0.59131165869E+01
 0.59006899687E+01 0.58783643214E+01 0.58508987334E+01 0.58244106711E+01 0.58059371818E+01
 0.58022615478E+01 0.58212146940E+01 0.58686963995E+01 0.59483576746E+01 0.60616744012E+01
 0.62053562603E+01 0.63763852730E+01 0.65658335936E+01 0.67590659106E+01 0.69421079775E+01
 0.71048404012E+01 0.73016176266E+01 0.74113933431E+01 0.74689299256E+01 0.74689246734E+01
 0.74113562700E+01 0.73016449308E+01 0.71048578884E+01 0.69421082492E+01 0.67590747827E+01
 0.65658863566E+01 0.63763831479E+01 0.62054242642E+01 0.60616739259E+01 0.59483864404E+01
 0.59757518515E+01 0.59483830396E+01 0.59504369600E+01 0.59757996529E+01 0.60171789308E+01
 0.60672596913E+01 0.61174192428E+01 0.61596554082E+01 0.61875775666E+01 0.61973284144E+01
 0.61876077064E+01 0.61596817516E+01 0.61174133816E+01 0.60672377271E+01 0.60171680586E+01
 0.59758269682E+01 0.59503752783E+01 0.59483577030E+01 0.59757680404E+01 0.60368434147E+01
 0.61307656070E+01 0.62538027255E+01 0.64021954620E+01 0.65658336152E+01 0.67307338011E+01
 0.68837653459E+01 0.70151768540E+01 0.71166421394E+01 0.72409929027E+01 0.72663696676E+01
 0.72410318387E+01 0.71166601534E+01 0.70151678798E+01 0.68837704300E+01 0.67307532216E+01
 0.65658663228E+01 0.64021724047E+01 0.62538515523E+01 0.61307246612E+01 0.60368988779E+01
 0.60422102114E+01 0.60368911755E+01 0.60616829301E+01 0.61111141647E+01 0.61785617888E+01
 0.62557925718E+01 0.63325226546E+01 0.63989567850E+01 0.64474818575E+01 0.64730044963E+01
 0.64729848059E+01 0.64474449634E+01 0.63989632245E+01 0.63325026670E+01 0.62557851407E+01
 0.61785036405E+01 0.61111377204E+01 0.60616744454E+01 0.60368434329E+01 0.60422162600E+01
 0.60822162919E+01 0.61541374706E+01 0.62538027418E+01 0.63763853128E+01 0.65118985467E+01
 0.66471068279E+01 0.67699115466E+01 0.68709355599E+01 0.69428752917E+01 0.69803415940E+01
 0.69803314384E+01 0.69428668327E+01 0.68709400772E+01 0.67699338856E+01 0.66471437370E+01
 0.65118953721E+01 0.63763951425E+01 0.62538462612E+01 0.61541396370E+01 0.60822779311E+01
 0.60647793220E+01 0.60822663466E+01 0.61307423171E+01 0.62053988445E+01 0.63004720530E+01
 0.64066701524E+01 0.65121858460E+01 0.66057605412E+01 0.66789111772E+01 0.67252899288E+01
 0.67412683653E+01 0.67253015694E+01 0.66788982394E+01 0.66057452837E+01 0.65121931900E+01
 0.64066732802E+01 0.63004456779E+01 0.62053563080E+01 0.61307656301E+01 0.60822162984E+01
 0.60648127920E+01 0.60822162984E+01 0.61307656301E+01 0.62053563080E+01 0.63004456779E+01
 0.64066732802E+01 0.65121931900E+01 0.66057452837E+01 0.66788982394E+01 0.67253015694E+01
 0.67412683653E+01 0.67252899288E+01 0.66789111772E+01 0.66057605412E+01 0.65121858460E+01
 0.64066701524E+01 0.63004720530E+01 0.62053988445E+01 0.61307423171E+01 0.60822663466E+01
 0.60422102114E+01 0.60822779311E+01 0.61541396370E+01 0.62538462612E+01 0.63763951425E+01
 0.65118953721E+01 0.66471437370E+01 0.67699338856E+01 0.68709400772E+01 0.69428668327E+01
 0.69803314384E+01 0.69803415940E+01 0.69428752917E+01 0.68709355599E+01 0.67699115466E+01
 0.66471068279E+01 0.65118985467E+01 0.63763853128E+01 0.62538027418E+01 0.61541374706E+01
 0.60822162919E+01 0.60422162600E+01 0.60368434329E+01 0.60616744454E+01 0.61111377204E+01
 0.61785036405E+01 0.62557851407E+01 0.63325026670E+01 0.63989632245E+01 0.64474449634E+01
 0.64729848059E+01 0.64730044963E+01 0.64474818575E+01 0.63989567850E+01 0.63325226546E+01
 0.62557925718E+01 0.61785617888E+01 0.61111141647E+01 0.60616829301E+01 0.60368911755E+01
 0.59757518515E+01 0.60368988779E+01 0.61307246612E+01 0.62538515523E+01 0.64021724047E+01
 0.65658663228E+01 0.67307532216E+01 0.68837704300E+01 0.70151678798E+01 0.71166601534E+01
 0.72410318387E+01 0.72663696676E+01 0.72409929027E+01 0.71166421394E+01 0.70151768540E+01
 0.68837653459E+01 0.67307338011E+01 0.65658336152E+01 0.64021954620E+01 0.62538027255E+01
 0.61307656070E+01 0.60368434147E+01 0.59757680404E+01 0.59483577030E+01 0.59503752783E+01
 0.59758269682E+01 0.60171680586E+01 0.60672377271E+01 0.61174133816E+01 0.61596817516E+01
 0.61876077064E+01 0.61973284144E+01 0.61875775666E+01 0.61596554082E+01 0.61174192428E+01
 0.60672596913E+01 0.60171789308E+01 0.59757996529E+01 0.59504369600E+01 0.59483830396E+01
 0.58687312912E+01 0.59483864404E+01 0.60616739259E+01 0.62054242642E+01 0.63763831479E+01
 0.65658863566E+01 0.67590747827E+01 0.69421082492E+01 0.71048578884E+01 0.73016449308E+01
 0.74113562700E+01 0.74689246734E+01 0.74689299256E+01 0.74113933431E+01 0.73016176266E+01
 0.71048404012E+01 0.69421079775E+01 0.67590659106E+01 0.65658335936E+01 0.63763852730E+01
 0.62053562603E+01 0.60616744012E+01 0.59483576746E+01 0.58686963995E+01 0.58212146940E+01
 0.58022615478E+01 0.58059371818E+01 0.58244106711E+01 0.58508987334E+01 0.58783643214E+01
 0.59006899687E+01 0.59131165869E+01 0.59131283605E+01 0.59007296433E+01 0.58784213398E+01
 0.58508997759E+01 0.58244055066E+01 0.58059420878E+01 0.58023373667E+01 0.58211586140E+01
 0.57261928529E+01 0.58212065825E+01 0.59503905861E+01 0.61111673139E+01 0.63004154843E+01
 0.65119368553E+01 0.67307092785E+01 0.69421361013E+01 0.71352987784E+01 0.73714304649E+01
 0.75189861149E+01 0.76128789066E+01 0.76450137374E+01 0.76128675885E+01 0.75189572992E+01
 0.73714301627E+01 0.71352715085E+01 0.69421079612E+01 0.67307337613E+01 0.65118984842E+01
 0.63004456023E+01 0.61111376466E+01 0.59503752166E+01 0.58212146591E+01 0.57260986938E+01
 0.56615054893E+01 0.56243341896E+01 0.56090920655E+01 0.56086254977E+01 0.56165161089E+01
 0.56267898465E+01 0.56350329869E+01 0.56380764401E+01 0.56350242400E+01 0.56267418279E+01
 0.56164749546E+01 0.56086411861E+01 0.56091517554E+01 0.56243342937E+01 0.56614647262E+01
 0.55544488149E+01 0.56614343686E+01 0.58023176471E+01 0.59758348353E+01 0.61785252280E+01
 0.64067282262E+01 0.66471150085E+01 0.68838130055E+01 0.71048388039E+01 0.73714372199E+01
 0.75557057442E+01 0.76875360259E+01 0.77561989816E+01 0.77561872635E+01 0.76875230427E+01
 0.75557263780E+01 0.73714301529E+01 0.71048403789E+01 0.68837652980E+01 0.66471067515E+01
 0.64066731820E+01 0.61785035370E+01 0.59758268745E+01 0.58022614738E+01 0.56615054509E+01
 0.55543846262E+01 0.54764244042E+01 0.54247067083E+01 0.53939002119E+01 0.53784815055E+01
 0.53726083865E+01 0.53715953086E+01 0.53719448157E+01 0.53719544679E+01 0.53716155602E+01
 0.53726772676E+01 0.53785435673E+01 0.53938821580E+01 0.54246547936E+01 0.54764749896E+01
 0.53606039463E+01 0.54764179817E+01 0.56244304995E+01 0.58059094855E+01 0.60171994476E+01
 0.62557953510E+01 0.65121739288E+01 0.67699385114E+01 0.70151639027E+01 0.73016378267E+01
 0.75190040874E+01 0.76875433633E+01 0.77940940478E+01 0.78304720230E+01 0.77941186877E+01
 0.76875230534E+01 0.75189572990E+01 0.73016176003E+01 0.70151768135E+01 0.67699114718E+01
 0.65121930839E+01 0.62557850168E+01 0.60171679381E+01 0.58059370757E+01 0.56243341107E+01
 0.54764243648E+01 0.53606637967E+01 0.52735291081E+01 0.52114472526E+01 0.51694495568E+01
 0.51432619720E+01 0.51281000111E+01 0.51207157953E+01 0.51184142120E+01 0.51207080901E+01
 0.51280799007E+01 0.51431911694E+01 0.51694158555E+01 0.52115083289E+01 0.52736127987E+01
 0.51526457028E+01 0.52736343155E+01 0.54247107363E+01 0.56090452522E+01 0.58244768965E+01
 0.60672266804E+01 0.63325448289E+01 0.66057782855E+01 0.68709497045E+01 0.71166793867E+01
 0.74113782545E+01 0.76128575622E+01 0.77561919033E+01 0.78305041005E+01 0.78304720610E+01
 0.77561873116E+01 0.76128676226E+01 0.74113933463E+01 0.71166421249E+01 0.68709355062E+01
 0.66057451888E+01 0.63325025410E+01 0.60672375908E+01 0.58244105434E+01 0.56090919556E+01
 0.54247066320E+01 0.52735290693E+01 0.51526816557E+01 0.50602024035E+01 0.49917705689E+01
 0.49434575172E+01 0.49112640627E+01 0.48918674167E+01 0.48828270913E+01 0.48828256294E+01
 0.48918838162E+01 0.49113113700E+01 0.49435387911E+01 0.49918096144E+01 0.50601295798E+01
 0.49383922531E+01 0.50602258442E+01 0.52113735800E+01 0.53939540311E+01 0.56086635616E+01
 0.58508917500E+01 0.61174426154E+01 0.63989658781E+01 0.66788967171E+01 0.69428820759E+01
 0.72410127219E+01 0.74689342840E+01 0.76450465618E+01 0.77561919687E+01 0.77940941509E+01
 0.77561990950E+01 0.76450138347E+01 0.74689299872E+01 0.72409929178E+01 0.69428752819E+01
 0.66788981794E+01 0.63989631200E+01 0.61174132503E+01 0.58508985992E+01 0.56086253715E+01
 0.53939001084E+01 0.52114471835E+01 0.50602023680E+01 0.49382852266E+01 0.48436418186E+01
 0.47725095233E+01 0.47217889155E+01 0.46880122940E+01 0.46689300077E+01 0.46626607698E+01
 0.46689364601E+01 0.46879866312E+01 0.47217481096E+01 0.47724449873E+01 0.48436489465E+01
 0.47241838300E+01 0.48435641639E+01 0.49918074618E+01 0.51695108180E+01 0.53784722488E+01
 0.56165155312E+01 0.58783938152E+01 0.61596814956E+01 0.64474724054E+01 0.67253366411E+01
 0.69803321593E+01 0.72664075802E+01 0.74689343710E+01 0.76128577160E+01 0.76875435573E+01
 0.76875362307E+01 0.76128790944E+01 0.74689248219E+01 0.72663697625E+01 0.69803416528E+01
 0.67253015691E+01 0.64474449056E+01 0.61596816505E+01 0.58783642011E+01 0.56165159861E+01
 0.53784813909E+01 0.51694494681E+01 0.49917705087E+01 0.48436417898E+01 0.47241992798E+01
 0.46305439250E+01 0.45602228943E+01 0.45102902628E+01 0.44785255853E+01 0.44630811469E+01
 0.44630801974E+01 0.44785320173E+01 0.45103328762E+01 0.45602785390E+01 0.46306070571E+01
 0.45158327200E+01 0.46305997341E+01 0.47725677791E+01 0.49434529535E+01 0.51432370544E+01
 0.53726356620E+01 0.56268082251E+01 0.59007182211E+01 0.61876194705E+01 0.64729922559E+01
 0.67412820475E+01 0.69803322533E+01 0.72410129097E+01 0.74113785125E+01 0.75190043894E+01
 0.75557060609E+01 0.75189864168E+01 0.74113565313E+01 0.72410320417E+01 0.69803315912E+01
 0.67412684502E+01 0.64729848215E+01 0.61876076632E+01 0.59006898879E+01 0.56267897486E+01
 0.53726082822E+01 0.51432618798E+01 0.49434574454E+01 0.47725094750E+01 0.46305439035E+01
 0.45158637566E+01 0.44262906120E+01 0.43596954097E+01 0.43138002991E+01 0.42870570937E+01
 0.42782332254E+01 0.42870546297E+01 0.43137948542E+01 0.43596509154E+01 0.44262573614E+01
 0.43185007986E+01 0.44263027183E+01 0.45602052911E+01 0.47217612483E+01 0.49112874214E+01
 0.51281342573E+01 0.53716262303E+01 0.56350067403E+01 0.59131298111E+01 0.61973462264E+01
 0.64729923542E+01 0.67253368346E+01 0.69428823549E+01 0.71166797364E+01 0.73016382455E+01
 0.73714376599E+01 0.73714308952E+01 0.73016453229E+01 0.71166604886E+01 0.69428671017E+01
 0.67252901221E+01 0.64730046100E+01 0.61973284554E+01 0.59131165729E+01 0.56350329386E+01
 0.53715952374E+01 0.51280999354E+01 0.49112639965E+01 0.47217888622E+01 0.45602228608E+01
 0.44262905964E+01 0.43184574498E+01 0.42351510485E+01 0.41745547173E+01 0.41351436737E+01
 0.41157278547E+01 0.41157389955E+01 0.41351456744E+01 0.41745838285E+01 0.42351952706E+01
 0.41359852894E+01 0.42351435185E+01 0.43597008844E+01 0.45103129225E+01 0.46880466181E+01
 0.48918909704E+01 0.51206754527E+01 0.53719616475E+01 0.56381252142E+01 0.59131299034E+01
 0.61876196632E+01 0.64474726970E+01 0.66788970987E+01 0.68709501603E+01 0.70151644132E+01
 0.71048393445E+01 0.71352993219E+01 0.71048584069E+01 0.70151683499E+01 0.68709404795E+01
 0.66789114989E+01 0.64474820915E+01 0.61875777162E+01 0.59131284389E+01 0.56380764657E+01
 0.53719448014E+01 0.51207157582E+01 0.48918673742E+01 0.46880122517E+01 0.45102902306E+01
 0.43596953895E+01 0.42351510401E+01 0.41360200800E+01 0.40606422591E+01 0.40080150326E+01
 0.39768297574E+01 0.39665763552E+01 0.39768257139E+01 0.40080036318E+01 0.40606247277E+01
 0.39711609946E+01 0.40606732810E+01 0.41745673284E+01 0.43138043958E+01 0.44785463701E+01
 0.46688869617E+01 0.48828465158E+01 0.51184570228E+01 0.53719617263E+01 0.56350069112E+01
 0.59007184946E+01 0.61596818739E+01 0.63989663539E+01 0.66057788437E+01 0.67699391322E+01
 0.68838136641E+01 0.69421367713E+01 0.69421089026E+01 0.68837710408E+01 0.67699344312E+01
 0.66057610047E+01 0.63989571559E+01 0.61596556856E+01 0.59007298361E+01 0.56350243625E+01
 0.53719545323E+01 0.51184142350E+01 0.48828270922E+01 0.46689299941E+01 0.44785255688E+01
 0.43138002851E+01 0.41745547089E+01 0.40606422564E+01 0.39711377716E+01 0.39051483494E+01
 0.38617192281E+01 0.38402050828E+01 0.38402071169E+01 0.38617315841E+01 0.39051682687E+01
 0.38261753572E+01 0.39051522722E+01 0.40079873703E+01 0.41351653770E+01 0.42870339091E+01
 0.44630996829E+01 0.46626980343E+01 0.48828465774E+01 0.51206755929E+01 0.53716264633E+01
 0.56268085600E+01 0.58783942586E+01 0.61174431656E+01 0.63325454730E+01 0.65121746472E+01
 0.66471157770E+01 0.67307100699E+01 0.67590755681E+01 0.67307539733E+01 0.66471444293E+01
 0.65121864585E+01 0.63325231728E+01 0.61174196616E+01 0.58784216628E+01 0.56267420647E+01
 0.53716157222E+01 0.51207081931E+01 0.48828256920E+01 0.46626608013E+01 0.44630811613E+01
 0.42870570993E+01 0.41351436756E+01 0.40080150343E+01 0.39051483509E+01 0.38261972151E+01
 0.37703648544E+01 0.37371644690E+01 0.37261211973E+01 0.37371571700E+01 0.37703574788E+01
 0.37023693755E+01 0.37703659821E+01 0.38617374647E+01 0.39768372588E+01 0.41157463841E+01
 0.42782453678E+01 0.44630997279E+01 0.46688870675E+01 0.48918911528E+01 0.51281345317E+01
 0.53726360401E+01 0.56165160175E+01 0.58508923462E+01 0.60672273814E+01 0.62557961415E+01
 0.64067290825E+01 0.65119377496E+01 0.65658872593E+01 0.65658672040E+01 0.65118962038E+01
 0.64066709105E+01 0.62557932381E+01 0.60672602560E+01 0.58509002378E+01 0.56164753183E+01
 0.53726775413E+01 0.51280800992E+01 0.48918839562E+01 0.46689365522E+01 0.44630802567E+01
 0.42782332619E+01 0.41157278771E+01 0.39768297717E+01 0.38617192369E+01 0.37703648593E+01
 0.37023387088E+01 0.36573207373E+01 0.36348825687E+01 0.36349011994E+01 0.36573167782E+01
 0.36005580083E+01 0.36573142682E+01 0.37371571818E+01 0.38402172637E+01 0.39665560596E+01
 0.41157464141E+01 0.42870339827E+01 0.44785465025E+01 0.46880468250E+01 0.49112877165E+01
 0.51432374515E+01 0.53784727572E+01 0.56086641825E+01 0.58244776250E+01 0.60172002749E+01
 0.61785261368E+01 0.63004164499E+01 0.63763841403E+01 0.64021733926E+01 0.63763960951E+01
 0.63004729430E+01 0.61785625945E+01 0.60171796376E+01 0.58244061074E+01 0.56086416807E+01
 0.53785439610E+01 0.51431914743E+01 0.49113115989E+01 0.46879867956E+01 0.44785321335E+01
 0.42870547088E+01 0.41157390481E+01 0.39665763894E+01 0.38402051045E+01 0.37371644820E+01
 0.36573207435E+01 0.36005688498E+01 0.35666146995E+01 0.35553335704E+01 0.35666094301E+01
 0.35212038410E+01 0.35666118979E+01 0.36349027619E+01 0.37261120892E+01 0.38402172820E+01
 0.39768373059E+01 0.41351654653E+01 0.43138045394E+01 0.45103131360E+01 0.47217615469E+01
 0.49434533494E+01 0.51695113217E+01 0.53939546503E+01 0.56090459859E+01 0.58059103247E+01
 0.59758357652E+01 0.61111683146E+01 0.62054253095E+01 0.62538526127E+01 0.62538473051E+01
 0.62053998425E+01 0.61111150913E+01 0.59758004890E+01 0.58059428208E+01 0.56091523795E+01
 0.53938826737E+01 0.51694162706E+01 0.49435391152E+01 0.47217483550E+01 0.45103330576E+01
 0.43137949835E+01 0.41351457647E+01 0.39768257751E+01 0.38402071571E+01 0.37261212226E+01
 0.36348825833E+01 0.35666147060E+01 0.35211831926E+01 0.34985259855E+01 0.34985172243E+01
 0.34644716118E+01 0.34985220402E+01 0.35553277923E+01 0.36349027718E+01 0.37371572088E+01
 0.38617375180E+01 0.40079874611E+01 0.41745674697E+01 0.43597010901E+01 0.45602055756E+01
 0.47725681564E+01 0.49918079430E+01 0.52113741722E+01 0.54247114444E+01 0.56244313212E+01
 0.58023185716E+01 0.59503915952E+01 0.60616749963E+01 0.61307257655E+01 0.61541407448E+01
 0.61307433983E+01 0.60616839562E+01 0.59504379076E+01 0.58023382173E+01 0.56243350365E+01
 0.54246554252E+01 0.52115088521E+01 0.49918100351E+01 0.47724453165E+01 0.45602787900E+01
 0.43596511009E+01 0.41745839617E+01 0.40080037243E+01 0.38617316464E+01 0.37371572101E+01
 0.36349012239E+01 0.35553335838E+01 0.34985259911E+01 0.34644763961E+01 0.34531303784E+01
 0.34304465999E+01 0.34531308773E+01 0.34985220448E+01 0.35666119116E+01 0.36573142971E+01
 0.37703660339E+01 0.39051523569E+01 0.40606734099E+01 0.42351437048E+01 0.44263029757E+01
 0.46306000762E+01 0.48435646039E+01 0.50602263922E+01 0.52736349766E+01 0.54764187564E+01
 0.56614352533E+01 0.58212075658E+01 0.59483875026E+01 0.60368999934E+01 0.60822790710E+01
 0.60822674801E+01 0.60368922728E+01 0.59483840735E+01 0.58211595621E+01 0.56614655726E+01
 0.54764757250E+01 0.52736134210E+01 0.50601300922E+01 0.48436493579E+01 0.46306073774E+01
 0.44262576034E+01 0.42351954484E+01 0.40606248539E+01 0.39051683551E+01 0.37703575353E+01
 0.36573168134E+01 0.35666094503E+01 0.34985172345E+01 0.34531303821E+01 0.34304420208E+01
 0.34314832922E+01 0.34430027764E+01 0.34775964323E+01 0.35352692549E+01 0.36160324579E+01
 0.37197274666E+01 0.38459802394E+01 0.39940356638E+01 0.41625172552E+01 0.43495097360E+01
 0.45520298550E+01 0.47660664130E+01 0.49869128841E+01 0.52082780086E+01 0.54227584245E+01
 0.56230853899E+01 0.58016597347E+01 0.59504760394E+01 0.60624072266E+01 0.61318778762E+01
 0.61554101802E+01 0.61318826518E+01 0.60624001455E+01 0.59504567032E+01 0.58016327782E+01
 0.56230791478E+01 0.54227834981E+01 0.52082916988E+01 0.49868707952E+01 0.47660793580E+01