unknown system                          
   1.00000000000000     
     2.500784    0.000000    0.000000
    -1.250392    2.165742    0.000000
     0.000000    0.000000    4.033331
   Co
     2
Direct
  0.666667  0.333333  0.750000
  0.333333  0.666667  0.250000
 
   40   40   60
 0.40849028523E+01 0.40975198725E+01 0.41352207996E+01 0.41975884502E+01 0.42840253796E+01
 0.43938584008E+01 0.45264106507E+01 0.46809909284E+01 0.48567665389E+01 0.50525154516E+01
 0.52662876397E+01 0.54950345462E+01 0.57342833867E+01 0.59779373159E+01 0.62182736143E+01
 0.64461906970E+01 0.66517214230E+01 0.68247864300E+01 0.69561114942E+01 0.70381863046E+01
 0.70661120883E+01 0.70381863046E+01 0.69561114942E+01 0.68247864300E+01 0.66517214230E+01
 0.64461906970E+01 0.62182736143E+01 0.59779373159E+01 0.57342833867E+01 0.54950345462E+01
 0.52662876397E+01 0.50525154516E+01 0.48567665389E+01 0.46809909284E+01 0.45264106507E+01
 0.43938584008E+01 0.42840253796E+01 0.41975884502E+01 0.41352207996E+01 0.40975198725E+01
 0.40975198684E+01 0.40975239219E+01 0.41226862144E+01 0.41727196612E+01 0.42471143356E+01
 0.43452413114E+01 0.44664496331E+01 0.46101028695E+01 0.47755104084E+01 0.49617330928E+01
 0.51672764617E+01 0.53897181675E+01 0.56253407437E+01 0.58688523809E+01 0.61132757773E+01
 0.63500690825E+01 0.65695142916E+01 0.67613684572E+01 0.69157248611E+01 0.70239815816E+01
 0.70797751035E+01 0.70797210829E+01 0.70238245927E+01 0.69154792808E+01 0.67610556435E+01
 0.65691593284E+01 0.63496973136E+01 0.61129098178E+01 0.58685100784E+01 0.56250342675E+01
 0.53894541178E+01 0.51670567030E+01 0.49615559508E+01 0.47753719135E+01 0.46099978354E+01
 0.44663724804E+01 0.43451866406E+01 0.42470773083E+01 0.41726962575E+01 0.41226734203E+01
 0.41352207830E+01 0.41226862020E+01 0.41352364241E+01 0.41727300404E+01 0.42347770772E+01
 0.43208346998E+01 0.44303213510E+01 0.45626937674E+01 0.47174324102E+01 0.48938994265E+01
 0.50910651482E+01 0.53071357334E+01 0.55391463789E+01 0.57826044772E+01 0.60312717353E+01
 0.62771631505E+01 0.65108150675E+01 0.67218365013E+01 0.68997107198E+01 0.70347630739E+01
 0.71191651662E+01 0.71478173857E+01 0.71189547757E+01 0.70343619046E+01 0.68991547707E+01
 0.67211724826E+01 0.65100935790E+01 0.62764321566E+01 0.60305715170E+01 0.57819647134E+01
 0.55385854100E+01 0.53066615791E+01 0.50906776005E+01 0.48935925263E+01 0.47171967787E+01
 0.45625184962E+01 0.44301953760E+01 0.43207477324E+01 0.42347202253E+01 0.41726962450E+01
 0.41975884121E+01 0.41727196274E+01 0.41727300191E+01 0.41976214780E+01 0.42471385908E+01
 0.43208462685E+01 0.44182525757E+01 0.45389208548E+01 0.46825080743E+01 0.48486783044E+01
 0.50368689791E+01 0.52459260704E+01 0.54736629187E+01 0.57164270593E+01 0.59687733142E+01
 0.62233366463E+01 0.64709753463E+01 0.67012173614E+01 0.69029947362E+01 0.70655988237E+01
 0.71797392665E+01 0.72385529137E+01 0.72383972985E+01 0.71792871077E+01 0.70648917411E+01
 0.69020945524E+01 0.67001966690E+01 0.64699074646E+01 0.62222869577E+01 0.59677933560E+01
 0.57155518817E+01 0.54729113991E+01 0.52453033254E+01 0.50363698304E+01 0.48482908817E+01
 0.46822169469E+01 0.45387094325E+01 0.44181047919E+01 0.43207477103E+01 0.42470772739E+01
 0.42840253095E+01 0.42471142703E+01 0.42347770246E+01 0.42471385598E+01 0.42840788765E+01
 0.43452791404E+01 0.44303408706E+01 0.45389255132E+01 0.46708445547E+01 0.48260341680E+01
 0.50043724583E+01 0.52053359732E+01 0.54275363338E+01 0.56682174008E+01 0.59228186814E+01
 0.61847149479E+01 0.64452234617E+01 0.66939322802E+01 0.69193528706E+01 0.71098453027E+01
 0.72547116696E+01 0.73453108019E+01 0.73760248329E+01 0.73449164311E+01 0.72539599473E+01
 0.71088041758E+01 0.69181104916E+01 0.66925841164E+01 0.64438599616E+01 0.61834119952E+01
 0.59216320696E+01 0.56671814290E+01 0.54266657163E+01 0.52046297812E+01 0.50038187923E+01
 0.48256145656E+01 0.46705375817E+01 0.45387093988E+01 0.44301953207E+01 0.43451865737E+01
 0.43938582870E+01 0.43452412034E+01 0.43208346055E+01 0.43208461961E+01 0.43452790993E+01
 0.43939316919E+01 0.44664960881E+01 0.45627120986E+01 0.46825041048E+01 0.48260214129E+01
 0.49935197648E+01 0.51850582718E+01 0.54000339263E+01 0.56366245963E+01 0.58912492802E+01
 0.61581706918E+01 0.64293541174E+01 0.66946598107E+01 0.69423926495E+01 0.71601733691E+01
 0.73360394699E+01 0.74596374329E+01 0.75233379930E+01 0.75231017653E+01 0.74589512302E+01
 0.73349669979E+01 0.71588092561E+01 0.69408480023E+01 0.66930468266E+01 0.64277727981E+01
 0.61566997668E+01 0.58899421249E+01 0.56355096739E+01 0.53991184428E+01 0.51843334540E+01
 0.49929663641E+01 0.48256145170E+01 0.46822168654E+01 0.45625183943E+01 0.44663723683E+01
 0.45264104795E+01 0.44664494700E+01 0.44303212032E+01 0.44182524511E+01 0.44303407780E+01
 0.44664960369E+01 0.45264984517E+01 0.46101476640E+01 0.47174343879E+01 0.48486457459E+01
 0.50043222499E+01 0.51850161236E+01 0.53908497397E+01 0.56209290959E+01 0.58727176607E+01
 0.61415065463E+01 0.64201170835E+01 0.66989395817E+01 0.69663559570E+01 0.72095285673E+01
 0.74154761466E+01 0.75723078534E+01 0.76704522665E+01 0.77037048282E+01 0.76699318878E+01
 0.75713163963E+01 0.74141041117E+01 0.72078933913E+01 0.69645848518E+01 0.66971530916E+01
 0.64184163297E+01 0.61399658005E+01 0.58713823901E+01 0.56198184152E+01 0.53899615776E+01
 0.51843333869E+01 0.50038186775E+01 0.48482907356E+01 0.47171966145E+01 0.46099976635E+01
 0.46809906844E+01 0.46101026372E+01 0.45626935536E+01 0.45389206665E+01 0.45389253585E+01
 0.45627119863E+01 0.46101476033E+01 0.46810826235E+01 0.47755374594E+01 0.48938637086E+01
 0.50367814000E+01 0.52052169462E+01 0.53999134794E+01 0.56208461232E+01 0.58665362795E+01
 0.61334049640E+01 0.64153201071E+01 0.67034691552E+01 0.69866322637E+01 0.72518597120E+01
 0.74854884039E+01 0.76743779850E+01 0.78072105599E+01 0.78756800039E+01 0.78754010906E+01
 0.78064006128E+01 0.76731129482E+01 0.74838811379E+01 0.72500428243E+01 0.69847397880E+01
 0.67016206863E+01 0.64136098960E+01 0.61318969149E+01 0.58652643054E+01 0.56198183260E+01
 0.53991182872E+01 0.52046295797E+01 0.50363696004E+01 0.48935922816E+01 0.47753716649E+01
 0.48567662049E+01 0.47755100916E+01 0.47174321167E+01 0.46825078104E+01 0.46708443275E+01
 0.46825039220E+01 0.47174342581E+01 0.47755373907E+01 0.48568456905E+01 0.49617204490E+01
 0.50909646433E+01 0.52457515874E+01 0.54273121628E+01 0.56363854397E+01 0.58725075406E+01
 0.61332742585E+01 0.64137449743E+01 0.67061452359E+01 0.69999736857E+01 0.72825424113E+01
 0.75399018708E+01 0.77580402895E+01 0.79242085907E+01 0.80282029501E+01 0.80634359769E+01
 0.80276474751E+01 0.79231507754E+01 0.77565777398E+01 0.75381613926E+01 0.72806616033E+01
 0.69980832442E+01 0.67043551360E+01 0.64121362915E+01 0.61318968015E+01 0.58713821879E+01
 0.56355094067E+01 0.54266654057E+01 0.52453029899E+01 0.50906772549E+01 0.49615556066E+01
 0.50525150086E+01 0.49617326744E+01 0.48938990384E+01 0.48486779522E+01 0.48260338575E+01
 0.48260211506E+01 0.48486455391E+01 0.48938635645E+01 0.49617203743E+01 0.50525596926E+01
 0.51671968410E+01 0.53069388963E+01 0.54733663680E+01 0.56678499654E+01 0.58908510078E+01
 0.61411272077E+01 0.64150154326E+01 0.67059703115E+01 0.70044957535E+01 0.72985283721E+01
 0.75742441226E+01 0.78171878979E+01 0.80135823684E+01 0.81819289697E+01 0.82583701097E+01
 0.82580969510E+01 0.81811369156E+01 0.80123628435E+01 0.78156403777E+01 0.75724984005E+01
 0.72967161291E+01 0.70027351008E+01 0.67043549992E+01 0.64136096457E+01 0.61399654617E+01
 0.58899417226E+01 0.56671809861E+01 0.54729109354E+01 0.53066611108E+01 0.51670562427E+01
 0.52662870678E+01 0.51672759235E+01 0.50910646494E+01 0.50368685247E+01 0.50043720531E+01
 0.49935194139E+01 0.50043219588E+01 0.50367811747E+01 0.50909644891E+01 0.51671967624E+01
 0.52662691708E+01 0.53895403583E+01 0.55388196348E+01 0.57159735510E+01 0.59222728389E+01
 0.61575789496E+01 0.64195358907E+01 0.67029602886E+01 0.69995963999E+01 0.72983288807E+01
 0.75858503893E+01 0.78476961295E+01 0.80973630565E+01 0.82798140246E+01 0.83955263580E+01
 0.84350475450E+01 0.83950384957E+01 0.82788872112E+01 0.80960865405E+01 0.78461980659E+01
 0.75842368296E+01 0.72967159736E+01 0.69980829510E+01 0.67016202786E+01 0.64184158329E+01
 0.61566992071E+01 0.59216314716E+01 0.57155512671E+01 0.55385847967E+01 0.53894535199E+01
 0.54950338247E+01 0.53897174902E+01 0.53071351066E+01 0.52459254989E+01 0.52053354609E+01
 0.51850578224E+01 0.51850157409E+01 0.52052166343E+01 0.52457513500E+01 0.53069387367E+01
 0.53895402783E+01 0.54949214873E+01 0.56250320778E+01 0.57821158832E+01 0.59681331230E+01
 0.61839646479E+01 0.64285478771E+01 0.66981416279E+01 0.69859111245E+01 0.72819617428E+01
 0.75738510192E+01 0.78475091366E+01 0.81187175526E+01 0.83310043628E+01 0.84829594601E+01
 0.85622233227E+01 0.85620161258E+01 0.84823589888E+01 0.83300703017E+01 0.81175381603E+01
 0.78461978995E+01 0.75724980772E+01 0.72806611400E+01 0.69847392075E+01 0.66971524199E+01
 0.64277720626E+01 0.61834112223E+01 0.59677925697E+01 0.57819639338E+01 0.56250335109E+01
 0.57342824963E+01 0.56253399083E+01 0.55391456063E+01 0.54736622139E+01 0.54275357005E+01
 0.54000333671E+01 0.53908492569E+01 0.53999130750E+01 0.54273118386E+01 0.54733661254E+01
 0.55388194741E+01 0.56250319984E+01 0.57340421832E+01 0.58683823164E+01 0.60305957014E+01
 0.62224909760E+01 0.64442583941E+01 0.66936386592E+01 0.69653516737E+01 0.72509479011E+01
 0.75391502551E+01 0.78166436157E+01 0.80970330960E+01 0.83308728829E+01 0.85129561111E+01
 0.86287687053E+01 0.86683697071E+01 0.86284611665E+01 0.85123722674E+01 0.83300701314E+01
 0.80960862000E+01 0.78156398831E+01 0.75381607538E+01 0.72500420634E+01 0.69645839952E+01
 0.66930459029E+01 0.64438589991E+01 0.62222859828E+01 0.60305705527E+01 0.58685091437E+01
 0.59779362399E+01 0.58688513702E+01 0.57826035415E+01 0.57164262049E+01 0.56682166318E+01
 0.56366239149E+01 0.56209285031E+01 0.56208456191E+01 0.56363850241E+01 0.56678496376E+01
 0.57159733094E+01 0.57821157257E+01 0.58683822397E+01 0.59775362329E+01 0.61126203563E+01
 0.62762856572E+01 0.64699220410E+01 0.66927637349E+01 0.69411823766E+01 0.72083585616E+01
 0.74844407942E+01 0.77571854931E+01 0.80129656538E+01 0.82794322110E+01 0.84827925448E+01
 0.86287403377E+01 0.87048699492E+01 0.87047735300E+01 0.86284610073E+01 0.84823586580E+01
 0.82788867069E+01 0.80123621840E+01 0.77565769301E+01 0.74838801990E+01 0.72078923494E+01
 0.69408468866E+01 0.66925829573E+01 0.64699062911E+01 0.62764309948E+01 0.61129086900E+01
 0.62182723416E+01 0.61132745780E+01 0.60312706219E+01 0.59687722954E+01 0.59228177623E+01
 0.58912484634E+01 0.58727169466E+01 0.58665356670E+01 0.58725070275E+01 0.58908505913E+01
 0.59222725155E+01 0.59681328885E+01 0.60305955508E+01 0.61126202840E+01 0.62176870880E+01
 0.63492156878E+01 0.65097384540E+01 0.66999752891E+01 0.69180172239E+01 0.71588280272E+01
 0.74142113114E+01 0.76732804240E+01 0.79233486700E+01 0.81813316523E+01 0.83952083135E+01
 0.85621408893E+01 0.86684355551E+01 0.87048698116E+01 0.86683694100E+01 0.85620156551E+01
 0.83950378473E+01 0.81811360959E+01 0.79231498103E+01 0.76731118448E+01 0.74141028951E+01
 0.71588079559E+01 0.69181091393E+01 0.67001952961E+01 0.65100922150E+01 0.63496959844E+01
 0.64461892248E+01 0.63500676881E+01 0.62771618502E+01 0.62233354517E+01 0.61847138666E+01
 0.61581697275E+01 0.61415056998E+01 0.61334042336E+01 0.61332736408E+01 0.61411266980E+01
 0.61575785423E+01 0.61839643367E+01 0.62224907540E+01 0.62762855171E+01 0.63492156218E+01
 0.64454039897E+01 0.65684658370E+01 0.67205826890E+01 0.69016055179E+01 0.71084037178E+01
 0.73346385488E+01 0.75710436176E+01 0.78061709602E+01 0.80274541538E+01 0.82579282586E+01
 0.84349179090E+01 0.85621407782E+01 0.86287400899E+01 0.86287682986E+01 0.85622227413E+01
 0.84350467822E+01 0.82580960100E+01 0.80276463805E+01 0.78063993697E+01 0.75713150279E+01
 0.73349655328E+01 0.71088026462E+01 0.69020929914E+01 0.67211709227E+01 0.65691577994E+01
 0.66517197598E+01 0.65695127057E+01 0.65108135794E+01 0.64709739717E+01 0.64452222112E+01
 0.64293529972E+01 0.64201160957E+01 0.64153192505E+01 0.64137442449E+01 0.64150148246E+01
 0.64195353967E+01 0.64285474889E+01 0.64442581028E+01 0.64699218373E+01 0.65097383282E+01
 0.65684657791E+01 0.66507347526E+01 0.67601460118E+01 0.68983218146E+01 0.70641249286E+01
 0.72532452674E+01 0.74582778150E+01 0.76692972354E+01 0.78748138049E+01 0.80629154108E+01
 0.82579281736E+01 0.83952081191E+01 0.84827922165E+01 0.85129556265E+01 0.84829588019E+01
 0.83955255166E+01 0.82583690847E+01 0.80634347876E+01 0.78753997426E+01 0.76699304016E+01
 0.74589496323E+01 0.72539582690E+01 0.70648900165E+01 0.68991530344E+01 0.67610539288E+01
 0.68247845976E+01 0.67613666955E+01 0.67218348357E+01 0.67012158120E+01 0.66939308618E+01
 0.66946585327E+01 0.66989384487E+01 0.67034681676E+01 0.67061443901E+01 0.67059696014E+01
 0.67029597058E+01 0.66981411626E+01 0.66936383006E+01 0.66927634718E+01 0.66999751097E+01
 0.67205825813E+01 0.67601459639E+01 0.68236176272E+01 0.69143678431E+01 0.70332987131E+01
 0.71782582272E+01 0.73439116054E+01 0.75221216878E+01 0.77027656130E+01 0.78748137409E+01
 0.80274540027E+01 0.81813314010E+01 0.82794318309E+01 0.83308723518E+01 0.83310036623E+01
 0.82798131423E+01 0.81819279015E+01 0.80282017068E+01 0.78756785932E+01 0.77037032670E+01
 0.75231000770E+01 0.73449146450E+01 0.71792852570E+01 0.70343600250E+01 0.69154774080E+01
 0.69561095282E+01 0.69157229531E+01 0.68997088999E+01 0.69029930295E+01 0.69193512964E+01
 0.69423912214E+01 0.69663546831E+01 0.69866311467E+01 0.69999727239E+01 0.70044949413E+01
 0.69995957288E+01 0.69859105838E+01 0.69653512512E+01 0.69411820591E+01 0.69180169978E+01
 0.69016053691E+01 0.68983217291E+01 0.69143678072E+01 0.69547963640E+01 0.70225450653E+01
 0.71176966634E+01 0.72371483538E+01 0.73747839148E+01 0.75221216455E+01 0.76692971308E+01
 0.78061707718E+01 0.79233483763E+01 0.80129652340E+01 0.80970325465E+01 0.81187168411E+01
 0.80973621687E+01 0.80135812929E+01 0.79242073361E+01 0.78072091321E+01 0.76704506782E+01
 0.75233362637E+01 0.73760229884E+01 0.72383953699E+01 0.71189527981E+01 0.70238226028E+01
 0.70381842528E+01 0.70239795699E+01 0.70347611363E+01 0.70655969899E+01 0.71098435970E+01
 0.71601718098E+01 0.72095271666E+01 0.72518584763E+01 0.72825413413E+01 0.72985274641E+01
 0.72983281269E+01 0.72819611323E+01 0.72509474209E+01 0.72083581971E+01 0.71588277629E+01
 0.71084035377E+01 0.70641248166E+01 0.70332986536E+01 0.70225450430E+01 0.70367762522E+01
 0.70783243979E+01 0.71464195101E+01 0.72371483301E+01 0.73439115407E+01 0.74582776908E+01
 0.75710434143E+01 0.76732801217E+01 0.77571850725E+01 0.78166430586E+01 0.78475084271E+01
 0.78476952550E+01 0.78171868499E+01 0.77580390642E+01 0.76743765847E+01 0.75723062863E+01
 0.74596357140E+01 0.73453089529E+01 0.72385509622E+01 0.71478153643E+01 0.70797190276E+01
 0.70661100069E+01 0.70797730409E+01 0.71191631589E+01 0.71797373480E+01 0.72547098689E+01
 0.73360378102E+01 0.74154746447E+01 0.74854870703E+01 0.75399007099E+01 0.75742431331E+01
 0.75858495651E+01 0.75738503502E+01 0.75391497281E+01 0.74844403937E+01 0.74142110204E+01
 0.73346383495E+01 0.72532451418E+01 0.71782581575E+01 0.71176966328E+01 0.70783243903E+01
 0.70646691395E+01 0.70783243903E+01 0.71176966328E+01 0.71782581575E+01 0.72532451418E+01
 0.73346383495E+01 0.74142110204E+01 0.74844403937E+01 0.75391497281E+01 0.75738503502E+01
 0.75858495651E+01 0.75742431331E+01 0.75399007099E+01 0.74854870703E+01 0.74154746447E+01
 0.73360378102E+01 0.72547098689E+01 0.71797373480E+01 0.71191631589E+01 0.70797730409E+01
 0.70381842528E+01 0.70797190276E+01 0.71478153643E+01 0.72385509622E+01 0.73453089529E+01
 0.74596357140E+01 0.75723062863E+01 0.76743765847E+01 0.77580390642E+01 0.78171868499E+01
 0.78476952550E+01 0.78475084271E+01 0.78166430586E+01 0.77571850725E+01 0.76732801217E+01
 0.75710434143E+01 0.74582776908E+01 0.73439115407E+01 0.72371483301E+01 0.71464195101E+01
 0.70783243979E+01 0.70367762522E+01 0.70225450430E+01 0.70332986536E+01 0.70641248166E+01
 0.71084035377E+01 0.71588277629E+01 0.72083581971E+01 0.72509474209E+01 0.72819611323E+01
 0.72983281269E+01 0.72985274641E+01 0.72825413413E+01 0.72518584763E+01 0.72095271666E+01
 0.71601718098E+01 0.71098435970E+01 0.70655969899E+01 0.70347611363E+01 0.70239795699E+01
 0.69561095282E+01 0.70238226028E+01 0.71189527981E+01 0.72383953699E+01 0.73760229884E+01
 0.75233362637E+01 0.76704506782E+01 0.78072091321E+01 0.79242073361E+01 0.80135812929E+01
 0.80973621687E+01 0.81187168411E+01 0.80970325465E+01 0.80129652340E+01 0.79233483763E+01
 0.78061707718E+01 0.76692971308E+01 0.75221216455E+01 0.73747839148E+01 0.72371483538E+01
 0.71176966634E+01 0.70225450653E+01 0.69547963640E+01 0.69143678072E+01 0.68983217291E+01
 0.69016053691E+01 0.69180169978E+01 0.69411820591E+01 0.69653512512E+01 0.69859105838E+01
 0.69995957288E+01 0.70044949413E+01 0.69999727239E+01 0.69866311467E+01 0.69663546831E+01
 0.69423912214E+01 0.69193512964E+01 0.69029930295E+01 0.68997088999E+01 0.69157229531E+01
 0.68247845976E+01 0.69154774080E+01 0.70343600250E+01 0.71792852570E+01 0.73449146450E+01
 0.75231000770E+01 0.77037032670E+01 0.78756785932E+01 0.80282017068E+01 0.81819279015E+01
 0.82798131423E+01 0.83310036623E+01 0.83308723518E+01 0.82794318309E+01 0.81813314010E+01
 0.80274540027E+01 0.78748137409E+01 0.77027656130E+01 0.75221216878E+01 0.73439116054E+01
 0.71782582272E+01 0.70332987131E+01 0.69143678431E+01 0.68236176272E+01 0.67601459639E+01
 0.67205825813E+01 0.66999751097E+01 0.66927634718E+01 0.66936383006E+01 0.66981411626E+01
 0.67029597058E+01 0.67059696014E+01 0.67061443901E+01 0.67034681676E+01 0.66989384487E+01
 0.66946585327E+01 0.66939308618E+01 0.67012158120E+01 0.67218348357E+01 0.67613666955E+01
 0.66517197598E+01 0.67610539288E+01 0.68991530344E+01 0.70648900165E+01 0.72539582690E+01
 0.74589496323E+01 0.76699304016E+01 0.78753997426E+01 0.80634347876E+01 0.82583690847E+01
 0.83955255166E+01 0.84829588019E+01 0.85129556265E+01 0.84827922165E+01 0.83952081191E+01
 0.82579281736E+01 0.80629154108E+01 0.78748138049E+01 0.76692972354E+01 0.74582778150E+01
 0.72532452674E+01 0.70641249286E+01 0.68983218146E+01 0.67601460118E+01 0.66507347526E+01
 0.65684657791E+01 0.65097383282E+01 0.64699218373E+01 0.64442581028E+01 0.64285474889E+01
 0.64195353967E+01 0.64150148246E+01 0.64137442449E+01 0.64153192505E+01 0.64201160957E+01
 0.64293529972E+01 0.64452222112E+01 0.64709739717E+01 0.65108135794E+01 0.65695127057E+01
 0.64461892248E+01 0.65691577994E+01 0.67211709227E+01 0.69020929914E+01 0.71088026462E+01
 0.73349655328E+01 0.75713150279E+01 0.78063993697E+01 0.80276463805E+01 0.82580960100E+01
 0.84350467822E+01 0.85622227413E+01 0.86287682986E+01 0.86287400899E+01 0.85621407782E+01
 0.84349179090E+01 0.82579282586E+01 0.80274541538E+01 0.78061709602E+01 0.75710436176E+01
 0.73346385488E+01 0.71084037178E+01 0.69016055179E+01 0.67205826890E+01 0.65684658370E+01
 0.64454039897E+01 0.63492156218E+01 0.62762855171E+01 0.62224907540E+01 0.61839643367E+01
 0.61575785423E+01 0.61411266980E+01 0.61332736408E+01 0.61334042336E+01 0.61415056998E+01
 0.61581697275E+01 0.61847138666E+01 0.62233354517E+01 0.62771618502E+01 0.63500676881E+01
 0.62182723416E+01 0.63496959844E+01 0.65100922150E+01 0.67001952961E+01 0.69181091393E+01
 0.71588079559E+01 0.74141028951E+01 0.76731118448E+01 0.79231498103E+01 0.81811360959E+01
 0.83950378473E+01 0.85620156551E+01 0.86683694100E+01 0.87048698116E+01 0.86684355551E+01
 0.85621408893E+01 0.83952083135E+01 0.81813316523E+01 0.79233486700E+01 0.76732804240E+01
 0.74142113114E+01 0.71588280272E+01 0.69180172239E+01 0.66999752891E+01 0.65097384540E+01
 0.63492156878E+01 0.62176870880E+01 0.61126202840E+01 0.60305955508E+01 0.59681328885E+01
 0.59222725155E+01 0.58908505913E+01 0.58725070275E+01 0.58665356670E+01 0.58727169466E+01
 0.58912484634E+01 0.59228177623E+01 0.59687722954E+01 0.60312706219E+01 0.61132745780E+01
 0.59779362399E+01 0.61129086900E+01 0.62764309948E+01 0.64699062911E+01 0.66925829573E+01
 0.69408468866E+01 0.72078923494E+01 0.74838801990E+01 0.77565769301E+01 0.80123621840E+01
 0.82788867069E+01 0.84823586580E+01 0.86284610073E+01 0.87047735300E+01 0.87048699492E+01
 0.86287403377E+01 0.84827925448E+01 0.82794322110E+01 0.80129656538E+01 0.77571854931E+01
 0.74844407942E+01 0.72083585616E+01 0.69411823766E+01 0.66927637349E+01 0.64699220410E+01
 0.62762856572E+01 0.61126203563E+01 0.59775362329E+01 0.58683822397E+01 0.57821157257E+01
 0.57159733094E+01 0.56678496376E+01 0.56363850241E+01 0.56208456191E+01 0.56209285031E+01
 0.56366239149E+01 0.56682166318E+01 0.57164262049E+01 0.57826035415E+01 0.58688513702E+01
 0.57342824963E+01 0.58685091437E+01 0.60305705527E+01 0.62222859828E+01 0.64438589991E+01
 0.66930459029E+01 0.69645839952E+01 0.72500420634E+01 0.75381607538E+01 0.78156398831E+01
 0.80960862000E+01 0.83300701314E+01 0.85123722674E+01 0.86284611665E+01 0.86683697071E+01
 0.86287687053E+01 0.85129561111E+01 0.83308728829E+01 0.80970330960E+01 0.78166436157E+01
 0.75391502551E+01 0.72509479011E+01 0.69653516737E+01 0.66936386592E+01 0.64442583941E+01
 0.62224909760E+01 0.60305957014E+01 0.58683823164E+01 0.57340421832E+01 0.56250319984E+01
 0.55388194741E+01 0.54733661254E+01 0.54273118386E+01 0.53999130750E+01 0.53908492569E+01
 0.54000333671E+01 0.54275357005E+01 0.54736622139E+01 0.55391456063E+01 0.56253399083E+01
 0.54950338247E+01 0.56250335109E+01 0.57819639338E+01 0.59677925697E+01 0.61834112223E+01
 0.64277720626E+01 0.66971524199E+01 0.69847392075E+01 0.72806611400E+01 0.75724980772E+01
 0.78461978995E+01 0.81175381603E+01 0.83300703017E+01 0.84823589888E+01 0.85620161258E+01
 0.85622233227E+01 0.84829594601E+01 0.83310043628E+01 0.81187175526E+01 0.78475091366E+01
 0.75738510192E+01 0.72819617428E+01 0.69859111245E+01 0.66981416279E+01 0.64285478771E+01
 0.61839646479E+01 0.59681331230E+01 0.57821158832E+01 0.56250320778E+01 0.54949214873E+01
 0.53895402783E+01 0.53069387367E+01 0.52457513500E+01 0.52052166343E+01 0.51850157409E+01
 0.51850578224E+01 0.52053354609E+01 0.52459254989E+01 0.53071351066E+01 0.53897174902E+01
 0.52662870678E+01 0.53894535199E+01 0.55385847967E+01 0.57155512671E+01 0.59216314716E+01
 0.61566992071E+01 0.64184158329E+01 0.67016202786E+01 0.69980829510E+01 0.72967159736E+01
 0.75842368296E+01 0.78461980659E+01 0.80960865405E+01 0.82788872112E+01 0.83950384957E+01
 0.84350475450E+01 0.83955263580E+01 0.82798140246E+01 0.80973630565E+01 0.78476961295E+01
 0.75858503893E+01 0.72983288807E+01 0.69995963999E+01 0.67029602886E+01 0.64195358907E+01
 0.61575789496E+01 0.59222728389E+01 0.57159735510E+01 0.55388196348E+01 0.53895403583E+01
 0.52662691708E+01 0.51671967624E+01 0.50909644891E+01 0.50367811747E+01 0.50043219588E+01
 0.49935194139E+01 0.50043720531E+01 0.50368685247E+01 0.50910646494E+01 0.51672759235E+01
 0.50525150086E+01 0.51670562427E+01 0.53066611108E+01 0.54729109354E+01 0.56671809861E+01
 0.58899417226E+01 0.61399654617E+01 0.64136096457E+01 0.67043549992E+01 0.70027351008E+01
 0.72967161291E+01 0.75724984005E+01 0.78156403777E+01 0.80123628435E+01 0.81811369156E+01
 0.82580969510E+01 0.82583701097E+01 0.81819289697E+01 0.80135823684E+01 0.78171878979E+01
 0.75742441226E+01 0.72985283721E+01 0.70044957535E+01 0.67059703115E+01 0.64150154326E+01
 0.61411272077E+01 0.58908510078E+01 0.56678499654E+01 0.54733663680E+01 0.53069388963E+01
 0.51671968410E+01 0.50525596926E+01 0.49617203743E+01 0.48938635645E+01 0.48486455391E+01
 0.48260211506E+01 0.48260338575E+01 0.48486779522E+01 0.48938990384E+01 0.49617326744E+01
 0.48567662049E+01 0.49615556066E+01 0.50906772549E+01 0.52453029899E+01 0.54266654057E+01
 0.56355094067E+01 0.58713821879E+01 0.61318968015E+01 0.64121362915E+01 0.67043551360E+01
 0.69980832442E+01 0.72806616033E+01 0.75381613926E+01 0.77565777398E+01 0.79231507754E+01
 0.80276474751E+01 0.80634359769E+01 0.80282029501E+01 0.79242085907E+01 0.77580402895E+01
 0.75399018708E+01 0.72825424113E+01 0.69999736857E+01 0.67061452359E+01 0.64137449743E+01
 0.61332742585E+01 0.58725075406E+01 0.56363854397E+01 0.54273121628E+01 0.52457515874E+01
 0.50909646433E+01 0.49617204490E+01 0.48568456905E+01 0.47755373907E+01 0.47174342581E+01
 0.46825039220E+01 0.46708443275E+01 0.46825078104E+01 0.47174321167E+01 0.47755100916E+01
 0.46809906844E+01 0.47753716649E+01 0.48935922816E+01 0.50363696004E+01 0.52046295797E+01
 0.53991182872E+01 0.56198183260E+01 0.58652643054E+01 0.61318969149E+01 0.64136098960E+01
 0.67016206863E+01 0.69847397880E+01 0.72500428243E+01 0.74838811379E+01 0.76731129482E+01
 0.78064006128E+01 0.78754010906E+01 0.78756800039E+01 0.78072105599E+01 0.76743779850E+01
 0.74854884039E+01 0.72518597120E+01 0.69866322637E+01 0.67034691552E+01 0.64153201071E+01
 0.61334049640E+01 0.58665362795E+01 0.56208461232E+01 0.53999134794E+01 0.52052169462E+01
 0.50367814000E+01 0.48938637086E+01 0.47755374594E+01 0.46810826235E+01 0.46101476033E+01
 0.45627119863E+01 0.45389253585E+01 0.45389206665E+01 0.45626935536E+01 0.46101026372E+01
 0.45264104795E+01 0.46099976635E+01 0.47171966145E+01 0.48482907356E+01 0.50038186775E+01
 0.51843333869E+01 0.53899615776E+01 0.56198184152E+01 0.58713823901E+01 0.61399658005E+01
 0.64184163297E+01 0.66971530916E+01 0.69645848518E+01 0.72078933913E+01 0.74141041117E+01
 0.75713163963E+01 0.76699318878E+01 0.77037048282E+01 0.76704522665E+01 0.75723078534E+01
 0.74154761466E+01 0.72095285673E+01 0.69663559570E+01 0.66989395817E+01 0.64201170835E+01
 0.61415065463E+01 0.58727176607E+01 0.56209290959E+01 0.53908497397E+01 0.51850161236E+01
 0.50043222499E+01 0.48486457459E+01 0.47174343879E+01 0.46101476640E+01 0.45264984517E+01
 0.44664960369E+01 0.44303407780E+01 0.44182524511E+01 0.44303212032E+01 0.44664494700E+01
 0.43938582870E+01 0.44663723683E+01 0.45625183943E+01 0.46822168654E+01 0.48256145170E+01
 0.49929663641E+01 0.51843334540E+01 0.53991184428E+01 0.56355096739E+01 0.58899421249E+01
 0.61566997668E+01 0.64277727981E+01 0.66930468266E+01 0.69408480023E+01 0.71588092561E+01
 0.73349669979E+01 0.74589512302E+01 0.75231017653E+01 0.75233379930E+01 0.74596374329E+01
 0.73360394699E+01 0.71601733691E+01 0.69423926495E+01 0.66946598107E+01 0.64293541174E+01
 0.61581706918E+01 0.58912492802E+01 0.56366245963E+01 0.54000339263E+01 0.51850582718E+01
 0.49935197648E+01 0.48260214129E+01 0.46825041048E+01 0.45627120986E+01 0.44664960881E+01
 0.43939316919E+01 0.43452790993E+01 0.43208461961E+01 0.43208346055E+01 0.43452412034E+01
 0.42840253095E+01 0.43451865737E+01 0.44301953207E+01 0.45387093988E+01 0.46705375817E+01
 0.48256145656E+01 0.50038187923E+01 0.52046297812E+01 0.54266657163E+01 0.56671814290E+01
 0.59216320696E+01 0.61834119952E+01 0.64438599616E+01 0.66925841164E+01 0.69181104916E+01
 0.71088041758E+01 0.72539599473E+01 0.73449164311E+01 0.73760248329E+01 0.73453108019E+01
 0.72547116696E+01 0.71098453027E+01 0.69193528706E+01 0.66939322802E+01 0.64452234617E+01
 0.61847149479E+01 0.59228186814E+01 0.56682174008E+01 0.54275363338E+01 0.52053359732E+01
 0.50043724583E+01 0.48260341680E+01 0.46708445547E+01 0.45389255132E+01 0.44303408706E+01
 0.43452791404E+01 0.42840788765E+01 0.42471385598E+01 0.42347770246E+01 0.42471142703E+01
 0.41975884121E+01 0.42470772739E+01 0.43207477103E+01 0.44181047919E+01 0.45387094325E+01
 0.46822169469E+01 0.48482908817E+01 0.50363698304E+01 0.52453033254E+01 0.54729113991E+01
 0.57155518817E+01 0.59677933560E+01 0.62222869577E+01 0.64699074646E+01 0.67001966690E+01
 0.69020945524E+01 0.70648917411E+01 0.71792871077E+01 0.72383972985E+01 0.72385529137E+01
 0.71797392665E+01 0.70655988237E+01 0.69029947362E+01 0.67012173614E+01 0.64709753463E+01
 0.62233366463E+01 0.59687733142E+01 0.57164270593E+01 0.54736629187E+01 0.52459260704E+01
 0.50368689791E+01 0.48486783044E+01 0.46825080743E+01 0.45389208548E+01 0.44182525757E+01
 0.43208462685E+01 0.42471385908E+01 0.41976214780E+01 0.41727300191E+01 0.41727196274E+01
 0.41352207830E+01 0.41726962450E+01 0.42347202253E+01 0.43207477324E+01 0.44301953760E+01
 0.45625184962E+01 0.47171967787E+01 0.48935925263E+01 0.50906776005E+01 0.53066615791E+01
 0.55385854100E+01 0.57819647134E+01 0.60305715170E+01 0.62764321566E+01 0.65100935790E+01
 0.67211724826E+01 0.68991547707E+01 0.70343619046E+01 0.71189547757E+01 0.71478173857E+01
 0.71191651662E+01 0.70347630739E+01 0.68997107198E+01 0.67218365013E+01 0.65108150675E+01
 0.62771631505E+01 0.60312717353E+01 0.57826044772E+01 0.55391463789E+01 0.53071357334E+01
 0.50910651482E+01 0.48938994265E+01 0.47174324102E+01 0.45626937674E+01 0.44303213510E+01
 0.43208346998E+01 0.42347770772E+01 0.41727300404E+01 0.41352364241E+01 0.41226862020E+01
 0.40975198684E+01 0.41226734203E+01 0.41726962575E+01 0.42470773083E+01 0.43451866406E+01
 0.44663724804E+01 0.46099978354E+01 0.47753719135E+01 0.49615559508E+01 0.51670567030E+01
 0.53894541178E+01 0.56250342675E+01 0.58685100784E+01 0.61129098178E+01 0.63496973136E+01
 0.65691593284E+01 0.67610556435E+01 0.69154792808E+01 0.70238245927E+01 0.70797210829E+01
 0.70797751035E+01 0.70239815816E+01 0.69157248611E+01 0.67613684572E+01 0.65695142916E+01
 0.63500690825E+01 0.61132757773E+01 0.58688523809E+01 0.56253407437E+01 0.53897181675E+01
 0.51672764617E+01 0.49617330928E+01 0.47755104084E+01 0.46101028695E+01 0.44664496331E+01
 0.43452413114E+01 0.42471143356E+01 0.41727196612E+01 0.41226862144E+01 0.40975239219E+01
 0.40987903355E+01 0.41114432215E+01 0.41492644767E+01 0.42118562797E+01 0.42986632285E+01
 0.44090853241E+01 0.45425532950E+01 0.46985119073E+01 0.48762759743E+01 0.50747562713E+01
 0.52920894606E+01 0.55252375109E+01 0.57696408722E+01 0.60190127906E+01 0.62653497262E+01
 0.64992065819E+01 0.67102478440E+01 0.68880400929E+01 0.70230027481E+01 0.71073906633E+01
 0.71361560504E+01 0.71075404818E+01 0.70232868002E+01 0.68884299966E+01 0.67107072876E+01
 0.64996970865E+01 0.62658360126E+01 0.60194667245E+01 0.57700434668E+01 0.55255790190E+01