unknown system                          
   1.00000000000000     
     2.500784    0.000000    0.000000
    -1.250392    2.165742    0.000000
     0.000000    0.000000    4.033331
   Co
     2
Direct
  0.666667  0.333333  0.750000
  0.333333  0.666667  0.250000
 
   40   40   60
 0.43178590262E-02 0.45223053487E-02 0.51604122698E-02 0.63035092988E-02 0.80720581373E-02
 0.10633141705E-01 0.14197446917E-01 0.19009691544E-01 0.25329814217E-01 0.33408374795E-01
 0.43440571649E-01 0.55513341936E-01 0.69557739831E-01 0.85280098626E-01 0.10211434345E+00
 0.11924577156E+00 0.13563869959E+00 0.15011456474E+00 0.16149724141E+00 0.16878000304E+00
 0.17128709123E+00 0.16878000304E+00 0.16149724141E+00 0.15011456474E+00 0.13563869959E+00
 0.11924577156E+00 0.10211434345E+00 0.85280098626E-01 0.69557739831E-01 0.55513341936E-01
 0.43440571649E-01 0.33408374795E-01 0.25329814217E-01 0.19009691544E-01 0.14197446918E-01
 0.10633141705E-01 0.80720581373E-02 0.63035092988E-02 0.51604122698E-02 0.45223053487E-02
 0.45223054474E-02 0.45223505992E-02 0.49440957720E-02 0.58367458533E-02 0.73002679162E-02
 0.94830764368E-02 0.12583174005E-01 0.16837875489E-01 0.22516861436E-01 0.29888835415E-01
 0.39199234991E-01 0.50607667178E-01 0.64140497793E-01 0.79617289701E-01 0.96603679817E-01
 0.11439681053E+00 0.13201171725E+00 0.14826238289E+00 0.16189319980E+00 0.17174530461E+00
 0.17691781812E+00 0.17691768371E+00 0.17174503256E+00 0.16189340218E+00 0.14826193529E+00
 0.13201268256E+00 0.11439814008E+00 0.96602888645E-01 0.79616000735E-01 0.64142708012E-01
 0.50607160690E-01 0.39199069732E-01 0.29889980633E-01 0.22515895202E-01 0.16838433782E-01
 0.12582887240E-01 0.94832800097E-02 0.73000818373E-02 0.58368212341E-02 0.49439995547E-02
 0.51604126460E-02 0.49440960896E-02 0.51602267802E-02 0.58367743184E-02 0.70547015143E-02
 0.89522753760E-02 0.11720896951E-01 0.15606078674E-01 0.20892650642E-01 0.27894311128E-01
 0.36912608102E-01 0.48195328788E-01 0.61882462252E-01 0.77904931465E-01 0.95963240176E-01
 0.11544023288E+00 0.13536913541E+00 0.15451679963E+00 0.17148794831E+00 0.18487521261E+00
 0.19346169001E+00 0.19642196938E+00 0.19346237288E+00 0.18487576821E+00 0.17148891591E+00
 0.15451711787E+00 0.13536762921E+00 0.11544034564E+00 0.95966709075E-01 0.77904282418E-01
 0.61881264555E-01 0.48197163789E-01 0.36911302912E-01 0.27894985974E-01 0.20893006513E-01
 0.15606153934E-01 0.11721011021E-01 0.89524067659E-02 0.70548715489E-02 0.58368214743E-02
 0.63035100902E-02 0.58367467034E-02 0.58367749286E-02 0.63037388962E-02 0.73000914762E-02
 0.89526039518E-02 0.11451859247E-01 0.15053978842E-01 0.20073360699E-01 0.26869868434E-01
 0.35820258810E-01 0.47280379668E-01 0.61508923350E-01 0.78592850646E-01 0.98382694916E-01
 0.12034422829E+00 0.14355737207E+00 0.16674623199E+00 0.18832221835E+00 0.20654941388E+00
 0.21978799472E+00 0.22675839724E+00 0.22675800943E+00 0.21978789131E+00 0.20654885388E+00
 0.18832287856E+00 0.16674814285E+00 0.14355971460E+00 0.12034267286E+00 0.98382375212E-01
 0.78595056324E-01 0.61508769450E-01 0.47281468807E-01 0.35820626102E-01 0.26870027378E-01
 0.20073149860E-01 0.15054124525E-01 0.11451895688E-01 0.89524069750E-02 0.73000823686E-02
 0.80720593908E-02 0.73002694730E-02 0.70547030304E-02 0.73000925005E-02 0.80717833731E-02
 0.94829882958E-02 0.11720691840E-01 0.15054030925E-01 0.19824213000E-01 0.26448461958E-01
 0.35382054295E-01 0.47098307191E-01 0.62002414146E-01 0.80362114993E-01 0.10220500406E+00
 0.12714137954E+00 0.15436188834E+00 0.18256591778E+00 0.20996411931E+00 0.23444859163E+00
 0.25387659035E+00 0.26638607668E+00 0.27070699414E+00 0.26638683752E+00 0.25387816737E+00
 0.23444988957E+00 0.20996386576E+00 0.18256558997E+00 0.15436348413E+00 0.12714353005E+00
 0.10220484230E+00 0.80363567921E-01 0.62001758940E-01 0.47098811651E-01 0.35382224226E-01
 0.26448800846E-01 0.19824794413E-01 0.15054124384E-01 0.11721011225E-01 0.94832807554E-02
 0.10633143340E-01 0.94830787976E-02 0.89522780638E-02 0.89526064319E-02 0.94829899098E-02
 0.10633697478E-01 0.12582834019E-01 0.15606267149E-01 0.20073136795E-01 0.26448684034E-01
 0.35271766137E-01 0.47136935728E-01 0.62605558547E-01 0.82157538802E-01 0.10603206075E+00
 0.13405422694E+00 0.16560332525E+00 0.19941920757E+00 0.23356701208E+00 0.26560024232E+00
 0.29283641839E+00 0.31271740656E+00 0.32321921598E+00 0.32321907907E+00 0.31271714047E+00
 0.29283661241E+00 0.26560184969E+00 0.23356944775E+00 0.19942019303E+00 0.16560375753E+00
 0.13405626014E+00 0.10603205344E+00 0.82158638413E-01 0.62606966695E-01 0.47137416190E-01
 0.35272345158E-01 0.26448799850E-01 0.20073148925E-01 0.15606153674E-01 0.12582887930E-01
 0.14197448659E-01 0.12583177129E-01 0.11720900998E-01 0.11451863586E-01 0.11720695682E-01
 0.12582836454E-01 0.14196706807E-01 0.16838335092E-01 0.20892086972E-01 0.26869991761E-01
 0.35381677068E-01 0.47137070640E-01 0.62860092160E-01 0.83244674422E-01 0.10878212204E+00
 0.13958295823E+00 0.17529048314E+00 0.21479088190E+00 0.25612733982E+00 0.29661458947E+00
 0.33307544321E+00 0.36219608472E+00 0.38103499541E+00 0.38755747629E+00 0.38103635129E+00
 0.36219738834E+00 0.33307658479E+00 0.29661558252E+00 0.25612874675E+00 0.21479308580E+00
 0.17529109544E+00 0.13958436864E+00 0.10878360079E+00 0.83245512988E-01 0.62860153147E-01
 0.47137413631E-01 0.35382220940E-01 0.26870024618E-01 0.20893005022E-01 0.16838433903E-01
 0.19009692859E-01 0.16837879137E-01 0.15606084128E-01 0.15053985366E-01 0.15054037590E-01
 0.15606272860E-01 0.16838338617E-01 0.19009912914E-01 0.22516155533E-01 0.27894784498E-01
 0.35819785974E-01 0.47098407544E-01 0.62605329153E-01 0.83244597892E-01 0.10977848783E+00
 0.14263600604E+00 0.18180872257E+00 0.22645522495E+00 0.27475498180E+00 0.32396050566E+00
 0.37052243151E+00 0.41040697251E+00 0.43967823897E+00 0.45518801948E+00 0.45518757703E+00
 0.43967881781E+00 0.41040874804E+00 0.37052415739E+00 0.32396217283E+00 0.27475692372E+00
 0.22645747458E+00 0.18181048872E+00 0.14263785821E+00 0.10977898166E+00 0.83245507963E-01
 0.62606959452E-01 0.47098804285E-01 0.35820620058E-01 0.27894982109E-01 0.22515893915E-01
 0.25329814237E-01 0.22516865080E-01 0.20892657321E-01 0.20073369568E-01 0.19824222981E-01
 0.20073146602E-01 0.20892095144E-01 0.22516160463E-01 0.25328812486E-01 0.29889513930E-01
 0.36911190958E-01 0.47281168306E-01 0.62001328044E-01 0.82157902682E-01 0.10878153895E+00
 0.14263635945E+00 0.18410416334E+00 0.23273803150E+00 0.28702570950E+00 0.34436164683E+00
 0.40103574559E+00 0.45245472888E+00 0.49372844956E+00 0.52050610794E+00 0.52978889621E+00
 0.52050721856E+00 0.49372927084E+00 0.45245652034E+00 0.40103849914E+00 0.34436419093E+00
 0.28702709279E+00 0.23274050876E+00 0.18410523258E+00 0.14263784981E+00 0.10878358773E+00
 0.82158623831E-01 0.62001745225E-01 0.47281457558E-01 0.36911295113E-01 0.29889976727E-01
 0.33408372255E-01 0.29888838168E-01 0.27894318533E-01 0.26869879549E-01 0.26448475558E-01
 0.26448698626E-01 0.26870005636E-01 0.27894795764E-01 0.29889520595E-01 0.33408573211E-01
 0.39198238001E-01 0.48195978691E-01 0.61507517670E-01 0.80362798185E-01 0.10603098815E+00
 0.13958297305E+00 0.18180806320E+00 0.23273802008E+00 0.29130710980E+00 0.35526310539E+00
 0.42100474497E+00 0.48364065380E+00 0.53752043839E+00 0.57710299954E+00 0.59811288214E+00
 0.59811334022E+00 0.57710482756E+00 0.53752249178E+00 0.48364257853E+00 0.42100687731E+00
 0.35526632747E+00 0.29130961333E+00 0.23274049643E+00 0.18181046825E+00 0.13958434422E+00
 0.10603202851E+00 0.80363545162E-01 0.61508750688E-01 0.48197150079E-01 0.39199061585E-01
 0.43440564874E-01 0.39199235516E-01 0.36912615294E-01 0.35820271658E-01 0.35382071472E-01
 0.35271785940E-01 0.35381697532E-01 0.35819804869E-01 0.36911205950E-01 0.39198246666E-01
 0.43439978532E-01 0.50607685818E-01 0.61881124525E-01 0.78593461180E-01 0.10220311278E+00
 0.13405500208E+00 0.17528899413E+00 0.22645535410E+00 0.28702477407E+00 0.35526329361E+00
 0.42795309649E+00 0.50025587183E+00 0.56604789769E+00 0.61897592444E+00 0.65345258930E+00
 0.66543139345E+00 0.65345281963E+00 0.61897732119E+00 0.56605080817E+00 0.50025891286E+00
 0.42795582458E+00 0.35526631168E+00 0.28702706472E+00 0.22645743872E+00 0.17529105637E+00
 0.13405622184E+00 0.10220480768E+00 0.78595027451E-01 0.61881242642E-01 0.50607146292E-01
 0.55513328835E-01 0.50607663682E-01 0.48195334315E-01 0.47280393241E-01 0.47098327408E-01
 0.47136960747E-01 0.47137098220E-01 0.47098435123E-01 0.47281193127E-01 0.48195997932E-01
 0.50607696725E-01 0.55511870769E-01 0.64140406139E-01 0.77904223331E-01 0.98381846117E-01
 0.12714115705E+00 0.16560177529E+00 0.21479081547E+00 0.27475370748E+00 0.34436105403E+00
 0.42100387255E+00 0.50025535455E+00 0.57595702349E+00 0.64129424719E+00 0.68960173485E+00
 0.71531158472E+00 0.71531235115E+00 0.68960391361E+00 0.64129635251E+00 0.57595973649E+00
 0.50025889570E+00 0.42100684402E+00 0.34436414512E+00 0.27475687023E+00 0.21479302963E+00
 0.16560370320E+00 0.12714348099E+00 0.98382333667E-01 0.77904249858E-01 0.64142685087E-01
 0.69557718065E-01 0.64140488043E-01 0.61882464071E-01 0.61508935927E-01 0.62002436133E-01
 0.62605588072E-01 0.62860126759E-01 0.62605365922E-01 0.62001363749E-01 0.61507549008E-01
 0.61881148250E-01 0.64140419311E-01 0.69558831007E-01 0.79614712746E-01 0.95963782389E-01
 0.12034224961E+00 0.15436170743E+00 0.19941751117E+00 0.25612646452E+00 0.32395879174E+00
 0.40103526169E+00 0.48363886878E+00 0.56604789500E+00 0.64129354788E+00 0.70217647211E+00
 0.74188492526E+00 0.75563254980E+00 0.74188612425E+00 0.70217826748E+00 0.64129633778E+00
 0.56605077573E+00 0.48364252883E+00 0.40103843591E+00 0.32396210134E+00 0.25612867258E+00
 0.19942012119E+00 0.15436341874E+00 0.12034261657E+00 0.95966663557E-01 0.79615966944E-01
 0.85280065820E-01 0.79617271116E-01 0.77904927017E-01 0.78592859825E-01 0.80362136734E-01
 0.82157571318E-01 0.83244715177E-01 0.83244643670E-01 0.82157949779E-01 0.80362842684E-01
 0.78593499237E-01 0.77904251448E-01 0.79614727952E-01 0.85278724998E-01 0.96603603713E-01
 0.11543821021E+00 0.14355703603E+00 0.18256409945E+00 0.23356604344E+00 0.29661295994E+00
 0.37052080197E+00 0.45245271274E+00 0.53751925282E+00 0.61897355115E+00 0.68960078570E+00
 0.74188479105E+00 0.76959333436E+00 0.76959327793E+00 0.74188611611E+00 0.68960389011E+00
 0.61897727861E+00 0.53752243013E+00 0.45245644305E+00 0.37052407016E+00 0.29661549157E+00
 0.23356935874E+00 0.18256550764E+00 0.14355964237E+00 0.11544028548E+00 0.96602841858E-01
 0.10211429751E+00 0.96603649806E-01 0.95963226534E-01 0.98382697622E-01 0.10220502253E+00
 0.10603209354E+00 0.10878216677E+00 0.10977854115E+00 0.10878159674E+00 0.10603104586E+00
 0.10220316587E+00 0.98381890364E-01 0.95963814261E-01 0.96603620489E-01 0.10211140531E+00
 0.11439687528E+00 0.13536694781E+00 0.16674530889E+00 0.20996200817E+00 0.26559865891E+00
 0.33307296514E+00 0.41040539964E+00 0.49372564181E+00 0.57710142318E+00 0.65345085376E+00
 0.71531033746E+00 0.75563045549E+00 0.76959333539E+00 0.75563254254E+00 0.71531232759E+00
 0.65345277513E+00 0.57710476154E+00 0.49372918600E+00 0.41040865025E+00 0.33307648086E+00
 0.26560174605E+00 0.20996376783E+00 0.16674805485E+00 0.13536755375E+00 0.11439807881E+00
 0.11924571105E+00 0.11439676680E+00 0.11544020699E+00 0.12034422095E+00 0.12714139089E+00
 0.13405425625E+00 0.13958300356E+00 0.14263606416E+00 0.14263642597E+00 0.13958304280E+00
 0.13405506968E+00 0.12714121746E+00 0.12034229855E+00 0.11543824448E+00 0.11439689282E+00
 0.11924460322E+00 0.13200969070E+00 0.15451606319E+00 0.18831979424E+00 0.23444740650E+00
 0.29283392883E+00 0.36219387174E+00 0.43967551609E+00 0.52050338217E+00 0.59810994664E+00
 0.66542833317E+00 0.71531034706E+00 0.74188480207E+00 0.74188492814E+00 0.71531157077E+00
 0.66543135682E+00 0.59811327916E+00 0.52050713502E+00 0.43967871720E+00 0.36219727778E+00
 0.29283649900E+00 0.23444977945E+00 0.18832277673E+00 0.15451702782E+00 0.13201260642E+00
 0.13563862414E+00 0.13201165826E+00 0.13536909460E+00 0.14355735107E+00 0.15436188828E+00
 0.16560334642E+00 0.17529052442E+00 0.18180878123E+00 0.18410423502E+00 0.18180814233E+00
 0.17528907447E+00 0.16560185078E+00 0.15436177276E+00 0.14355708725E+00 0.13536698246E+00
 0.13200970784E+00 0.13563860007E+00 0.14825909623E+00 0.17148730809E+00 0.20654644215E+00
 0.25387479138E+00 0.31271432753E+00 0.38103264690E+00 0.45518450191E+00 0.52978637848E+00
 0.59810996133E+00 0.65345087876E+00 0.68960081326E+00 0.70217649264E+00 0.68960173892E+00
 0.65345256980E+00 0.59811283577E+00 0.52978882369E+00 0.45518748283E+00 0.38103624228E+00
 0.31271702410E+00 0.25387805041E+00 0.20654874206E+00 0.17148881357E+00 0.14826184529E+00
 0.15011447539E+00 0.14826230826E+00 0.15451674214E+00 0.16674619420E+00 0.18256590199E+00
 0.19941921533E+00 0.21479091332E+00 0.22645527823E+00 0.23273810277E+00 0.23273810370E+00
 0.22645544324E+00 0.21479090305E+00 0.19941759077E+00 0.18256416598E+00 0.16674535910E+00
 0.15451609574E+00 0.14825911161E+00 0.15011343305E+00 0.16189121045E+00 0.18487314781E+00
 0.21978603189E+00 0.26638354709E+00 0.32321657964E+00 0.38755413372E+00 0.45518451739E+00
 0.52050341294E+00 0.57710146545E+00 0.61897359801E+00 0.64129358993E+00 0.64129427451E+00
 0.61897592872E+00 0.57710297578E+00 0.52050605517E+00 0.45518794075E+00 0.38755737758E+00
 0.32321896763E+00 0.26638672047E+00 0.21978777488E+00 0.18487565750E+00 0.16189330079E+00
 0.16149714073E+00 0.16189311063E+00 0.17148787371E+00 0.18832216174E+00 0.20996408420E+00
 0.23356700142E+00 0.25612735527E+00 0.27475502296E+00 0.28702577352E+00 0.29130719141E+00
 0.28702486616E+00 0.27475380212E+00 0.25612655414E+00 0.23356612180E+00 0.20996207099E+00
 0.18831983946E+00 0.17148733582E+00 0.16189122267E+00 0.16149491316E+00 0.17174348396E+00
 0.19345913325E+00 0.22675616970E+00 0.27070376239E+00 0.32321659234E+00 0.38103267533E+00
 0.43967556070E+00 0.49372569975E+00 0.53751931783E+00 0.56604795816E+00 0.57595707501E+00
 0.56604792840E+00 0.53752044175E+00 0.49372842266E+00 0.43967818296E+00 0.38103491483E+00
 0.32321911724E+00 0.27070688420E+00 0.22675789472E+00 0.19346225897E+00 0.17174492365E+00
 0.16877989494E+00 0.17174520358E+00 0.18487512217E+00 0.20654933814E+00 0.23444853515E+00
 0.26560020945E+00 0.29661458354E+00 0.32396052803E+00 0.34436169619E+00 0.35526317743E+00
 0.35526338145E+00 0.34436114920E+00 0.32395888560E+00 0.29661304496E+00 0.26559872968E+00
 0.23444746014E+00 0.20654647824E+00 0.18487316808E+00 0.17174349185E+00 0.16877750062E+00
 0.17691624112E+00 0.19641921427E+00 0.22675617778E+00 0.26638356785E+00 0.31271436421E+00
 0.36219392534E+00 0.41040546829E+00 0.45245279131E+00 0.48363894934E+00 0.50025542750E+00
 0.50025592762E+00 0.48364068465E+00 0.45245473016E+00 0.41040694336E+00 0.36219602777E+00
 0.31271732685E+00 0.26638598040E+00 0.22675829060E+00 0.19642185804E+00 0.17691757219E+00
 0.17128698054E+00 0.17691770933E+00 0.19346158682E+00 0.21978790162E+00 0.25387651266E+00
 0.29283636160E+00 0.33307541224E+00 0.37052242963E+00 0.40103577340E+00 0.42100479967E+00
 0.42795317207E+00 0.42100396055E+00 0.40103535273E+00 0.37052088732E+00 0.33307303810E+00
 0.29283398545E+00 0.25387483064E+00 0.21978605521E+00 0.19345914397E+00 0.17691624384E+00
 0.17128404265E+00 0.17691624384E+00 0.19345914397E+00 0.21978605521E+00 0.25387483064E+00
 0.29283398545E+00 0.33307303810E+00 0.37052088732E+00 0.40103535273E+00 0.42100396055E+00
 0.42795317207E+00 0.42100479967E+00 0.40103577340E+00 0.37052242963E+00 0.33307541224E+00
 0.29283636160E+00 0.25387651266E+00 0.21978790162E+00 0.19346158682E+00 0.17691770933E+00
 0.16877989494E+00 0.17691757219E+00 0.19642185804E+00 0.22675829060E+00 0.26638598040E+00
 0.31271732685E+00 0.36219602777E+00 0.41040694336E+00 0.45245473016E+00 0.48364068465E+00
 0.50025592762E+00 0.50025542750E+00 0.48363894934E+00 0.45245279131E+00 0.41040546829E+00
 0.36219392534E+00 0.31271436421E+00 0.26638356785E+00 0.22675617778E+00 0.19641921427E+00
 0.17691624112E+00 0.16877750062E+00 0.17174349185E+00 0.18487316808E+00 0.20654647824E+00
 0.23444746014E+00 0.26559872968E+00 0.29661304496E+00 0.32395888560E+00 0.34436114920E+00
 0.35526338144E+00 0.35526317743E+00 0.34436169619E+00 0.32396052803E+00 0.29661458354E+00
 0.26560020945E+00 0.23444853515E+00 0.20654933814E+00 0.18487512217E+00 0.17174520358E+00
 0.16149714073E+00 0.17174492365E+00 0.19346225897E+00 0.22675789472E+00 0.27070688420E+00
 0.32321911724E+00 0.38103491483E+00 0.43967818296E+00 0.49372842266E+00 0.53752044175E+00
 0.56604792840E+00 0.57595707501E+00 0.56604795816E+00 0.53751931783E+00 0.49372569975E+00
 0.43967556070E+00 0.38103267533E+00 0.32321659234E+00 0.27070376239E+00 0.22675616970E+00
 0.19345913325E+00 0.17174348396E+00 0.16149491316E+00 0.16189122267E+00 0.17148733582E+00
 0.18831983946E+00 0.20996207099E+00 0.23356612180E+00 0.25612655414E+00 0.27475380212E+00
 0.28702486616E+00 0.29130719141E+00 0.28702577352E+00 0.27475502296E+00 0.25612735527E+00
 0.23356700142E+00 0.20996408420E+00 0.18832216174E+00 0.17148787371E+00 0.16189311063E+00
 0.15011447539E+00 0.16189330079E+00 0.18487565750E+00 0.21978777488E+00 0.26638672047E+00
 0.32321896763E+00 0.38755737758E+00 0.45518794075E+00 0.52050605517E+00 0.57710297578E+00
 0.61897592872E+00 0.64129427451E+00 0.64129358993E+00 0.61897359801E+00 0.57710146545E+00
 0.52050341294E+00 0.45518451739E+00 0.38755413372E+00 0.32321657964E+00 0.26638354709E+00
 0.21978603189E+00 0.18487314781E+00 0.16189121045E+00 0.15011343305E+00 0.14825911161E+00
 0.15451609574E+00 0.16674535910E+00 0.18256416598E+00 0.19941759077E+00 0.21479090305E+00
 0.22645544324E+00 0.23273810370E+00 0.23273810277E+00 0.22645527823E+00 0.21479091332E+00
 0.19941921533E+00 0.18256590199E+00 0.16674619420E+00 0.15451674214E+00 0.14826230826E+00
 0.13563862414E+00 0.14826184529E+00 0.17148881357E+00 0.20654874206E+00 0.25387805041E+00
 0.31271702410E+00 0.38103624228E+00 0.45518748283E+00 0.52978882369E+00 0.59811283577E+00
 0.65345256980E+00 0.68960173892E+00 0.70217649264E+00 0.68960081326E+00 0.65345087876E+00
 0.59810996133E+00 0.52978637848E+00 0.45518450191E+00 0.38103264690E+00 0.31271432753E+00
 0.25387479138E+00 0.20654644215E+00 0.17148730809E+00 0.14825909623E+00 0.13563860007E+00
 0.13200970784E+00 0.13536698246E+00 0.14355708725E+00 0.15436177276E+00 0.16560185078E+00
 0.17528907447E+00 0.18180814233E+00 0.18410423502E+00 0.18180878123E+00 0.17529052442E+00
 0.16560334642E+00 0.15436188828E+00 0.14355735107E+00 0.13536909460E+00 0.13201165826E+00
 0.11924571105E+00 0.13201260643E+00 0.15451702782E+00 0.18832277673E+00 0.23444977945E+00
 0.29283649900E+00 0.36219727778E+00 0.43967871720E+00 0.52050713502E+00 0.59811327916E+00
 0.66543135682E+00 0.71531157077E+00 0.74188492814E+00 0.74188480207E+00 0.71531034706E+00
 0.66542833317E+00 0.59810994664E+00 0.52050338217E+00 0.43967551609E+00 0.36219387174E+00
 0.29283392883E+00 0.23444740650E+00 0.18831979424E+00 0.15451606319E+00 0.13200969070E+00
 0.11924460322E+00 0.11439689282E+00 0.11543824448E+00 0.12034229855E+00 0.12714121746E+00
 0.13405506968E+00 0.13958304280E+00 0.14263642597E+00 0.14263606416E+00 0.13958300356E+00
 0.13405425625E+00 0.12714139089E+00 0.12034422095E+00 0.11544020699E+00 0.11439676680E+00
 0.10211429751E+00 0.11439807881E+00 0.13536755375E+00 0.16674805485E+00 0.20996376783E+00
 0.26560174605E+00 0.33307648086E+00 0.41040865025E+00 0.49372918600E+00 0.57710476154E+00
 0.65345277513E+00 0.71531232759E+00 0.75563254254E+00 0.76959333539E+00 0.75563045549E+00
 0.71531033746E+00 0.65345085376E+00 0.57710142318E+00 0.49372564181E+00 0.41040539964E+00
 0.33307296514E+00 0.26559865891E+00 0.20996200817E+00 0.16674530889E+00 0.13536694781E+00
 0.11439687528E+00 0.10211140531E+00 0.96603620488E-01 0.95963814261E-01 0.98381890364E-01
 0.10220316587E+00 0.10603104586E+00 0.10878159674E+00 0.10977854115E+00 0.10878216677E+00
 0.10603209354E+00 0.10220502253E+00 0.98382697622E-01 0.95963226534E-01 0.96603649806E-01
 0.85280065820E-01 0.96602841858E-01 0.11544028548E+00 0.14355964237E+00 0.18256550764E+00
 0.23356935874E+00 0.29661549157E+00 0.37052407016E+00 0.45245644305E+00 0.53752243013E+00
 0.61897727861E+00 0.68960389011E+00 0.74188611611E+00 0.76959327793E+00 0.76959333436E+00
 0.74188479105E+00 0.68960078570E+00 0.61897355115E+00 0.53751925282E+00 0.45245271274E+00
 0.37052080197E+00 0.29661295994E+00 0.23356604344E+00 0.18256409945E+00 0.14355703603E+00
 0.11543821021E+00 0.96603603712E-01 0.85278724999E-01 0.79614727952E-01 0.77904251448E-01
 0.78593499237E-01 0.80362842684E-01 0.82157949779E-01 0.83244643670E-01 0.83244715177E-01
 0.82157571318E-01 0.80362136734E-01 0.78592859825E-01 0.77904927017E-01 0.79617271116E-01
 0.69557718065E-01 0.79615966944E-01 0.95966663557E-01 0.12034261657E+00 0.15436341874E+00
 0.19942012119E+00 0.25612867258E+00 0.32396210134E+00 0.40103843591E+00 0.48364252883E+00
 0.56605077573E+00 0.64129633778E+00 0.70217826748E+00 0.74188612425E+00 0.75563254980E+00
 0.74188492526E+00 0.70217647211E+00 0.64129354788E+00 0.56604789500E+00 0.48363886878E+00
 0.40103526169E+00 0.32395879174E+00 0.25612646452E+00 0.19941751117E+00 0.15436170743E+00
 0.12034224961E+00 0.95963782388E-01 0.79614712746E-01 0.69558831007E-01 0.64140419311E-01
 0.61881148250E-01 0.61507549008E-01 0.62001363750E-01 0.62605365922E-01 0.62860126759E-01
 0.62605588072E-01 0.62002436133E-01 0.61508935927E-01 0.61882464071E-01 0.64140488043E-01
 0.55513328835E-01 0.64142685087E-01 0.77904249858E-01 0.98382333667E-01 0.12714348099E+00
 0.16560370320E+00 0.21479302963E+00 0.27475687023E+00 0.34436414512E+00 0.42100684402E+00
 0.50025889570E+00 0.57595973649E+00 0.64129635251E+00 0.68960391361E+00 0.71531235115E+00
 0.71531158472E+00 0.68960173485E+00 0.64129424719E+00 0.57595702349E+00 0.50025535455E+00
 0.42100387255E+00 0.34436105403E+00 0.27475370748E+00 0.21479081547E+00 0.16560177529E+00
 0.12714115705E+00 0.98381846117E-01 0.77904223332E-01 0.64140406139E-01 0.55511870769E-01
 0.50607696725E-01 0.48195997932E-01 0.47281193127E-01 0.47098435123E-01 0.47137098220E-01
 0.47136960747E-01 0.47098327409E-01 0.47280393241E-01 0.48195334315E-01 0.50607663682E-01
 0.43440564874E-01 0.50607146292E-01 0.61881242642E-01 0.78595027451E-01 0.10220480768E+00
 0.13405622184E+00 0.17529105637E+00 0.22645743872E+00 0.28702706472E+00 0.35526631168E+00
 0.42795582458E+00 0.50025891286E+00 0.56605080817E+00 0.61897732119E+00 0.65345281963E+00
 0.66543139345E+00 0.65345258930E+00 0.61897592444E+00 0.56604789769E+00 0.50025587183E+00
 0.42795309649E+00 0.35526329361E+00 0.28702477407E+00 0.22645535410E+00 0.17528899413E+00
 0.13405500208E+00 0.10220311278E+00 0.78593461181E-01 0.61881124525E-01 0.50607685818E-01
 0.43439978532E-01 0.39198246666E-01 0.36911205951E-01 0.35819804869E-01 0.35381697532E-01
 0.35271785940E-01 0.35382071472E-01 0.35820271658E-01 0.36912615294E-01 0.39199235516E-01
 0.33408372255E-01 0.39199061585E-01 0.48197150079E-01 0.61508750688E-01 0.80363545162E-01
 0.10603202851E+00 0.13958434422E+00 0.18181046825E+00 0.23274049643E+00 0.29130961333E+00
 0.35526632747E+00 0.42100687731E+00 0.48364257853E+00 0.53752249178E+00 0.57710482756E+00
 0.59811334022E+00 0.59811288214E+00 0.57710299954E+00 0.53752043839E+00 0.48364065380E+00
 0.42100474497E+00 0.35526310539E+00 0.29130710980E+00 0.23273802008E+00 0.18180806320E+00
 0.13958297305E+00 0.10603098815E+00 0.80362798185E-01 0.61507517670E-01 0.48195978691E-01
 0.39198238001E-01 0.33408573211E-01 0.29889520595E-01 0.27894795764E-01 0.26870005636E-01
 0.26448698626E-01 0.26448475558E-01 0.26869879549E-01 0.27894318533E-01 0.29888838168E-01
 0.25329814237E-01 0.29889976727E-01 0.36911295113E-01 0.47281457558E-01 0.62001745225E-01
 0.82158623831E-01 0.10878358773E+00 0.14263784981E+00 0.18410523258E+00 0.23274050876E+00
 0.28702709279E+00 0.34436419093E+00 0.40103849914E+00 0.45245652034E+00 0.49372927084E+00
 0.52050721856E+00 0.52978889621E+00 0.52050610794E+00 0.49372844956E+00 0.45245472888E+00
 0.40103574559E+00 0.34436164683E+00 0.28702570950E+00 0.23273803150E+00 0.18410416334E+00
 0.14263635945E+00 0.10878153895E+00 0.82157902682E-01 0.62001328044E-01 0.47281168306E-01
 0.36911190958E-01 0.29889513930E-01 0.25328812486E-01 0.22516160463E-01 0.20892095144E-01
 0.20073146602E-01 0.19824222981E-01 0.20073369568E-01 0.20892657321E-01 0.22516865080E-01
 0.19009692859E-01 0.22515893915E-01 0.27894982109E-01 0.35820620059E-01 0.47098804285E-01
 0.62606959452E-01 0.83245507963E-01 0.10977898166E+00 0.14263785821E+00 0.18181048872E+00
 0.22645747458E+00 0.27475692372E+00 0.32396217283E+00 0.37052415739E+00 0.41040874804E+00
 0.43967881781E+00 0.45518757703E+00 0.45518801948E+00 0.43967823897E+00 0.41040697251E+00
 0.37052243151E+00 0.32396050566E+00 0.27475498180E+00 0.22645522495E+00 0.18180872257E+00
 0.14263600604E+00 0.10977848783E+00 0.83244597892E-01 0.62605329153E-01 0.47098407544E-01
 0.35819785974E-01 0.27894784498E-01 0.22516155533E-01 0.19009912914E-01 0.16838338617E-01
 0.15606272860E-01 0.15054037590E-01 0.15053985366E-01 0.15606084128E-01 0.16837879137E-01
 0.14197448659E-01 0.16838433903E-01 0.20893005022E-01 0.26870024619E-01 0.35382220940E-01
 0.47137413631E-01 0.62860153147E-01 0.83245512988E-01 0.10878360079E+00 0.13958436864E+00
 0.17529109544E+00 0.21479308580E+00 0.25612874675E+00 0.29661558252E+00 0.33307658479E+00
 0.36219738834E+00 0.38103635129E+00 0.38755747629E+00 0.38103499541E+00 0.36219608472E+00
 0.33307544321E+00 0.29661458947E+00 0.25612733982E+00 0.21479088190E+00 0.17529048314E+00
 0.13958295823E+00 0.10878212204E+00 0.83244674422E-01 0.62860092160E-01 0.47137070640E-01
 0.35381677068E-01 0.26869991761E-01 0.20892086972E-01 0.16838335092E-01 0.14196706807E-01
 0.12582836454E-01 0.11720695682E-01 0.11451863586E-01 0.11720900998E-01 0.12583177129E-01
 0.10633143340E-01 0.12582887930E-01 0.15606153675E-01 0.20073148925E-01 0.26448799850E-01
 0.35272345158E-01 0.47137416190E-01 0.62606966695E-01 0.82158638413E-01 0.10603205344E+00
 0.13405626014E+00 0.16560375752E+00 0.19942019303E+00 0.23356944775E+00 0.26560184969E+00
 0.29283661241E+00 0.31271714047E+00 0.32321907907E+00 0.32321921598E+00 0.31271740656E+00
 0.29283641839E+00 0.26560024232E+00 0.23356701208E+00 0.19941920757E+00 0.16560332525E+00
 0.13405422694E+00 0.10603206075E+00 0.82157538802E-01 0.62605558547E-01 0.47136935728E-01
 0.35271766137E-01 0.26448684034E-01 0.20073136795E-01 0.15606267149E-01 0.12582834019E-01
 0.10633697478E-01 0.94829899098E-02 0.89526064319E-02 0.89522780638E-02 0.94830787975E-02
 0.80720593908E-02 0.94832807554E-02 0.11721011225E-01 0.15054124384E-01 0.19824794413E-01
 0.26448800846E-01 0.35382224226E-01 0.47098811651E-01 0.62001758940E-01 0.80363567921E-01
 0.10220484230E+00 0.12714353005E+00 0.15436348413E+00 0.18256558997E+00 0.20996386576E+00
 0.23444988957E+00 0.25387816737E+00 0.26638683752E+00 0.27070699414E+00 0.26638607668E+00
 0.25387659035E+00 0.23444859163E+00 0.20996411931E+00 0.18256591778E+00 0.15436188834E+00
 0.12714137954E+00 0.10220500406E+00 0.80362114993E-01 0.62002414146E-01 0.47098307191E-01
 0.35382054295E-01 0.26448461958E-01 0.19824213000E-01 0.15054030926E-01 0.11720691840E-01
 0.94829882959E-02 0.80717833732E-02 0.73000925006E-02 0.70547030304E-02 0.73002694730E-02
 0.63035100902E-02 0.73000823685E-02 0.89524069751E-02 0.11451895688E-01 0.15054124525E-01
 0.20073149860E-01 0.26870027378E-01 0.35820626102E-01 0.47281468807E-01 0.61508769450E-01
 0.78595056324E-01 0.98382375212E-01 0.12034267286E+00 0.14355971459E+00 0.16674814285E+00
 0.18832287856E+00 0.20654885388E+00 0.21978789131E+00 0.22675800943E+00 0.22675839724E+00
 0.21978799472E+00 0.20654941388E+00 0.18832221835E+00 0.16674623199E+00 0.14355737207E+00
 0.12034422829E+00 0.98382694916E-01 0.78592850645E-01 0.61508923350E-01 0.47280379668E-01
 0.35820258810E-01 0.26869868434E-01 0.20073360699E-01 0.15053978842E-01 0.11451859247E-01
 0.89526039518E-02 0.73000914762E-02 0.63037388963E-02 0.58367749286E-02 0.58367467033E-02
 0.51604126460E-02 0.58368214743E-02 0.70548715490E-02 0.89524067659E-02 0.11721011021E-01
 0.15606153934E-01 0.20893006513E-01 0.27894985974E-01 0.36911302912E-01 0.48197163789E-01
 0.61881264555E-01 0.77904282418E-01 0.95966709075E-01 0.11544034564E+00 0.13536762921E+00
 0.15451711787E+00 0.17148891591E+00 0.18487576821E+00 0.19346237288E+00 0.19642196938E+00
 0.19346169001E+00 0.18487521261E+00 0.17148794831E+00 0.15451679963E+00 0.13536913541E+00
 0.11544023288E+00 0.95963240176E-01 0.77904931465E-01 0.61882462252E-01 0.48195328788E-01
 0.36912608102E-01 0.27894311128E-01 0.20892650642E-01 0.15606078674E-01 0.11720896951E-01
 0.89522753760E-02 0.70547015143E-02 0.58367743185E-02 0.51602267803E-02 0.49440960896E-02
 0.45223054474E-02 0.49439995547E-02 0.58368212342E-02 0.73000818373E-02 0.94832800098E-02
 0.12582887240E-01 0.16838433782E-01 0.22515895202E-01 0.29889980633E-01 0.39199069732E-01
 0.50607160690E-01 0.64142708012E-01 0.79616000735E-01 0.96602888644E-01 0.11439814008E+00
 0.13201268256E+00 0.14826193529E+00 0.16189340218E+00 0.17174503256E+00 0.17691768371E+00
 0.17691781812E+00 0.17174530461E+00 0.16189319980E+00 0.14826238289E+00 0.13201171725E+00
 0.11439681053E+00 0.96603679818E-01 0.79617289701E-01 0.64140497793E-01 0.50607667178E-01
 0.39199234991E-01 0.29888835415E-01 0.22516861436E-01 0.16837875489E-01 0.12583174005E-01
 0.94830764368E-02 0.73002679162E-02 0.58367458533E-02 0.49440957720E-02 0.45223505992E-02
 0.45455523292E-02 0.47652544222E-02 0.54509998717E-02 0.66827567989E-02 0.85944307634E-02
 0.11374033754E-01 0.15260432637E-01 0.20532759959E-01 0.27495673297E-01 0.36441774646E-01
 0.47611549921E-01 0.61134864619E-01 0.76945523233E-01 0.94732266928E-01 0.11389016081E+00
 0.13348171133E+00 0.15228956430E+00 0.16894118923E+00 0.18206310800E+00 0.19047567233E+00
 0.19337469231E+00 0.19047550365E+00 0.18206322288E+00 0.16894125110E+00 0.15228965189E+00
 0.13348110324E+00 0.11388933475E+00 0.94731775812E-01 0.76945841467E-01 0.61134210043E-01