=========================================
SLURM_JOB_ID = 63599678
SLURM_JOB_NODELIST = lnode18
SLURM_GPUS = 
SLURM_CPUS_ON_NODE = 8
SLURM_JOB_PARTITION = lenovo
SLURM_TASK_PID = 211220
CUDA_VISIBLE_DEVICES = 
==========================================
 running on    8 total cores
 distrk:  each k-point on    8 cores,    1 groups
 distr:  one band on    4 cores,    2 groups
 using from now: INCAR     
 vasp.5.4.4.18Apr17-6-g9f103f2a35 (build Apr 28 2018 00:24:27) complex          
  
 POSCAR found type information on POSCAR  Co
 POSCAR found :  1 types and       2 ions
 scaLAPACK will be used
 LDA part: xc-table for Pade appr. of Perdew
 POSCAR, INCAR and KPOINTS ok, starting setup
 FFT: planning ...
 WAVECAR not read
 entering main loop
       N       E                     dE             d eps       ncg     rms          rms(c)
DAV:   1     0.528103897837E+02    0.52810E+02   -0.58260E+03  5874   0.844E+02
DAV:   2    -0.125832950763E+02   -0.65394E+02   -0.60543E+02  5532   0.171E+02
DAV:   3    -0.142401633578E+02   -0.16569E+01   -0.16327E+01  6182   0.334E+01
DAV:   4    -0.142612985988E+02   -0.21135E-01   -0.21130E-01  6520   0.327E+00
DAV:   5    -0.142618611873E+02   -0.56259E-03   -0.56257E-03  6258   0.503E-01    0.239E+01
DAV:   6    -0.157783590791E+02   -0.15165E+01   -0.77015E+00  5854   0.509E+01    0.525E+00
DAV:   7    -0.155744471702E+02    0.20391E+00   -0.11051E+00  6046   0.183E+01    0.303E+00
DAV:   8    -0.155484504797E+02    0.25997E-01   -0.27352E-02  7350   0.228E+00    0.140E+00
DAV:   9    -0.155407838815E+02    0.76666E-02   -0.22530E-03  8146   0.595E-01    0.707E-01
DAV:  10    -0.155374593606E+02    0.33245E-02   -0.44613E-04  6768   0.208E-01    0.805E-02
DAV:  11    -0.155374943898E+02   -0.35029E-04   -0.81707E-05  7334   0.128E-01    0.339E-02
DAV:  12    -0.155374885841E+02    0.58058E-05   -0.63754E-06  6328   0.269E-02    0.155E-02
DAV:  13    -0.155374861148E+02    0.24693E-05   -0.69541E-07  3662   0.101E-02    0.493E-03
DAV:  14    -0.155374864470E+02   -0.33226E-06   -0.33938E-07  2978   0.543E-03
   1 F= -.15537486E+02 E0= -.15518526E+02  d E =-.379217E-01  mag=     3.1981
 writing wavefunctions
