       N       E                     dE             d eps       ncg     rms          rms(c)
DAV:   1     0.560585442084E+02    0.56059E+02   -0.58144E+03  5890   0.842E+02
DAV:   2    -0.918918400402E+01   -0.65248E+02   -0.60400E+02  5526   0.172E+02
DAV:   3    -0.107920117709E+02   -0.16028E+01   -0.15796E+01  6168   0.328E+01
DAV:   4    -0.108132158910E+02   -0.21204E-01   -0.21199E-01  6584   0.327E+00
DAV:   5    -0.108137857566E+02   -0.56987E-03   -0.56985E-03  6248   0.500E-01    0.239E+01
DAV:   6    -0.121392479413E+02   -0.13255E+01   -0.81442E+00  5864   0.524E+01    0.534E+00
DAV:   7    -0.119310644666E+02    0.20818E+00   -0.11338E+00  6096   0.185E+01    0.306E+00
DAV:   8    -0.119032769754E+02    0.27787E-01   -0.27673E-02  7440   0.232E+00    0.142E+00
DAV:   9    -0.118949593450E+02    0.83176E-02   -0.22610E-03  8152   0.603E-01    0.705E-01
DAV:  10    -0.118914026721E+02    0.35567E-02   -0.46698E-04  6810   0.215E-01    0.786E-02
DAV:  11    -0.118914373475E+02   -0.34675E-04   -0.81919E-05  7370   0.129E-01    0.327E-02
DAV:  12    -0.118914318885E+02    0.54590E-05   -0.64933E-06  6432   0.277E-02    0.168E-02
DAV:  13    -0.118914285355E+02    0.33530E-05   -0.63190E-07  3506   0.101E-02    0.550E-03
DAV:  14    -0.118914287871E+02   -0.25158E-06   -0.36558E-07  2998   0.540E-03
   1 F= -.11891429E+02 E0= -.11872682E+02  d E =-.374938E-01  mag=     3.2311
