=========================================
SLURM_JOB_ID = 63457169
SLURM_JOB_NODELIST = lnode56
SLURM_GPUS = 
SLURM_CPUS_ON_NODE = 16
SLURM_JOB_PARTITION = lenovo
SLURM_TASK_PID = 2503333
CUDA_VISIBLE_DEVICES = 
==========================================
 running on   16 total cores
 distrk:  each k-point on   16 cores,    1 groups
 distr:  one band on    4 cores,    4 groups
 using from now: INCAR     
 vasp.5.4.4.18Apr17-6-g9f103f2a35 (build Apr 28 2018 00:24:27) complex          
  
 POSCAR found type information on POSCAR  Eu S 
 POSCAR found :  2 types and       4 ions
 scaLAPACK will be used

 ----------------------------------------------------------------------------- 
|                                                                             |
|  ADVICE TO THIS USER RUNNING 'VASP/VAMP'   (HEAR YOUR MASTER'S VOICE ...):  |
|                                                                             |
|      You have a (more or less) 'small supercell' and for smaller cells      |
|      it is recommended  to use the reciprocal-space projection scheme!      |
|      The real space optimization is not  efficient for small cells and it   |
|      is also less accurate ...                                              |
|      Therefore set LREAL=.FALSE. in the  INCAR file                         |
|                                                                             |
 ----------------------------------------------------------------------------- 

 LDA part: xc-table for Pade appr. of Perdew
 POSCAR, INCAR and KPOINTS ok, starting setup
 FFT: planning ...
 WAVECAR not read
 entering main loop
       N       E                     dE             d eps       ncg     rms          rms(c)
DAV:   1     0.451082807642E+03    0.45108E+03   -0.18441E+04 20960   0.327E+03
DAV:   2     0.516820859352E+02   -0.39940E+03   -0.37561E+03 28600   0.403E+02
DAV:   3    -0.258592605582E+02   -0.77541E+02   -0.76434E+02 29660   0.257E+02
DAV:   4    -0.316722611749E+02   -0.58130E+01   -0.56978E+01 33788   0.561E+01
DAV:   5    -0.322340011823E+02   -0.56174E+00   -0.55402E+00 34340   0.161E+01    0.193E+01
DAV:   6    -0.384959207803E+02   -0.62619E+01   -0.11319E+02 29912   0.107E+02    0.235E+01
DAV:   7    -0.387457351459E+02   -0.24981E+00   -0.15887E+01 30240   0.555E+01    0.110E+01
DAV:   8    -0.374674957112E+02    0.12782E+01   -0.46145E+00 30772   0.461E+01    0.484E+00
DAV:   9    -0.376202180298E+02   -0.15272E+00   -0.59768E+00 32704   0.220E+01    0.545E+00
DAV:  10    -0.374343246760E+02    0.18589E+00   -0.28820E+00 30880   0.132E+01    0.211E+00
DAV:  11    -0.374740135055E+02   -0.39689E-01   -0.26856E-01 36852   0.449E+00    0.165E+00
DAV:  12    -0.374685663312E+02    0.54472E-02   -0.52695E-02 33000   0.191E+00    0.103E+00
DAV:  13    -0.374611265088E+02    0.74398E-02   -0.26461E-02 34784   0.141E+00    0.640E-01
DAV:  14    -0.374581166654E+02    0.30098E-02   -0.14532E-02 31432   0.851E-01    0.305E-01
DAV:  15    -0.374576161231E+02    0.50054E-03   -0.48488E-03 32504   0.538E-01    0.105E-01
DAV:  16    -0.374576622778E+02   -0.46155E-04   -0.49272E-04 37244   0.169E-01    0.697E-02
DAV:  17    -0.374578040906E+02   -0.14181E-03   -0.81052E-04 27664   0.230E-01    0.914E-02
DAV:  18    -0.374577358917E+02    0.68199E-04   -0.24526E-04 31996   0.166E-01    0.326E-02
DAV:  19    -0.374577077521E+02    0.28140E-04   -0.72044E-05 33716   0.846E-02    0.114E-02
DAV:  20    -0.374577072955E+02    0.45656E-06   -0.54671E-06 35012   0.300E-02    0.860E-03
DAV:  21    -0.374577031113E+02    0.41843E-05   -0.26737E-06 26072   0.246E-02    0.562E-03
DAV:  22    -0.374576991475E+02    0.39638E-05   -0.36197E-06 23468   0.201E-02    0.307E-03
DAV:  23    -0.374576994993E+02   -0.35182E-06   -0.37876E-06 15004   0.151E-02    0.395E-03
DAV:  24    -0.374576985044E+02    0.99491E-06   -0.84433E-06 17248   0.200E-02    0.106E-02
DAV:  25    -0.374576976621E+02    0.84229E-06   -0.85019E-06 17024   0.245E-02    0.134E-02
DAV:  26    -0.374576976318E+02    0.30287E-07   -0.57262E-06 18384   0.233E-02    0.134E-02
DAV:  27    -0.374576971971E+02    0.43476E-06   -0.26282E-06 16624   0.173E-02    0.134E-02
DAV:  28    -0.374576963131E+02    0.88392E-06   -0.13137E-06 14288   0.114E-02    0.140E-02
DAV:  29    -0.374576953674E+02    0.94570E-06   -0.82737E-07 13904   0.925E-03    0.148E-02
DAV:  30    -0.374576948090E+02    0.55848E-06   -0.47623E-07 13768   0.735E-03    0.151E-02
DAV:  31    -0.374576953704E+02   -0.56143E-06   -0.51511E-07 15424   0.127E-02    0.135E-02
DAV:  32    -0.374576974266E+02   -0.20563E-05   -0.19868E-06 27776   0.259E-02    0.949E-03
DAV:  33    -0.374576976324E+02   -0.20573E-06   -0.34091E-07 15152   0.108E-02    0.900E-03
DAV:  34    -0.374576972447E+02    0.38763E-06   -0.36880E-07 13732   0.101E-02    0.968E-03
DAV:  35    -0.374576967325E+02    0.51222E-06   -0.11152E-06 22264   0.165E-02    0.122E-02
DAV:  36    -0.374576957958E+02    0.93675E-06   -0.60085E-07 13980   0.803E-03    0.142E-02
DAV:  37    -0.374576960817E+02   -0.28588E-06   -0.41808E-06 13552   0.778E-03    0.177E-02
DAV:  38    -0.374576973013E+02   -0.12196E-05   -0.43188E-06 15516   0.146E-02    0.192E-02
DAV:  39    -0.374576974966E+02   -0.19534E-06   -0.29120E-06 14784   0.123E-02    0.221E-02
DAV:  40    -0.374576992297E+02   -0.17330E-05   -0.59383E-06 15668   0.192E-02    0.236E-02
DAV:  41    -0.374577000488E+02   -0.81911E-06   -0.39439E-06 15140   0.155E-02    0.245E-02
DAV:  42    -0.374577005438E+02   -0.49499E-06   -0.20908E-06 14752   0.141E-02    0.245E-02
DAV:  43    -0.374577013792E+02   -0.83547E-06   -0.14057E-06 14312   0.114E-02    0.255E-02
DAV:  44    -0.374577015204E+02   -0.14121E-06   -0.77388E-07 14052   0.973E-03    0.266E-02
DAV:  45    -0.374577019727E+02   -0.45226E-06   -0.36355E-07 13436   0.704E-03    0.266E-02
DAV:  46    -0.374577025042E+02   -0.53155E-06   -0.20361E-07 13340   0.567E-03    0.263E-02
DAV:  47    -0.374577024359E+02    0.68320E-07   -0.10359E-07 13332   0.563E-03
   1 F= -.37457702E+02 E0= -.37457702E+02  d E =0.000000E+00  mag=     0.0001
