       N       E                     dE             d eps       ncg     rms          rms(c)
DAV:   1     0.266638674243E+03    0.26664E+03   -0.24046E+04  5472   0.263E+03
DAV:   2    -0.821657604092E+01   -0.27486E+03   -0.26405E+03  5472   0.487E+02
DAV:   3    -0.162020491354E+02   -0.79855E+01   -0.79679E+01  5940   0.889E+01
DAV:   4    -0.162728822142E+02   -0.70833E-01   -0.70833E-01  6420   0.801E+00
DAV:   5    -0.162741841434E+02   -0.13019E-02   -0.13020E-02  5832   0.102E+00    0.250E+01
DAV:   6    -0.164582497904E+02   -0.18407E+00   -0.74701E+00  5448   0.398E+01    0.693E+00
DAV:   7    -0.165119157269E+02   -0.53666E-01   -0.66508E-01  5484   0.989E+00    0.437E+00
DAV:   8    -0.165207710301E+02   -0.88553E-02   -0.16075E-02  6144   0.158E+00    0.136E+00
DAV:   9    -0.165129406031E+02    0.78304E-02   -0.55392E-03  5844   0.953E-01    0.342E-01
DAV:  10    -0.165124826747E+02    0.45793E-03   -0.23845E-03  5676   0.646E-01    0.478E-02
DAV:  11    -0.165125766308E+02   -0.93956E-04   -0.53356E-05  5880   0.688E-02    0.256E-02
DAV:  12    -0.165126091583E+02   -0.32528E-04   -0.45766E-06  6312   0.223E-02    0.854E-03
DAV:  13    -0.165125844931E+02    0.24665E-04   -0.24302E-06  5640   0.161E-02    0.348E-03
DAV:  14    -0.165125872584E+02   -0.27653E-05   -0.25947E-07  5808   0.544E-03    0.932E-04
DAV:  15    -0.165125883440E+02   -0.10856E-05   -0.50663E-09  3060   0.802E-04    0.203E-04
DAV:  16    -0.165125886708E+02   -0.32674E-06   -0.11348E-09  2940   0.365E-04    0.142E-04
DAV:  17    -0.165125884876E+02    0.18317E-06   -0.25716E-10  2844   0.169E-04    0.314E-05
DAV:  18    -0.165125885102E+02   -0.22629E-07   -0.26858E-11  2808   0.617E-05
   1 F= -.16512589E+02 E0= -.16512589E+02  d E =0.000000E+00  mag=     4.4021
