<?xml version="1.0" encoding="ISO-8859-1"?>
<modeling>
 <generator>
  <i name="program" type="string">vasp </i>
  <i name="version" type="string">5.4.4.18Apr17-6-g9f103f2a35  </i>
  <i name="subversion" type="string">(build Apr 28 2018 00:24:27) complex            parallel </i>
  <i name="platform" type="string">LinuxIFC </i>
  <i name="date" type="string">2021 09 07 </i>
  <i name="time" type="string">01:13:02 </i>
 </generator>
 <incar>
  <i type="string" name="PREC">accurate</i>
  <i type="string" name="ALGO"> Normal</i>
  <i type="int" name="ISPIN">     2</i>
  <i type="int" name="NELM">   100</i>
  <i type="int" name="IBRION">    -1</i>
  <i name="EDIFF">      0.00000010</i>
  <i type="int" name="NSW">     0</i>
  <i type="int" name="ISIF">     3</i>
  <i name="ENCUT">    920.00000000</i>
  <v name="MAGMOM">      5.00000000      5.00000000</v>
  <i type="string" name="LREAL"> Auto</i>
  <i type="int" name="ISMEAR">    -5</i>
  <i name="SIGMA">      0.05000000</i>
  <i type="logical" name="LWAVE"> F  </i>
  <i type="logical" name="LCHARG"> F  </i>
  <i type="logical" name="LVHAR"> F  </i>
  <i type="int" name="LORBIT">    11</i>
  <i type="logical" name="LASPH"> F  </i>
  <i type="logical" name="LAECHG"> F  </i>
  <v type="int" name="KPOINT_BSE">    -1     0     0     0</v>
  <i type="int" name="NELM">   100</i>
  <i type="logical" name="LASPH"> F  </i>
  <i type="int" name="LMAXTAU">     0</i>
 </incar>
 <structure name="primitive_cell" >
  <crystal>
   <varray name="basis" >
    <v>       1.42002600       1.42002600       1.42002600 </v>
    <v>       1.42002600      -1.42002600      -1.42002600 </v>
    <v>      -1.42002600       1.42002600      -1.42002600 </v>
   </varray>
   <i name="volume">     11.45378113 </i>
   <varray name="rec_basis" >
    <v>       0.35210623       0.35210623       0.00000000 </v>
    <v>       0.35210623       0.00000000      -0.35210623 </v>
    <v>       0.00000000       0.35210623      -0.35210623 </v>
   </varray>
  </crystal>
  <varray name="positions" >
   <v>       0.00000000       0.00000000       0.00000000 </v>
  </varray>
 </structure>
 <varray name="primitive_index" >
  <v type="int" >        1 </v>
 </varray>
 <kpoints>
  <generation param="Auto">
   <i name="subdivisionlength">     30.00000000 </i>
   <v type="int" name="divisions">      11       11       11 </v>
   <v name="usershift">      0.00000000       0.00000000       0.00000000 </v>
   <v name="genvec1">      0.09090909       0.00000000       0.00000000 </v>
   <v name="genvec2">      0.00000000       0.09090909       0.00000000 </v>
   <v name="genvec3">      0.00000000       0.00000000       0.09090909 </v>
   <v name="shift">      0.00000000       0.00000000       0.00000000 </v>
  </generation>
  <varray name="kpointlist" >
   <v>       0.00000000       0.00000000       0.00000000 </v>
   <v>       0.09090909       0.00000000       0.00000000 </v>
   <v>       0.18181818       0.00000000       0.00000000 </v>
   <v>       0.27272727       0.00000000       0.00000000 </v>
   <v>       0.36363636       0.00000000       0.00000000 </v>
   <v>       0.45454545       0.00000000       0.00000000 </v>
   <v>       0.09090909       0.09090909       0.00000000 </v>
   <v>       0.18181818       0.09090909       0.00000000 </v>
   <v>       0.27272727       0.09090909       0.00000000 </v>
   <v>       0.36363636       0.09090909       0.00000000 </v>
   <v>       0.45454545       0.09090909       0.00000000 </v>
   <v>       0.18181818       0.18181818       0.00000000 </v>
   <v>       0.27272727       0.18181818       0.00000000 </v>
   <v>       0.36363636       0.18181818       0.00000000 </v>
   <v>       0.45454545       0.18181818       0.00000000 </v>
   <v>       0.27272727       0.27272727       0.00000000 </v>
   <v>       0.36363636       0.27272727       0.00000000 </v>
   <v>       0.45454545       0.27272727       0.00000000 </v>
   <v>       0.36363636       0.36363636       0.00000000 </v>
   <v>       0.45454545       0.36363636       0.00000000 </v>
   <v>       0.45454545       0.45454545       0.00000000 </v>
   <v>       0.09090909       0.09090909       0.09090909 </v>
   <v>       0.18181818       0.09090909       0.09090909 </v>
   <v>       0.27272727       0.09090909       0.09090909 </v>
   <v>       0.36363636       0.09090909       0.09090909 </v>
   <v>       0.45454545       0.09090909       0.09090909 </v>
   <v>       0.18181818       0.18181818       0.09090909 </v>
   <v>       0.27272727       0.18181818       0.09090909 </v>
   <v>       0.36363636       0.18181818       0.09090909 </v>
   <v>       0.45454545       0.18181818       0.09090909 </v>
   <v>       0.27272727       0.27272727       0.09090909 </v>
   <v>       0.36363636       0.27272727       0.09090909 </v>
   <v>       0.45454545       0.27272727       0.09090909 </v>
   <v>       0.36363636       0.36363636       0.09090909 </v>
   <v>       0.45454545       0.36363636       0.09090909 </v>
   <v>       0.45454545       0.45454545       0.09090909 </v>
   <v>       0.18181818       0.18181818       0.18181818 </v>
   <v>       0.27272727       0.18181818       0.18181818 </v>
   <v>       0.36363636       0.18181818       0.18181818 </v>
   <v>       0.45454545       0.18181818       0.18181818 </v>
   <v>       0.27272727       0.27272727       0.18181818 </v>
   <v>       0.36363636       0.27272727       0.18181818 </v>
   <v>       0.45454545       0.27272727       0.18181818 </v>
   <v>       0.36363636       0.36363636       0.18181818 </v>
   <v>       0.45454545       0.36363636       0.18181818 </v>
   <v>       0.45454545       0.45454545       0.18181818 </v>
   <v>       0.27272727       0.27272727       0.27272727 </v>
   <v>       0.36363636       0.27272727       0.27272727 </v>
   <v>       0.45454545       0.27272727       0.27272727 </v>
   <v>       0.36363636       0.36363636       0.27272727 </v>
   <v>       0.45454545       0.36363636       0.27272727 </v>
   <v>       0.45454545       0.45454545       0.27272727 </v>
   <v>       0.36363636       0.36363636       0.36363636 </v>
   <v>       0.45454545       0.36363636       0.36363636 </v>
   <v>       0.45454545       0.45454545       0.36363636 </v>
   <v>       0.45454545       0.45454545       0.45454545 </v>
  </varray>
  <varray name="weights" >
   <v>       0.00075131 </v>
   <v>       0.00450789 </v>
   <v>       0.00450789 </v>
   <v>       0.00450789 </v>
   <v>       0.00450789 </v>
   <v>       0.00450789 </v>
   <v>       0.00901578 </v>
   <v>       0.01803156 </v>
   <v>       0.01803156 </v>
   <v>       0.01803156 </v>
   <v>       0.01803156 </v>
   <v>       0.00901578 </v>
   <v>       0.01803156 </v>
   <v>       0.01803156 </v>
   <v>       0.01803156 </v>
   <v>       0.00901578 </v>
   <v>       0.01803156 </v>
   <v>       0.01803156 </v>
   <v>       0.00901578 </v>
   <v>       0.01803156 </v>
   <v>       0.00901578 </v>
   <v>       0.00601052 </v>
   <v>       0.01803156 </v>
   <v>       0.01803156 </v>
   <v>       0.01803156 </v>
   <v>       0.01803156 </v>
   <v>       0.01803156 </v>
   <v>       0.03606311 </v>
   <v>       0.03606311 </v>
   <v>       0.03606311 </v>
   <v>       0.01803156 </v>
   <v>       0.03606311 </v>
   <v>       0.03606311 </v>
   <v>       0.01803156 </v>
   <v>       0.03606311 </v>
   <v>       0.01803156 </v>
   <v>       0.00601052 </v>
   <v>       0.01803156 </v>
   <v>       0.01803156 </v>
   <v>       0.01803156 </v>
   <v>       0.01803156 </v>
   <v>       0.03606311 </v>
   <v>       0.03606311 </v>
   <v>       0.01803156 </v>
   <v>       0.03606311 </v>
   <v>       0.01803156 </v>
   <v>       0.00601052 </v>
   <v>       0.01803156 </v>
   <v>       0.01803156 </v>
   <v>       0.01803156 </v>
   <v>       0.03606311 </v>
   <v>       0.01803156 </v>
   <v>       0.00601052 </v>
   <v>       0.01803156 </v>
   <v>       0.01803156 </v>
   <v>       0.00601052 </v>
  </varray>
  <varray name="tetrahedronlist"  type="int" >
   <v type="int" >       12        1        2        2        7 </v>
   <v type="int" >       12        2        2        7        7 </v>
   <v type="int" >       12        2        7        7       22 </v>
   <v type="int" >       12        2        3        7        8 </v>
   <v type="int" >       12        2        7        7        8 </v>
   <v type="int" >       12        7        7        8       22 </v>
   <v type="int" >       12        3        7        8        8 </v>
   <v type="int" >       24        7        8        8       23 </v>
   <v type="int" >       24        7        8       22       23 </v>
   <v type="int" >       12        3        4        8        9 </v>
   <v type="int" >       12        3        8        8        9 </v>
   <v type="int" >       12        8        8        9       23 </v>
   <v type="int" >       12        4        8        9        9 </v>
   <v type="int" >       12        8        9        9       24 </v>
   <v type="int" >       12        8        9       23       24 </v>
   <v type="int" >       12        4        5        9       10 </v>
   <v type="int" >       12        4        9        9       10 </v>
   <v type="int" >       12        9        9       10       24 </v>
   <v type="int" >       12        5        9       10       10 </v>
   <v type="int" >       12        9       10       10       25 </v>
   <v type="int" >       12        9       10       24       25 </v>
   <v type="int" >       12        5        6       10       11 </v>
   <v type="int" >       12        5       10       10       11 </v>
   <v type="int" >       12       10       10       11       25 </v>
   <v type="int" >       12        6       10       11       11 </v>
   <v type="int" >       12       10       11       11       26 </v>
   <v type="int" >       12       10       11       25       26 </v>
   <v type="int" >        6        6        6       11       11 </v>
   <v type="int" >       12        6       11       11       11 </v>
   <v type="int" >       12       11       11       11       26 </v>
   <v type="int" >        6       11       11       26       26 </v>
   <v type="int" >       12        7        8       12       22 </v>
   <v type="int" >       12        8       12       22       23 </v>
   <v type="int" >       12       12       22       23       27 </v>
   <v type="int" >       12        8        9       13       23 </v>
   <v type="int" >       12        8       12       13       23 </v>
   <v type="int" >       12       12       13       23       27 </v>
   <v type="int" >       12        9       13       23       24 </v>
   <v type="int" >       12       13       23       24       28 </v>
   <v type="int" >       12       13       23       27       28 </v>
   <v type="int" >       12        9       10       14       24 </v>
   <v type="int" >       12        9       13       14       24 </v>
   <v type="int" >       12       13       14       24       28 </v>
   <v type="int" >       12       10       14       24       25 </v>
   <v type="int" >       12       14       24       25       29 </v>
   <v type="int" >       12       14       24       28       29 </v>
   <v type="int" >       12       10       11       15       25 </v>
   <v type="int" >       12       10       14       15       25 </v>
   <v type="int" >       12       14       15       25       29 </v>
   <v type="int" >       12       11       15       25       26 </v>
   <v type="int" >       12       15       25       26       30 </v>
   <v type="int" >       12       15       25       29       30 </v>
   <v type="int" >       12       11       11       15       26 </v>
   <v type="int" >       12       11       15       15       26 </v>
   <v type="int" >       12       15       15       26       30 </v>
   <v type="int" >       12       11       15       26       26 </v>
   <v type="int" >       12       15       26       26       30 </v>
   <v type="int" >       12       15       26       30       30 </v>
   <v type="int" >       12       10       11       14       26 </v>
   <v type="int" >       12       11       14       15       26 </v>
   <v type="int" >       12       14       15       26       30 </v>
   <v type="int" >       12       10       14       25       26 </v>
   <v type="int" >       12       14       25       26       29 </v>
   <v type="int" >       12       14       26       29       30 </v>
   <v type="int" >       12        9       10       13       25 </v>
   <v type="int" >       12       10       13       14       25 </v>
   <v type="int" >       12       13       14       25       29 </v>
   <v type="int" >       12        9       13       24       25 </v>
   <v type="int" >       12       13       24       25       28 </v>
   <v type="int" >       12       13       25       28       29 </v>
   <v type="int" >       12        8        9       12       24 </v>
   <v type="int" >       12        9       12       13       24 </v>
   <v type="int" >       12       12       13       24       28 </v>
   <v type="int" >       12        8       12       23       24 </v>
   <v type="int" >       12       12       23       24       27 </v>
   <v type="int" >       12       12       24       27       28 </v>
   <v type="int" >       12        8        8       12       23 </v>
   <v type="int" >       12        8       12       23       27 </v>
   <v type="int" >       12        8       22       23       23 </v>
   <v type="int" >       12        8       23       23       27 </v>
   <v type="int" >       12        2        3        7       22 </v>
   <v type="int" >       12        3        7        8       22 </v>
   <v type="int" >       12        3        8       22       23 </v>
   <v type="int" >       12       12       13       16       27 </v>
   <v type="int" >       12       13       16       27       28 </v>
   <v type="int" >       12       16       27       28       31 </v>
   <v type="int" >       12       13       14       17       28 </v>
   <v type="int" >       12       13       16       17       28 </v>
   <v type="int" >       12       16       17       28       31 </v>
   <v type="int" >       12       14       17       28       29 </v>
   <v type="int" >       12       17       28       29       32 </v>
   <v type="int" >       12       17       28       31       32 </v>
   <v type="int" >       12       14       15       18       29 </v>
   <v type="int" >       12       14       17       18       29 </v>
   <v type="int" >       12       17       18       29       32 </v>
   <v type="int" >       12       15       18       29       30 </v>
   <v type="int" >       12       18       29       30       33 </v>
   <v type="int" >       12       18       29       32       33 </v>
   <v type="int" >       12       15       15       18       30 </v>
   <v type="int" >       12       15       18       18       30 </v>
   <v type="int" >       12       18       18       30       33 </v>
   <v type="int" >       12       15       18       30       30 </v>
   <v type="int" >       12       18       30       30       33 </v>
   <v type="int" >       12       18       30       33       33 </v>
   <v type="int" >       12       14       15       17       30 </v>
   <v type="int" >       12       15       17       18       30 </v>
   <v type="int" >       12       17       18       30       33 </v>
   <v type="int" >       12       14       17       29       30 </v>
   <v type="int" >       12       17       29       30       32 </v>
   <v type="int" >       12       17       30       32       33 </v>
   <v type="int" >       12       13       14       16       29 </v>
   <v type="int" >       12       14       16       17       29 </v>
   <v type="int" >       12       16       17       29       32 </v>
   <v type="int" >       12       13       16       28       29 </v>
   <v type="int" >       12       16       28       29       31 </v>
   <v type="int" >       12       16       29       31       32 </v>
   <v type="int" >       12       12       13       13       28 </v>
   <v type="int" >       12       13       13       16       28 </v>
   <v type="int" >       12       13       16       28       31 </v>
   <v type="int" >       12       12       13       27       28 </v>
   <v type="int" >       12       13       27       28       28 </v>
   <v type="int" >       12       13       28       28       31 </v>
   <v type="int" >       12        8        9       12       27 </v>
   <v type="int" >       12        9       12       13       27 </v>
   <v type="int" >       12        9       13       27       28 </v>
   <v type="int" >       12        8        9       23       27 </v>
   <v type="int" >       12        9       23       24       27 </v>
   <v type="int" >       12        9       24       27       28 </v>
   <v type="int" >       12        3        4        8       23 </v>
   <v type="int" >       12        4        8        9       23 </v>
   <v type="int" >       12        4        9       23       24 </v>
   <v type="int" >       12       16       17       19       31 </v>
   <v type="int" >       12       17       19       31       32 </v>
   <v type="int" >       12       19       31       32       34 </v>
   <v type="int" >       12       17       18       20       32 </v>
   <v type="int" >       12       17       19       20       32 </v>
   <v type="int" >       12       19       20       32       34 </v>
   <v type="int" >       12       18       20       32       33 </v>
   <v type="int" >       12       20       32       33       35 </v>
   <v type="int" >       12       20       32       34       35 </v>
   <v type="int" >       12       18       18       20       33 </v>
   <v type="int" >       12       18       20       20       33 </v>
   <v type="int" >       12       20       20       33       35 </v>
   <v type="int" >       12       18       20       33       33 </v>
   <v type="int" >       12       20       33       33       35 </v>
   <v type="int" >       12       20       33       35       35 </v>
   <v type="int" >       12       17       18       19       33 </v>
   <v type="int" >       12       18       19       20       33 </v>
   <v type="int" >       12       19       20       33       35 </v>
   <v type="int" >       12       17       19       32       33 </v>
   <v type="int" >       12       19       32       33       34 </v>
   <v type="int" >       12       19       33       34       35 </v>
   <v type="int" >       12       16       17       17       32 </v>
   <v type="int" >       12       17       17       19       32 </v>
   <v type="int" >       12       17       19       32       34 </v>
   <v type="int" >       12       16       17       31       32 </v>
   <v type="int" >       12       17       31       32       32 </v>
   <v type="int" >       12       17       32       32       34 </v>
   <v type="int" >       12       13       14       16       31 </v>
   <v type="int" >       12       14       16       17       31 </v>
   <v type="int" >       12       14       17       31       32 </v>
   <v type="int" >       12       13       14       28       31 </v>
   <v type="int" >       12       14       28       29       31 </v>
   <v type="int" >       12       14       29       31       32 </v>
   <v type="int" >       12        9       10       13       28 </v>
   <v type="int" >       12       10       13       14       28 </v>
   <v type="int" >       12       10       14       28       29 </v>
   <v type="int" >       12        9       10       24       28 </v>
   <v type="int" >       12       10       24       25       28 </v>
   <v type="int" >       12       10       25       28       29 </v>
   <v type="int" >       12        4        5        9       24 </v>
   <v type="int" >       12        5        9       10       24 </v>
   <v type="int" >       12        5       10       24       25 </v>
   <v type="int" >       12       19       20       21       34 </v>
   <v type="int" >       12       20       21       34       35 </v>
   <v type="int" >       12       21       34       35       36 </v>
   <v type="int" >       24       20       20       21       35 </v>
   <v type="int" >       12       20       21       21       35 </v>
   <v type="int" >       12       21       21       35       36 </v>
   <v type="int" >       12       20       21       35       35 </v>
   <v type="int" >       12       21       35       35       36 </v>
   <v type="int" >       12       21       35       36       36 </v>
   <v type="int" >       12       19       20       20       35 </v>
   <v type="int" >       12       20       21       35       36 </v>
   <v type="int" >       12       19       20       34       35 </v>
   <v type="int" >       12       20       34       35       35 </v>
   <v type="int" >       24       20       35       35       36 </v>
   <v type="int" >       12       17       18       19       34 </v>
   <v type="int" >       12       18       19       20       34 </v>
   <v type="int" >       12       18       20       34       35 </v>
   <v type="int" >       12       17       18       32       34 </v>
   <v type="int" >       12       18       32       33       34 </v>
   <v type="int" >       12       18       33       34       35 </v>
   <v type="int" >       12       14       15       17       32 </v>
   <v type="int" >       12       15       17       18       32 </v>
   <v type="int" >       12       15       18       32       33 </v>
   <v type="int" >       12       14       15       29       32 </v>
   <v type="int" >       12       15       29       30       32 </v>
   <v type="int" >       12       15       30       32       33 </v>
   <v type="int" >       12       10       11       14       29 </v>
   <v type="int" >       12       11       14       15       29 </v>
   <v type="int" >       12       11       15       29       30 </v>
   <v type="int" >       12       10       11       25       29 </v>
   <v type="int" >       12       11       25       26       29 </v>
   <v type="int" >       12       11       26       29       30 </v>
   <v type="int" >       12        5        6       10       25 </v>
   <v type="int" >       12        6       10       11       25 </v>
   <v type="int" >       12        6       11       25       26 </v>
   <v type="int" >       12       21       21       21       36 </v>
   <v type="int" >       12       21       21       36       36 </v>
   <v type="int" >       12       21       36       36       36 </v>
   <v type="int" >       12       20       20       21       36 </v>
   <v type="int" >       12       20       21       21       36 </v>
   <v type="int" >       12       20       21       36       36 </v>
   <v type="int" >       12       20       20       35       36 </v>
   <v type="int" >       12       20       35       36       36 </v>
   <v type="int" >       12       18       18       20       35 </v>
   <v type="int" >       12       18       20       20       35 </v>
   <v type="int" >       12       18       20       35       35 </v>
   <v type="int" >       12       18       18       33       35 </v>
   <v type="int" >       12       18       33       33       35 </v>
   <v type="int" >       12       18       33       35       35 </v>
   <v type="int" >       12       15       15       18       33 </v>
   <v type="int" >       12       15       18       18       33 </v>
   <v type="int" >       12       15       18       33       33 </v>
   <v type="int" >       12       15       15       30       33 </v>
   <v type="int" >       12       15       30       30       33 </v>
   <v type="int" >       12       15       30       33       33 </v>
   <v type="int" >       12       11       11       15       30 </v>
   <v type="int" >       12       11       15       15       30 </v>
   <v type="int" >       12       11       15       30       30 </v>
   <v type="int" >       12       11       11       26       30 </v>
   <v type="int" >       12       11       26       26       30 </v>
   <v type="int" >       12       11       26       30       30 </v>
   <v type="int" >       12        6        6       11       26 </v>
   <v type="int" >       12        6       11       11       26 </v>
   <v type="int" >       12        6       11       26       26 </v>
   <v type="int" >       12       19       20       21       36 </v>
   <v type="int" >       12       19       20       35       36 </v>
   <v type="int" >       12       19       34       35       36 </v>
   <v type="int" >       12       17       18       20       35 </v>
   <v type="int" >       12       17       19       20       35 </v>
   <v type="int" >       12       17       19       34       35 </v>
   <v type="int" >       12       17       18       33       35 </v>
   <v type="int" >       12       17       32       33       35 </v>
   <v type="int" >       12       17       32       34       35 </v>
   <v type="int" >       12       14       15       18       33 </v>
   <v type="int" >       12       14       17       18       33 </v>
   <v type="int" >       12       14       17       32       33 </v>
   <v type="int" >       12       14       15       30       33 </v>
   <v type="int" >       12       14       29       30       33 </v>
   <v type="int" >       12       14       29       32       33 </v>
   <v type="int" >       12       10       11       15       30 </v>
   <v type="int" >       12       10       14       15       30 </v>
   <v type="int" >       12       10       14       29       30 </v>
   <v type="int" >       12       10       11       26       30 </v>
   <v type="int" >       12       10       25       26       30 </v>
   <v type="int" >       12       10       25       29       30 </v>
   <v type="int" >       12        5        6       11       26 </v>
   <v type="int" >       12        5       10       11       26 </v>
   <v type="int" >       12        5       10       25       26 </v>
   <v type="int" >       12       16       17       19       34 </v>
   <v type="int" >       12       16       17       32       34 </v>
   <v type="int" >       12       16       31       32       34 </v>
   <v type="int" >       12       13       14       17       32 </v>
   <v type="int" >       12       13       16       17       32 </v>
   <v type="int" >       12       13       16       31       32 </v>
   <v type="int" >       12       13       14       29       32 </v>
   <v type="int" >       12       13       28       29       32 </v>
   <v type="int" >       12       13       28       31       32 </v>
   <v type="int" >       12        9       10       14       29 </v>
   <v type="int" >       12        9       13       14       29 </v>
   <v type="int" >       12        9       13       28       29 </v>
   <v type="int" >       12        9       10       25       29 </v>
   <v type="int" >       12        9       24       25       29 </v>
   <v type="int" >       12        9       24       28       29 </v>
   <v type="int" >       12        4        5       10       25 </v>
   <v type="int" >       12        4        9       10       25 </v>
   <v type="int" >       12        4        9       24       25 </v>
   <v type="int" >       12       12       13       16       31 </v>
   <v type="int" >       12       12       13       28       31 </v>
   <v type="int" >       12       12       27       28       31 </v>
   <v type="int" >       12        8        9       13       28 </v>
   <v type="int" >       12        8       12       13       28 </v>
   <v type="int" >       12        8       12       27       28 </v>
   <v type="int" >       12        8        9       24       28 </v>
   <v type="int" >       12        8       23       24       28 </v>
   <v type="int" >       12        8       23       27       28 </v>
   <v type="int" >       12        3        4        9       24 </v>
   <v type="int" >       12        3        8        9       24 </v>
   <v type="int" >       12        3        8       23       24 </v>
   <v type="int" >       12        7        8       12       27 </v>
   <v type="int" >       12        7        8       23       27 </v>
   <v type="int" >       12        7       22       23       27 </v>
   <v type="int" >       12        2        3        8       23 </v>
   <v type="int" >       12        2        7        8       23 </v>
   <v type="int" >       12        2        7       22       23 </v>
   <v type="int" >       12        1        2        7       22 </v>
   <v type="int" >       12       22       23       23       27 </v>
   <v type="int" >       12       23       23       27       27 </v>
   <v type="int" >       12       23       27       27       37 </v>
   <v type="int" >       12       23       24       27       28 </v>
   <v type="int" >       12       23       27       27       28 </v>
   <v type="int" >       12       27       27       28       37 </v>
   <v type="int" >       12       24       27       28       28 </v>
   <v type="int" >       24       27       28       28       38 </v>
   <v type="int" >       24       27       28       37       38 </v>
   <v type="int" >       12       24       25       28       29 </v>
   <v type="int" >       12       24       28       28       29 </v>
   <v type="int" >       12       28       28       29       38 </v>
   <v type="int" >       12       25       28       29       29 </v>
   <v type="int" >       12       28       29       29       39 </v>
   <v type="int" >       12       28       29       38       39 </v>
   <v type="int" >       12       25       26       29       30 </v>
   <v type="int" >       12       25       29       29       30 </v>
   <v type="int" >       12       29       29       30       39 </v>
   <v type="int" >       12       26       29       30       30 </v>
   <v type="int" >       12       29       30       30       40 </v>
   <v type="int" >       12       29       30       39       40 </v>
   <v type="int" >        6       26       26       30       30 </v>
   <v type="int" >       12       26       30       30       30 </v>
   <v type="int" >       12       30       30       30       40 </v>
   <v type="int" >        6       30       30       40       40 </v>
   <v type="int" >       12       27       28       31       37 </v>
   <v type="int" >       12       28       31       37       38 </v>
   <v type="int" >       12       31       37       38       41 </v>
   <v type="int" >       12       28       29       32       38 </v>
   <v type="int" >       12       28       31       32       38 </v>
   <v type="int" >       12       31       32       38       41 </v>
   <v type="int" >       12       29       32       38       39 </v>
   <v type="int" >       12       32       38       39       42 </v>
   <v type="int" >       12       32       38       41       42 </v>
   <v type="int" >       12       29       30       33       39 </v>
   <v type="int" >       12       29       32       33       39 </v>
   <v type="int" >       12       32       33       39       42 </v>
   <v type="int" >       12       30       33       39       40 </v>
   <v type="int" >       12       33       39       40       43 </v>
   <v type="int" >       12       33       39       42       43 </v>
   <v type="int" >       12       30       30       33       40 </v>
   <v type="int" >       12       30       33       33       40 </v>
   <v type="int" >       12       33       33       40       43 </v>
   <v type="int" >       12       30       33       40       40 </v>
   <v type="int" >       12       33       40       40       43 </v>
   <v type="int" >       12       33       40       43       43 </v>
   <v type="int" >       12       29       30       32       40 </v>
   <v type="int" >       12       30       32       33       40 </v>
   <v type="int" >       12       32       33       40       43 </v>
   <v type="int" >       12       29       32       39       40 </v>
   <v type="int" >       12       32       39       40       42 </v>
   <v type="int" >       12       32       40       42       43 </v>
   <v type="int" >       12       28       29       31       39 </v>
   <v type="int" >       12       29       31       32       39 </v>
   <v type="int" >       12       31       32       39       42 </v>
   <v type="int" >       12       28       31       38       39 </v>
   <v type="int" >       12       31       38       39       41 </v>
   <v type="int" >       12       31       39       41       42 </v>
   <v type="int" >       12       28       28       31       38 </v>
   <v type="int" >       12       28       31       38       41 </v>
   <v type="int" >       12       28       37       38       38 </v>
   <v type="int" >       12       28       38       38       41 </v>
   <v type="int" >       12       23       24       27       37 </v>
   <v type="int" >       12       24       27       28       37 </v>
   <v type="int" >       12       24       28       37       38 </v>
   <v type="int" >       12       31       32       34       41 </v>
   <v type="int" >       12       32       34       41       42 </v>
   <v type="int" >       12       34       41       42       44 </v>
   <v type="int" >       12       32       33       35       42 </v>
   <v type="int" >       12       32       34       35       42 </v>
   <v type="int" >       12       34       35       42       44 </v>
   <v type="int" >       12       33       35       42       43 </v>
   <v type="int" >       12       35       42       43       45 </v>
   <v type="int" >       12       35       42       44       45 </v>
   <v type="int" >       12       33       33       35       43 </v>
   <v type="int" >       12       33       35       35       43 </v>
   <v type="int" >       12       35       35       43       45 </v>
   <v type="int" >       12       33       35       43       43 </v>
   <v type="int" >       12       35       43       43       45 </v>
   <v type="int" >       12       35       43       45       45 </v>
   <v type="int" >       12       32       33       34       43 </v>
   <v type="int" >       12       33       34       35       43 </v>
   <v type="int" >       12       34       35       43       45 </v>
   <v type="int" >       12       32       34       42       43 </v>
   <v type="int" >       12       34       42       43       44 </v>
   <v type="int" >       12       34       43       44       45 </v>
   <v type="int" >       12       31       32       32       42 </v>
   <v type="int" >       12       32       32       34       42 </v>
   <v type="int" >       12       32       34       42       44 </v>
   <v type="int" >       12       31       32       41       42 </v>
   <v type="int" >       12       32       41       42       42 </v>
   <v type="int" >       12       32       42       42       44 </v>
   <v type="int" >       12       28       29       31       41 </v>
   <v type="int" >       12       29       31       32       41 </v>
   <v type="int" >       12       29       32       41       42 </v>
   <v type="int" >       12       28       29       38       41 </v>
   <v type="int" >       12       29       38       39       41 </v>
   <v type="int" >       12       29       39       41       42 </v>
   <v type="int" >       12       24       25       28       38 </v>
   <v type="int" >       12       25       28       29       38 </v>
   <v type="int" >       12       25       29       38       39 </v>
   <v type="int" >       12       34       35       36       44 </v>
   <v type="int" >       12       35       36       44       45 </v>
   <v type="int" >       12       36       44       45       46 </v>
   <v type="int" >       24       35       35       36       45 </v>
   <v type="int" >       12       35       36       36       45 </v>
   <v type="int" >       12       36       36       45       46 </v>
   <v type="int" >       12       35       36       45       45 </v>
   <v type="int" >       12       36       45       45       46 </v>
   <v type="int" >       12       36       45       46       46 </v>
   <v type="int" >       12       34       35       35       45 </v>
   <v type="int" >       12       35       36       45       46 </v>
   <v type="int" >       12       34       35       44       45 </v>
   <v type="int" >       12       35       44       45       45 </v>
   <v type="int" >       24       35       45       45       46 </v>
   <v type="int" >       12       32       33       34       44 </v>
   <v type="int" >       12       33       34       35       44 </v>
   <v type="int" >       12       33       35       44       45 </v>
   <v type="int" >       12       32       33       42       44 </v>
   <v type="int" >       12       33       42       43       44 </v>
   <v type="int" >       12       33       43       44       45 </v>
   <v type="int" >       12       29       30       32       42 </v>
   <v type="int" >       12       30       32       33       42 </v>
   <v type="int" >       12       30       33       42       43 </v>
   <v type="int" >       12       29       30       39       42 </v>
   <v type="int" >       12       30       39       40       42 </v>
   <v type="int" >       12       30       40       42       43 </v>
   <v type="int" >       12       25       26       29       39 </v>
   <v type="int" >       12       26       29       30       39 </v>
   <v type="int" >       12       26       30       39       40 </v>
   <v type="int" >       12       36       36       36       46 </v>
   <v type="int" >       12       36       36       46       46 </v>
   <v type="int" >       12       36       46       46       46 </v>
   <v type="int" >       12       35       35       36       46 </v>
   <v type="int" >       12       35       36       36       46 </v>
   <v type="int" >       12       35       36       46       46 </v>
   <v type="int" >       12       35       35       45       46 </v>
   <v type="int" >       12       35       45       46       46 </v>
   <v type="int" >       12       33       33       35       45 </v>
   <v type="int" >       12       33       35       35       45 </v>
   <v type="int" >       12       33       35       45       45 </v>
   <v type="int" >       12       33       33       43       45 </v>
   <v type="int" >       12       33       43       43       45 </v>
   <v type="int" >       12       33       43       45       45 </v>
   <v type="int" >       12       30       30       33       43 </v>
   <v type="int" >       12       30       33       33       43 </v>
   <v type="int" >       12       30       33       43       43 </v>
   <v type="int" >       12       30       30       40       43 </v>
   <v type="int" >       12       30       40       40       43 </v>
   <v type="int" >       12       30       40       43       43 </v>
   <v type="int" >       12       26       26       30       40 </v>
   <v type="int" >       12       26       30       30       40 </v>
   <v type="int" >       12       26       30       40       40 </v>
   <v type="int" >       12       34       35       36       46 </v>
   <v type="int" >       12       34       35       45       46 </v>
   <v type="int" >       12       34       44       45       46 </v>
   <v type="int" >       12       32       33       35       45 </v>
   <v type="int" >       12       32       34       35       45 </v>
   <v type="int" >       12       32       34       44       45 </v>
   <v type="int" >       12       32       33       43       45 </v>
   <v type="int" >       12       32       42       43       45 </v>
   <v type="int" >       12       32       42       44       45 </v>
   <v type="int" >       12       29       30       33       43 </v>
   <v type="int" >       12       29       32       33       43 </v>
   <v type="int" >       12       29       32       42       43 </v>
   <v type="int" >       12       29       30       40       43 </v>
   <v type="int" >       12       29       39       40       43 </v>
   <v type="int" >       12       29       39       42       43 </v>
   <v type="int" >       12       25       26       30       40 </v>
   <v type="int" >       12       25       29       30       40 </v>
   <v type="int" >       12       25       29       39       40 </v>
   <v type="int" >       12       31       32       34       44 </v>
   <v type="int" >       12       31       32       42       44 </v>
   <v type="int" >       12       31       41       42       44 </v>
   <v type="int" >       12       28       29       32       42 </v>
   <v type="int" >       12       28       31       32       42 </v>
   <v type="int" >       12       28       31       41       42 </v>
   <v type="int" >       12       28       29       39       42 </v>
   <v type="int" >       12       28       38       39       42 </v>
   <v type="int" >       12       28       38       41       42 </v>
   <v type="int" >       12       24       25       29       39 </v>
   <v type="int" >       12       24       28       29       39 </v>
   <v type="int" >       12       24       28       38       39 </v>
   <v type="int" >       12       27       28       31       41 </v>
   <v type="int" >       12       27       28       38       41 </v>
   <v type="int" >       12       27       37       38       41 </v>
   <v type="int" >       12       23       24       28       38 </v>
   <v type="int" >       12       23       27       28       38 </v>
   <v type="int" >       12       23       27       37       38 </v>
   <v type="int" >       12       22       23       27       37 </v>
   <v type="int" >       12       37       38       38       41 </v>
   <v type="int" >       12       38       38       41       41 </v>
   <v type="int" >       12       38       41       41       47 </v>
   <v type="int" >       12       38       39       41       42 </v>
   <v type="int" >       12       38       41       41       42 </v>
   <v type="int" >       12       41       41       42       47 </v>
   <v type="int" >       12       39       41       42       42 </v>
   <v type="int" >       24       41       42       42       48 </v>
   <v type="int" >       24       41       42       47       48 </v>
   <v type="int" >       12       39       40       42       43 </v>
   <v type="int" >       12       39       42       42       43 </v>
   <v type="int" >       12       42       42       43       48 </v>
   <v type="int" >       12       40       42       43       43 </v>
   <v type="int" >       12       42       43       43       49 </v>
   <v type="int" >       12       42       43       48       49 </v>
   <v type="int" >        6       40       40       43       43 </v>
   <v type="int" >       12       40       43       43       43 </v>
   <v type="int" >       12       43       43       43       49 </v>
   <v type="int" >        6       43       43       49       49 </v>
   <v type="int" >       12       41       42       44       47 </v>
   <v type="int" >       12       42       44       47       48 </v>
   <v type="int" >       12       44       47       48       50 </v>
   <v type="int" >       12       42       43       45       48 </v>
   <v type="int" >       12       42       44       45       48 </v>
   <v type="int" >       12       44       45       48       50 </v>
   <v type="int" >       12       43       45       48       49 </v>
   <v type="int" >       12       45       48       49       51 </v>
   <v type="int" >       12       45       48       50       51 </v>
   <v type="int" >       12       43       43       45       49 </v>
   <v type="int" >       12       43       45       45       49 </v>
   <v type="int" >       12       45       45       49       51 </v>
   <v type="int" >       12       43       45       49       49 </v>
   <v type="int" >       12       45       49       49       51 </v>
   <v type="int" >       12       45       49       51       51 </v>
   <v type="int" >       12       42       43       44       49 </v>
   <v type="int" >       12       43       44       45       49 </v>
   <v type="int" >       12       44       45       49       51 </v>
   <v type="int" >       12       42       44       48       49 </v>
   <v type="int" >       12       44       48       49       50 </v>
   <v type="int" >       12       44       49       50       51 </v>
   <v type="int" >       12       42       42       44       48 </v>
   <v type="int" >       12       42       44       48       50 </v>
   <v type="int" >       12       42       47       48       48 </v>
   <v type="int" >       12       42       48       48       50 </v>
   <v type="int" >       12       38       39       41       47 </v>
   <v type="int" >       12       39       41       42       47 </v>
   <v type="int" >       12       39       42       47       48 </v>
   <v type="int" >       12       44       45       46       50 </v>
   <v type="int" >       12       45       46       50       51 </v>
   <v type="int" >       12       46       50       51       52 </v>
   <v type="int" >       24       45       45       46       51 </v>
   <v type="int" >       12       45       46       46       51 </v>
   <v type="int" >       12       46       46       51       52 </v>
   <v type="int" >       12       45       46       51       51 </v>
   <v type="int" >       12       46       51       51       52 </v>
   <v type="int" >       12       46       51       52       52 </v>
   <v type="int" >       12       44       45       45       51 </v>
   <v type="int" >       12       45       46       51       52 </v>
   <v type="int" >       12       44       45       50       51 </v>
   <v type="int" >       12       45       50       51       51 </v>
   <v type="int" >       24       45       51       51       52 </v>
   <v type="int" >       12       42       43       44       50 </v>
   <v type="int" >       12       43       44       45       50 </v>
   <v type="int" >       12       43       45       50       51 </v>
   <v type="int" >       12       42       43       48       50 </v>
   <v type="int" >       12       43       48       49       50 </v>
   <v type="int" >       12       43       49       50       51 </v>
   <v type="int" >       12       39       40       42       48 </v>
   <v type="int" >       12       40       42       43       48 </v>
   <v type="int" >       12       40       43       48       49 </v>
   <v type="int" >       12       46       46       46       52 </v>
   <v type="int" >       12       46       46       52       52 </v>
   <v type="int" >       12       46       52       52       52 </v>
   <v type="int" >       12       45       45       46       52 </v>
   <v type="int" >       12       45       46       46       52 </v>
   <v type="int" >       12       45       46       52       52 </v>
   <v type="int" >       12       45       45       51       52 </v>
   <v type="int" >       12       45       51       52       52 </v>
   <v type="int" >       12       43       43       45       51 </v>
   <v type="int" >       12       43       45       45       51 </v>
   <v type="int" >       12       43       45       51       51 </v>
   <v type="int" >       12       43       43       49       51 </v>
   <v type="int" >       12       43       49       49       51 </v>
   <v type="int" >       12       43       49       51       51 </v>
   <v type="int" >       12       40       40       43       49 </v>
   <v type="int" >       12       40       43       43       49 </v>
   <v type="int" >       12       40       43       49       49 </v>
   <v type="int" >       12       44       45       46       52 </v>
   <v type="int" >       12       44       45       51       52 </v>
   <v type="int" >       12       44       50       51       52 </v>
   <v type="int" >       12       42       43       45       51 </v>
   <v type="int" >       12       42       44       45       51 </v>
   <v type="int" >       12       42       44       50       51 </v>
   <v type="int" >       12       42       43       49       51 </v>
   <v type="int" >       12       42       48       49       51 </v>
   <v type="int" >       12       42       48       50       51 </v>
   <v type="int" >       12       39       40       43       49 </v>
   <v type="int" >       12       39       42       43       49 </v>
   <v type="int" >       12       39       42       48       49 </v>
   <v type="int" >       12       41       42       44       50 </v>
   <v type="int" >       12       41       42       48       50 </v>
   <v type="int" >       12       41       47       48       50 </v>
   <v type="int" >       12       38       39       42       48 </v>
   <v type="int" >       12       38       41       42       48 </v>
   <v type="int" >       12       38       41       47       48 </v>
   <v type="int" >       12       37       38       41       47 </v>
   <v type="int" >       12       47       48       48       50 </v>
   <v type="int" >       12       48       48       50       50 </v>
   <v type="int" >       12       48       50       50       53 </v>
   <v type="int" >       12       48       49       50       51 </v>
   <v type="int" >       12       48       50       50       51 </v>
   <v type="int" >       12       50       50       51       53 </v>
   <v type="int" >       12       49       50       51       51 </v>
   <v type="int" >       24       50       51       51       54 </v>
   <v type="int" >       24       50       51       53       54 </v>
   <v type="int" >        6       49       49       51       51 </v>
   <v type="int" >       12       49       51       51       51 </v>
   <v type="int" >       12       51       51       51       54 </v>
   <v type="int" >        6       51       51       54       54 </v>
   <v type="int" >       12       50       51       52       53 </v>
   <v type="int" >       12       51       52       53       54 </v>
   <v type="int" >       12       52       53       54       55 </v>
   <v type="int" >       24       51       51       52       54 </v>
   <v type="int" >       12       51       52       52       54 </v>
   <v type="int" >       12       52       52       54       55 </v>
   <v type="int" >       12       51       52       54       54 </v>
   <v type="int" >       12       52       54       54       55 </v>
   <v type="int" >       12       52       54       55       55 </v>
   <v type="int" >       12       51       52       54       55 </v>
   <v type="int" >       12       51       53       54       54 </v>
   <v type="int" >       24       51       54       54       55 </v>
   <v type="int" >       12       48       49       50       53 </v>
   <v type="int" >       12       49       50       51       53 </v>
   <v type="int" >       12       49       51       53       54 </v>
   <v type="int" >       12       52       52       52       55 </v>
   <v type="int" >       12       52       52       55       55 </v>
   <v type="int" >       12       52       55       55       55 </v>
   <v type="int" >       12       51       51       52       55 </v>
   <v type="int" >       12       51       52       52       55 </v>
   <v type="int" >       12       51       52       55       55 </v>
   <v type="int" >       12       51       51       54       55 </v>
   <v type="int" >       12       51       54       55       55 </v>
   <v type="int" >       12       49       49       51       54 </v>
   <v type="int" >       12       49       51       51       54 </v>
   <v type="int" >       12       49       51       54       54 </v>
   <v type="int" >       12       50       51       52       55 </v>
   <v type="int" >       12       50       51       54       55 </v>
   <v type="int" >       12       50       53       54       55 </v>
   <v type="int" >       12       48       49       51       54 </v>
   <v type="int" >       12       48       50       51       54 </v>
   <v type="int" >       12       48       50       53       54 </v>
   <v type="int" >       12       47       48       50       53 </v>
   <v type="int" >       12       53       54       54       55 </v>
   <v type="int" >       18       54       54       55       55 </v>
   <v type="int" >       24       54       55       55       56 </v>
   <v type="int" >       12       54       55       55       55 </v>
   <v type="int" >       24       55       55       55       56 </v>
   <v type="int" >       18       55       55       56       56 </v>
   <v type="int" >       12       55       56       56       56 </v>
   <v type="int" >       12       54       54       55       56 </v>
   <v type="int" >       12       54       55       56       56 </v>
   <v type="int" >       12       53       54       55       56 </v>
   <v type="int" >        6       56       56       56       56 </v>
  </varray>
  <i name="volumeweight">      0.00012522 </i>
 </kpoints>
 <parameters>
  <separator name="general" >
   <i type="string" name="SYSTEM">unknown system</i>
   <i type="logical" name="LCOMPAT"> F  </i>
  </separator>
  <separator name="electronic" >
   <i type="string" name="PREC">accura</i>
   <i name="ENMAX">    920.00000000</i>
   <i name="ENAUG">    578.34200000</i>
   <i name="EDIFF">      0.00000010</i>
   <i type="int" name="IALGO">    38</i>
   <i type="int" name="IWAVPR">    10</i>
   <i type="int" name="NBANDS">    24</i>
   <i name="NELECT">     28.00000000</i>
   <i type="int" name="TURBO">     0</i>
   <i type="int" name="IRESTART">     0</i>
   <i type="int" name="NREBOOT">     0</i>
   <i type="int" name="NMIN">     0</i>
   <i name="EREF">      0.00000000</i>
   <separator name="electronic smearing" >
    <i type="int" name="ISMEAR">    -5</i>
    <i name="SIGMA">      0.05000000</i>
    <i name="KSPACING">      0.50000000</i>
    <i type="logical" name="KGAMMA"> T  </i>
   </separator>
   <separator name="electronic projectors" >
    <i type="logical" name="LREAL"> T  </i>
    <v name="ROPT">     -0.00025000</v>
    <i type="int" name="LMAXPAW">  -100</i>
    <i type="int" name="LMAXMIX">     2</i>
    <i type="logical" name="NLSPLINE"> F  </i>
   </separator>
   <separator name="electronic startup" >
    <i type="int" name="ISTART">     0</i>
    <i type="int" name="ICHARG">     2</i>
    <i type="int" name="INIWAV">     1</i>
   </separator>
   <separator name="electronic spin" >
    <i type="int" name="ISPIN">     2</i>
    <i type="logical" name="LNONCOLLINEAR"> F  </i>
    <v name="MAGMOM">      5.00000000      5.00000000</v>
    <i name="NUPDOWN">     -1.00000000</i>
    <i type="logical" name="LSORBIT"> F  </i>
    <v name="SAXIS">      0.00000000      0.00000000      1.00000000</v>
    <i type="logical" name="LSPIRAL"> F  </i>
    <v name="QSPIRAL">      0.00000000      0.00000000      0.00000000</v>
    <i type="logical" name="LZEROZ"> F  </i>
   </separator>
   <separator name="electronic exchange-correlation" >
    <i type="logical" name="LASPH"> F  </i>
    <i type="logical" name="LMETAGGA"> F  </i>
   </separator>
   <separator name="electronic convergence" >
    <i type="int" name="NELM">   100</i>
    <i type="int" name="NELMDL">    -5</i>
    <i type="int" name="NELMIN">     2</i>
    <i name="ENINI">    920.00000000</i>
    <separator name="electronic convergence detail" >
     <i type="logical" name="LDIAG"> T  </i>
     <i type="logical" name="LSUBROT"> F  </i>
     <i name="WEIMIN">      0.00000000</i>
     <i name="EBREAK">      0.00000000</i>
     <i name="DEPER">      0.30000000</i>
     <i type="int" name="NRMM">     4</i>
     <i name="TIME">      0.40000000</i>
    </separator>
   </separator>
   <separator name="electronic mixer" >
    <i name="AMIX">      0.40000000</i>
    <i name="BMIX">      1.00000000</i>
    <i name="AMIN">      0.10000000</i>
    <i name="AMIX_MAG">      1.60000000</i>
    <i name="BMIX_MAG">      1.00000000</i>
    <separator name="electronic mixer details" >
     <i type="int" name="IMIX">     4</i>
     <i type="logical" name="MIXFIRST"> F  </i>
     <i type="int" name="MAXMIX">   -45</i>
     <i name="WC">    100.00000000</i>
     <i type="int" name="INIMIX">     1</i>
     <i type="int" name="MIXPRE">     1</i>
     <i type="int" name="MREMOVE">     5</i>
    </separator>
   </separator>
   <separator name="electronic dipolcorrection" >
    <i type="logical" name="LDIPOL"> F  </i>
    <i type="logical" name="LMONO"> F  </i>
    <i type="int" name="IDIPOL">     0</i>
    <i name="EPSILON">      1.00000000</i>
    <v name="DIPOL">   -100.00000000   -100.00000000   -100.00000000</v>
    <i name="EFIELD">      0.00000000</i>
   </separator>
  </separator>
  <separator name="grids" >
   <i type="int" name="NGX">    28</i>
   <i type="int" name="NGY">    28</i>
   <i type="int" name="NGZ">    28</i>
   <i type="int" name="NGXF">    56</i>
   <i type="int" name="NGYF">    56</i>
   <i type="int" name="NGZF">    56</i>
   <i type="logical" name="ADDGRID"> F  </i>
  </separator>
  <separator name="ionic" >
   <i type="int" name="NSW">     0</i>
   <i type="int" name="IBRION">    -1</i>
   <i type="int" name="MDALGO">     0</i>
   <i type="int" name="ISIF">     3</i>
   <i name="PSTRESS">      0.00000000</i>
   <i name="EDIFFG">      0.00000100</i>
   <i type="int" name="NFREE">     0</i>
   <i name="POTIM">      0.50000000</i>
   <i name="SMASS">     -3.00000000</i>
   <i name="SCALEE">      1.00000000</i>
  </separator>
  <separator name="ionic md" >
   <i name="TEBEG">      0.00010000</i>
   <i name="TEEND">      0.00010000</i>
   <i type="int" name="NBLOCK">     1</i>
   <i type="int" name="KBLOCK">     1</i>
   <i type="int" name="NPACO">   256</i>
   <i name="APACO">     16.00000000</i>
  </separator>
  <separator name="symmetry" >
   <i type="int" name="ISYM">     2</i>
   <i name="SYMPREC">      0.00001000</i>
  </separator>
  <separator name="dos" >
   <i type="int" name="LORBIT">    11</i>
   <v name="RWIGS">     -1.00000000</v>
   <i type="int" name="NEDOS">   301</i>
   <i name="EMIN">     10.00000000</i>
   <i name="EMAX">    -10.00000000</i>
   <i name="EFERMI">      0.00000000</i>
  </separator>
  <separator name="writing" >
   <i type="int" name="NWRITE">     2</i>
   <i type="logical" name="LWAVE"> F  </i>
   <i type="logical" name="LDOWNSAMPLE"> F  </i>
   <i type="logical" name="LCHARG"> F  </i>
   <i type="logical" name="LPARD"> F  </i>
   <i type="logical" name="LVTOT"> F  </i>
   <i type="logical" name="LVHAR"> F  </i>
   <i type="logical" name="LELF"> F  </i>
   <i type="logical" name="LOPTICS"> F  </i>
   <v name="STM">      0.00000000      0.00000000      0.00000000      0.00000000      0.00000000      0.00000000      0.00000000</v>
  </separator>
  <separator name="performance" >
   <i type="int" name="NPAR">     6</i>
   <i type="int" name="NSIM">     4</i>
   <i type="int" name="NBLK">    -1</i>
   <i type="logical" name="LPLANE"> T  </i>
   <i type="logical" name="LSCALAPACK"> T  </i>
   <i type="logical" name="LSCAAWARE"> F  </i>
   <i type="logical" name="LSCALU"> F  </i>
   <i type="logical" name="LASYNC"> F  </i>
   <i type="logical" name="LORBITALREAL"> F  </i>
  </separator>
  <separator name="miscellaneous" >
   <i type="int" name="IDIOT">     3</i>
   <i type="int" name="ISPECIAL">     0</i>
   <i type="logical" name="LMUSIC"> F  </i>
   <v name="POMASS">     55.84700000</v>
   <v name="DARWINR">      0.00000000</v>
   <v name="DARWINV">      1.00000000</v>
   <i type="logical" name="LCORR"> T  </i>
  </separator>
  <i type="logical" name="GGA_COMPAT"> T  </i>
  <i type="logical" name="LBERRY"> F  </i>
  <i type="int" name="ICORELEVEL">     0</i>
  <i type="logical" name="LDAU"> F  </i>
  <i type="int" name="I_CONSTRAINED_M">     0</i>
  <separator name="electronic exchange-correlation" >
   <i type="string" name="GGA">--</i>
   <i type="int" name="VOSKOWN">     0</i>
   <i type="logical" name="LHFCALC"> F  </i>
   <i type="string" name="PRECFOCK"></i>
   <i type="logical" name="LSYMGRAD"> F  </i>
   <i type="logical" name="LHFONE"> F  </i>
   <i type="logical" name="LRHFCALC"> F  </i>
   <i type="logical" name="LTHOMAS"> F  </i>
   <i type="logical" name="LMODELHF"> F  </i>
   <i name="ENCUT4O">     -1.00000000</i>
   <i type="int" name="EXXOEP">     0</i>
   <i type="int" name="FOURORBIT">     0</i>
   <i name="AEXX">      0.00000000</i>
   <i name="HFALPHA">      0.00000000</i>
   <i name="MCALPHA">      0.00000000</i>
   <i name="ALDAX">      1.00000000</i>
   <i name="AGGAX">      1.00000000</i>
   <i name="ALDAC">      1.00000000</i>
   <i name="AGGAC">      1.00000000</i>
   <i type="int" name="NKREDX">     1</i>
   <i type="int" name="NKREDY">     1</i>
   <i type="int" name="NKREDZ">     1</i>
   <i type="logical" name="SHIFTRED"> F  </i>
   <i type="logical" name="ODDONLY"> F  </i>
   <i type="logical" name="EVENONLY"> F  </i>
   <i type="int" name="LMAXFOCK">     0</i>
   <i type="int" name="NMAXFOCKAE">     0</i>
   <i type="logical" name="LFOCKAEDFT"> F  </i>
   <i name="HFSCREEN">      0.00000000</i>
   <i name="HFSCREENC">      0.00000000</i>
   <i type="int" name="NBANDSGWLOW">     0</i>
  </separator>
  <separator name="vdW DFT" >
   <i type="logical" name="LUSE_VDW"> F  </i>
   <i name="Zab_VDW">     -0.84910000</i>
   <i name="PARAM1">      0.12340000</i>
   <i name="PARAM2">      1.00000000</i>
   <i name="PARAM3">      0.00000000</i>
  </separator>
  <separator name="model GW" >
   <i type="int" name="MODEL_GW">     0</i>
   <i name="MODEL_EPS0">      6.87226868</i>
   <i name="MODEL_ALPHA">      1.00000000</i>
  </separator>
  <separator name="linear response parameters" >
   <i type="logical" name="LEPSILON"> F  </i>
   <i type="logical" name="LRPA"> F  </i>
   <i type="logical" name="LNABLA"> F  </i>
   <i type="logical" name="LVEL"> F  </i>
   <i type="int" name="KINTER">     0</i>
   <i name="CSHIFT">      0.10000000</i>
   <i name="OMEGAMAX">     -1.00000000</i>
   <i name="DEG_THRESHOLD">      0.00200000</i>
   <i name="RTIME">     -0.10000000</i>
   <i name="WPLASMAI">      0.00000000</i>
   <v name="DFIELD">      0.00000000      0.00000000      0.00000000</v>
   <v name="WPLASMA">      0.00000000      0.00000000      0.00000000      0.00000000      0.00000000      0.00000000      0.00000000      0.00000000      0.00000000</v>
  </separator>
  <separator name="orbital magnetization" >
   <i type="logical" name="NUCIND"> F  </i>
   <v name="MAGPOS">      0.00000000      0.00000000      0.00000000</v>
   <i type="logical" name="LNICSALL"> T  </i>
   <i type="logical" name="ORBITALMAG"> F  </i>
   <i type="logical" name="LMAGBLOCH"> F  </i>
   <i type="logical" name="LCHIMAG"> F  </i>
   <i type="logical" name="LGAUGE"> T  </i>
   <i type="int" name="MAGATOM">     0</i>
   <v name="MAGDIPOL">      0.00000000      0.00000000      0.00000000</v>
   <v name="AVECCONST">      0.00000000      0.00000000      0.00000000</v>
  </separator>
  <separator name="response functions" >
   <i type="logical" name="LADDER"> F  </i>
   <i type="logical" name="LRPAFORCE"> F  </i>
   <i type="logical" name="LFXC"> F  </i>
   <i type="logical" name="LHARTREE"> T  </i>
   <i type="int" name="IBSE">     0</i>
   <v type="int" name="KPOINT">    -1     0     0     0</v>
   <i type="logical" name="LTCTE"> F  </i>
   <i type="logical" name="LTETE"> F  </i>
   <i type="logical" name="LTRIPLET"> F  </i>
   <i type="logical" name="LFXCEPS"> F  </i>
   <i type="logical" name="LFXHEG"> F  </i>
   <i type="int" name="NATURALO">     2</i>
   <i type="logical" name="L2ORDER"> F  </i>
   <i type="logical" name="LMP2LT"> F  </i>
   <i type="logical" name="LUSEW"> F  </i>
   <i name="ENCUTGW">     -2.00000000</i>
   <i name="ENCUTGWSOFT">     -2.00000000</i>
   <i name="ENCUTLF">     -1.00000000</i>
   <i type="int" name="LMAXMP2">    -1</i>
   <i name="SCISSOR">      0.00000000</i>
   <i type="int" name="NOMEGA">     0</i>
   <i type="int" name="NOMEGAR">     0</i>
   <i type="int" name="NBANDSGW">    -1</i>
   <i type="int" name="NBANDSO">    -1</i>
   <i type="int" name="NBANDSV">    -1</i>
   <i type="int" name="NELM">   100</i>
   <i type="int" name="NELMHF">     1</i>
   <i type="int" name="DIM">     3</i>
   <i type="int" name="ANTIRES">     0</i>
   <i name="OMEGAMAX">    -30.00000000</i>
   <i name="OMEGAMIN">    -30.00000000</i>
   <i name="OMEGATL">   -200.00000000</i>
   <i type="int" name="OMEGAGRID">   140</i>
   <i name="CSHIFT">     -0.10000000</i>
   <i type="logical" name="SELFENERGY"> F  </i>
   <i type="logical" name="LSPECTRAL"> F  </i>
   <i type="logical" name="LSPECTRALGW"> F  </i>
   <i type="logical" name="LSINGLES"> F  </i>
   <i type="logical" name="LFERMIGW"> F  </i>
   <i type="logical" name="ODDONLYGW"> F  </i>
   <i type="logical" name="EVENONLYGW"> F  </i>
   <i type="int" name="NKREDLFX">     1</i>
   <i type="int" name="NKREDLFY">     1</i>
   <i type="int" name="NKREDLFZ">     1</i>
   <i type="int" name="MAXMEM">  2800</i>
   <i type="int" name="TELESCOPE">     0</i>
   <i type="int" name="TAUPAR">     1</i>
   <i type="int" name="OMEGAPAR">    -1</i>
   <i name="LAMBDA">      1.00000000</i>
  </separator>
  <separator name="External order field" >
   <i name="OFIELD_KAPPA">      0.00000000</i>
   <v name="OFIELD_K">      0.00000000      0.00000000      0.00000000</v>
   <i name="OFIELD_Q6_NEAR">      0.00000000</i>
   <i name="OFIELD_Q6_FAR">      0.00000000</i>
   <i name="OFIELD_A">      0.00000000</i>
  </separator>
 </parameters>
 <atominfo>
  <atoms>       2 </atoms>
  <types>       1 </types>
  <array name="atoms" >
   <dimension dim="1">ion</dimension>
   <field type="string">element</field>
   <field type="int">atomtype</field>
   <set>
    <rc><c>Fe</c><c>   1</c></rc>
    <rc><c>Fe</c><c>   1</c></rc>
   </set>
  </array>
  <array name="atomtypes" >
   <dimension dim="1">type</dimension>
   <field type="int">atomspertype</field>
   <field type="string">element</field>
   <field>mass</field>
   <field>valence</field>
   <field type="string">pseudopotential</field>
   <set>
    <rc><c>   2</c><c>Fe</c><c>     55.84700000</c><c>     14.00000000</c><c>  PAW_PBE Fe_pv 02Aug2007               </c></rc>
   </set>
  </array>
 </atominfo>
 <structure name="initialpos" >
  <crystal>
   <varray name="basis" >
    <v>       2.84005200       0.00000000       0.00000000 </v>
    <v>       0.00000000       2.84005200       0.00000000 </v>
    <v>       0.00000000       0.00000000       2.84005200 </v>
   </varray>
   <i name="volume">     22.90756226 </i>
   <varray name="rec_basis" >
    <v>       0.35210623       0.00000000       0.00000000 </v>
    <v>       0.00000000       0.35210623       0.00000000 </v>
    <v>       0.00000000       0.00000000       0.35210623 </v>
   </varray>
  </crystal>
  <varray name="positions" >
   <v>       0.00000000       0.00000000       0.00000000 </v>
   <v>       0.50000000       0.50000000       0.50000000 </v>
  </varray>
 </structure>
 <calculation>
  <scstep>
   <time name="dav">    0.86    0.88</time>
   <time name="total">    0.94    0.96</time>
   <energy>
    <i name="alphaZ">    218.87048721 </i>
    <i name="ewald">  -3616.56080017 </i>
    <i name="hartreedc">  -1162.86386254 </i>
    <i name="XCdc">    147.54621443 </i>
    <i name="pawpsdc">   3997.93860218 </i>
    <i name="pawaedc">  -4177.34792201 </i>
    <i name="eentropy">      0.00000000 </i>
    <i name="bandstr">    -55.78983646 </i>
    <i name="atom">   4914.84579160 </i>
    <i name="e_fr_energy">    266.63867424 </i>
    <i name="e_wo_entrp">    266.63867424 </i>
    <i name="e_0_energy">    266.63867424 </i>
   </energy>
  </scstep>
  <scstep>
   <time name="dav">    0.88    0.89</time>
   <time name="total">    0.94    0.95</time>
   <energy>
    <i name="e_fr_energy">     -8.21657604 </i>
    <i name="e_wo_entrp">     -8.21657604 </i>
    <i name="e_0_energy">     -8.21657604 </i>
   </energy>
  </scstep>
  <scstep>
   <time name="dav">    0.95    0.95</time>
   <time name="total">    1.00    1.01</time>
   <energy>
    <i name="e_fr_energy">    -16.20204914 </i>
    <i name="e_wo_entrp">    -16.20204914 </i>
    <i name="e_0_energy">    -16.20204914 </i>
   </energy>
  </scstep>
  <scstep>
   <time name="dav">    1.02    1.02</time>
   <time name="total">    1.08    1.08</time>
   <energy>
    <i name="e_fr_energy">    -16.27288221 </i>
    <i name="e_wo_entrp">    -16.27288221 </i>
    <i name="e_0_energy">    -16.27288221 </i>
   </energy>
  </scstep>
  <scstep>
   <time name="dav">    0.92    0.93</time>
   <time name="total">    1.01    1.02</time>
   <energy>
    <i name="e_fr_energy">    -16.27418414 </i>
    <i name="e_wo_entrp">    -16.27418414 </i>
    <i name="e_0_energy">    -16.27418414 </i>
   </energy>
  </scstep>
  <scstep>
   <time name="dav">    0.86    0.86</time>
   <time name="total">    0.97    0.97</time>
   <energy>
    <i name="e_fr_energy">    -16.45824979 </i>
    <i name="e_wo_entrp">    -16.45824979 </i>
    <i name="e_0_energy">    -16.45824979 </i>
   </energy>
  </scstep>
  <scstep>
   <time name="dav">    0.88    0.88</time>
   <time name="total">    0.98    0.98</time>
   <energy>
    <i name="e_fr_energy">    -16.51191573 </i>
    <i name="e_wo_entrp">    -16.51191573 </i>
    <i name="e_0_energy">    -16.51191573 </i>
   </energy>
  </scstep>
  <scstep>
   <time name="dav">    0.96    0.97</time>
   <time name="total">    1.07    1.07</time>
   <energy>
    <i name="e_fr_energy">    -16.52077103 </i>
    <i name="e_wo_entrp">    -16.52077103 </i>
    <i name="e_0_energy">    -16.52077103 </i>
   </energy>
  </scstep>
  <scstep>
   <time name="dav">    0.92    0.92</time>
   <time name="total">    1.03    1.03</time>
   <energy>
    <i name="e_fr_energy">    -16.51294060 </i>
    <i name="e_wo_entrp">    -16.51294060 </i>
    <i name="e_0_energy">    -16.51294060 </i>
   </energy>
  </scstep>
  <scstep>
   <time name="dav">    0.90    0.90</time>
   <time name="total">    1.00    1.00</time>
   <energy>
    <i name="e_fr_energy">    -16.51248267 </i>
    <i name="e_wo_entrp">    -16.51248267 </i>
    <i name="e_0_energy">    -16.51248267 </i>
   </energy>
  </scstep>
  <scstep>
   <time name="dav">    0.93    0.93</time>
   <time name="total">    1.03    1.03</time>
   <energy>
    <i name="e_fr_energy">    -16.51257663 </i>
    <i name="e_wo_entrp">    -16.51257663 </i>
    <i name="e_0_energy">    -16.51257663 </i>
   </energy>
  </scstep>
  <scstep>
   <time name="dav">    0.99    0.99</time>
   <time name="total">    1.09    1.10</time>
   <energy>
    <i name="e_fr_energy">    -16.51260916 </i>
    <i name="e_wo_entrp">    -16.51260916 </i>
    <i name="e_0_energy">    -16.51260916 </i>
   </energy>
  </scstep>
  <scstep>
   <time name="dav">    0.90    0.90</time>
   <time name="total">    1.00    1.00</time>
   <energy>
    <i name="e_fr_energy">    -16.51258449 </i>
    <i name="e_wo_entrp">    -16.51258449 </i>
    <i name="e_0_energy">    -16.51258449 </i>
   </energy>
  </scstep>
  <scstep>
   <time name="dav">    0.93    0.93</time>
   <time name="total">    1.03    1.03</time>
   <energy>
    <i name="e_fr_energy">    -16.51258726 </i>
    <i name="e_wo_entrp">    -16.51258726 </i>
    <i name="e_0_energy">    -16.51258726 </i>
   </energy>
  </scstep>
  <scstep>
   <time name="dav">    0.61    0.62</time>
   <time name="total">    0.72    0.72</time>
   <energy>
    <i name="e_fr_energy">    -16.51258834 </i>
    <i name="e_wo_entrp">    -16.51258834 </i>
    <i name="e_0_energy">    -16.51258834 </i>
   </energy>
  </scstep>
  <scstep>
   <time name="dav">    0.60    0.60</time>
   <time name="total">    0.71    0.71</time>
   <energy>
    <i name="e_fr_energy">    -16.51258867 </i>
    <i name="e_wo_entrp">    -16.51258867 </i>
    <i name="e_0_energy">    -16.51258867 </i>
   </energy>
  </scstep>
  <scstep>
   <time name="dav">    0.58    0.58</time>
   <time name="total">    0.69    0.69</time>
   <energy>
    <i name="e_fr_energy">    -16.51258849 </i>
    <i name="e_wo_entrp">    -16.51258849 </i>
    <i name="e_0_energy">    -16.51258849 </i>
   </energy>
  </scstep>
  <scstep>
   <time name="dav">    0.58    0.58</time>
   <time name="total">    0.66    0.66</time>
   <energy>
    <i name="alphaZ">    218.87048721 </i>
    <i name="ewald">  -3616.56080017 </i>
    <i name="hartreedc">  -1089.66817684 </i>
    <i name="XCdc">    140.85566944 </i>
    <i name="pawpsdc">   4374.40821853 </i>
    <i name="pawaedc">  -4559.78142631 </i>
    <i name="eentropy">      0.00000000 </i>
    <i name="bandstr">   -399.48235197 </i>
    <i name="atom">   4914.84579160 </i>
    <i name="e_fr_energy">    -16.51258851 </i>
    <i name="e_wo_entrp">    -16.51258851 </i>
    <i name="e_0_energy">    -16.51258851 </i>
   </energy>
  </scstep>
  <structure>
   <crystal>
    <varray name="basis" >
     <v>       2.84005200       0.00000000       0.00000000 </v>
     <v>       0.00000000       2.84005200       0.00000000 </v>
     <v>       0.00000000       0.00000000       2.84005200 </v>
    </varray>
    <i name="volume">     22.90756226 </i>
    <varray name="rec_basis" >
     <v>       0.35210623       0.00000000       0.00000000 </v>
     <v>       0.00000000       0.35210623       0.00000000 </v>
     <v>       0.00000000       0.00000000       0.35210623 </v>
    </varray>
   </crystal>
   <varray name="positions" >
    <v>       0.00000000       0.00000000       0.00000000 </v>
    <v>       0.50000000       0.50000000       0.50000000 </v>
   </varray>
  </structure>
  <varray name="forces" >
   <v>       0.00000000       0.00000000      -0.00000000 </v>
   <v>      -0.00000000      -0.00000000       0.00000000 </v>
  </varray>
  <varray name="stress" >
   <v>     -16.69563885       0.00000000      -0.00000000 </v>
   <v>      -0.00000000     -16.69563885      -0.00000000 </v>
   <v>       0.00000000      -0.00000000     -16.69563885 </v>
  </varray>
  <energy>
   <i name="e_fr_energy">    -16.51258851 </i>
   <i name="e_wo_entrp">    -16.51258851 </i>
   <i name="e_0_energy">      0.00000000 </i>
  </energy>
  <time name="totalsc">   17.71   17.77</time>
  <eigenvalues>
   <array>
    <dimension dim="1">band</dimension>
    <dimension dim="2">kpoint</dimension>
    <dimension dim="3">spin</dimension>
    <field>eigene</field>
    <field>occ</field>
    <set>
     <set comment="spin 1">
      <set comment="kpoint 1">
       <r>  -44.5656    1.0000 </r>
       <r>  -44.5656    1.0000 </r>
       <r>  -44.5656    1.0000 </r>
       <r>  -44.2791    1.0000 </r>
       <r>  -44.2791    1.0000 </r>
       <r>  -44.2791    1.0000 </r>
       <r>    1.2372    1.0000 </r>
       <r>    4.8644    1.0000 </r>
       <r>    4.8644    1.0000 </r>
       <r>    7.3310    1.0000 </r>
       <r>    7.3310    1.0000 </r>
       <r>    7.3310    1.0000 </r>
       <r>    8.5922    1.0000 </r>
       <r>    8.5922    1.0000 </r>
       <r>    9.7207    0.5255 </r>
       <r>    9.7207    0.0544 </r>
       <r>    9.7207   -0.0009 </r>
       <r>   19.4705    0.0000 </r>
       <r>   19.4705    0.0000 </r>
       <r>   19.4705    0.0000 </r>
       <r>   25.3227    0.0000 </r>
       <r>   25.3227    0.0000 </r>
       <r>   30.2091    0.0000 </r>
       <r>   33.9456    0.0000 </r>
      </set>
      <set comment="kpoint 2">
       <r>  -44.5647    1.0000 </r>
       <r>  -44.5595    1.0000 </r>
       <r>  -44.5595    1.0000 </r>
       <r>  -44.2899    1.0000 </r>
       <r>  -44.2845    1.0000 </r>
       <r>  -44.2845    1.0000 </r>
       <r>    1.4076    1.0000 </r>
       <r>    4.9366    1.0000 </r>
       <r>    4.9385    1.0000 </r>
       <r>    7.3298    1.0000 </r>
       <r>    7.3298    1.0000 </r>
       <r>    7.3770    1.0000 </r>
       <r>    8.5159    1.0000 </r>
       <r>    8.6221    1.0000 </r>
       <r>    9.5795    0.9586 </r>
       <r>    9.5795    0.9474 </r>
       <r>    9.6700    0.0054 </r>
       <r>   18.3391    0.0000 </r>
       <r>   19.7941    0.0000 </r>
       <r>   19.7941    0.0000 </r>
       <r>   25.3683    0.0000 </r>
       <r>   26.1127    0.0000 </r>
       <r>   30.7992    0.0000 </r>
       <r>   33.0491    0.0000 </r>
      </set>
      <set comment="kpoint 3">
       <r>  -44.5610    1.0000 </r>
       <r>  -44.5416    1.0000 </r>
       <r>  -44.5416    1.0000 </r>
       <r>  -44.3204    1.0000 </r>
       <r>  -44.3006    1.0000 </r>
       <r>  -44.3006    1.0000 </r>
       <r>    1.9061    1.0000 </r>
       <r>    5.1346    1.0000 </r>
       <r>    5.1485    1.0000 </r>
       <r>    7.3348    1.0000 </r>
       <r>    7.3348    1.0000 </r>
       <r>    7.5120    1.0000 </r>
       <r>    8.2927    1.0000 </r>
       <r>    8.7082    1.0000 </r>
       <r>    9.2162    1.0000 </r>
       <r>    9.2162    1.0000 </r>
       <r>    9.5224    0.8908 </r>
       <r>   16.1518    0.0000 </r>
       <r>   20.7012    0.0000 </r>
       <r>   20.7012    0.0000 </r>
       <r>   25.5105    0.0000 </r>
       <r>   27.0761    0.0000 </r>
       <r>   31.4152    0.0000 </r>
       <r>   32.8064    0.0000 </r>
      </set>
      <set comment="kpoint 4">
       <r>  -44.5517    1.0000 </r>
       <r>  -44.5138    1.0000 </r>
       <r>  -44.5138    1.0000 </r>
       <r>  -44.3647    1.0000 </r>
       <r>  -44.3261    1.0000 </r>
       <r>  -44.3261    1.0000 </r>
       <r>    2.6891    1.0000 </r>
       <r>    5.3704    1.0000 </r>
       <r>    5.4859    1.0000 </r>
       <r>    7.3692    1.0000 </r>
       <r>    7.3692    1.0000 </r>
       <r>    7.7263    1.0000 </r>
       <r>    7.9394    1.0000 </r>
       <r>    8.7550    1.0000 </r>
       <r>    8.7550    1.0000 </r>
       <r>    8.8479    1.0000 </r>
       <r>    9.2914    1.0893 </r>
       <r>   13.8920    0.0000 </r>
       <r>   22.0573    0.0000 </r>
       <r>   22.0573    0.0000 </r>
       <r>   25.7655    0.0000 </r>
       <r>   27.6015    0.0000 </r>
       <r>   29.8527    0.0000 </r>
       <r>   31.8192    0.0000 </r>
      </set>
      <set comment="kpoint 5">
       <r>  -44.5335    1.0000 </r>
       <r>  -44.4784    1.0000 </r>
       <r>  -44.4784    1.0000 </r>
       <r>  -44.4151    1.0000 </r>
       <r>  -44.3593    1.0000 </r>
       <r>  -44.3593    1.0000 </r>
       <r>    3.6620    1.0000 </r>
       <r>    5.4969    1.0000 </r>
       <r>    5.9248    1.0000 </r>
       <r>    7.4624    1.0000 </r>
       <r>    7.4624    1.0000 </r>
       <r>    7.4847    1.0000 </r>
       <r>    8.0048    1.0000 </r>
       <r>    8.3022    1.0000 </r>
       <r>    8.3022    1.0000 </r>
       <r>    8.9976    1.0000 </r>
       <r>    9.0696    1.0000 </r>
       <r>   11.8958    0.0000 </r>
       <r>   23.7372    0.0000 </r>
       <r>   23.7372    0.0000 </r>
       <r>   26.1594    0.0000 </r>
       <r>   28.0873    0.0000 </r>
       <r>   28.5431    0.0000 </r>
       <r>   29.8228    0.0000 </r>
      </set>
      <set comment="kpoint 6">
       <r>  -44.5041    1.0000 </r>
       <r>  -44.4636    1.0000 </r>
       <r>  -44.4386    1.0000 </r>
       <r>  -44.4386    1.0000 </r>
       <r>  -44.3978    1.0000 </r>
       <r>  -44.3978    1.0000 </r>
       <r>    4.6322    1.0000 </r>
       <r>    5.2988    1.0000 </r>
       <r>    6.4323    1.0000 </r>
       <r>    6.9673    1.0000 </r>
       <r>    7.6412    1.0000 </r>
       <r>    7.6412    1.0000 </r>
       <r>    7.9218    1.0000 </r>
       <r>    7.9218    1.0000 </r>
       <r>    8.3266    1.0000 </r>
       <r>    8.6667    1.0000 </r>
       <r>    9.4983    1.0000 </r>
       <r>   10.3885    0.0000 </r>
       <r>   25.6460    0.0000 </r>
       <r>   25.6460    0.0000 </r>
       <r>   26.7273    0.0000 </r>
       <r>   27.5091    0.0000 </r>
       <r>   27.7055    0.0000 </r>
       <r>   27.7055    0.0000 </r>
      </set>
      <set comment="kpoint 7">
       <r>  -44.5744    1.0000 </r>
       <r>  -44.5536    1.0000 </r>
[...]
       </set>
       <set comment="band 12">
        <r>  0.0000  0.0119  0.0391  0.0239  0.1244  0.0760  0.0624  0.0379  0.0173 </r>
        <r>  0.0000  0.0119  0.0391  0.0239  0.1244  0.0760  0.0624  0.0379  0.0173 </r>
       </set>
       <set comment="band 13">
        <r>  0.0000  0.0009  0.0001  0.0004  0.0088  0.0319  0.0434  0.0726  0.3298 </r>
        <r>  0.0000  0.0009  0.0001  0.0004  0.0088  0.0319  0.0434  0.0726  0.3298 </r>
       </set>
       <set comment="band 14">
        <r>  0.0000  0.0000  0.0009  0.0006  0.0668  0.0436  0.3298  0.0029  0.0434 </r>
        <r>  0.0000  0.0000  0.0009  0.0006  0.0668  0.0436  0.3298  0.0029  0.0434 </r>
       </set>
       <set comment="band 15">
        <r>  0.0000  0.0000  0.0000  0.0000  0.0120  0.0191  0.2553  0.0010  0.2015 </r>
        <r>  0.0000  0.0000  0.0000  0.0000  0.0120  0.0191  0.2553  0.0010  0.2015 </r>
       </set>
       <set comment="band 16">
        <r>  0.0000  0.0000  0.0000  0.0000  0.0095  0.0023  0.2015  0.0204  0.2553 </r>
        <r>  0.0000  0.0000  0.0000  0.0000  0.0095  0.0023  0.2015  0.0204  0.2553 </r>
       </set>
       <set comment="band 17">
        <r>  0.0283  0.0226  0.0226  0.0226  0.1154  0.1154  0.0000  0.1154  0.0000 </r>
        <r>  0.0283  0.0226  0.0226  0.0226  0.1154  0.1154  0.0000  0.1154  0.0000 </r>
       </set>
       <set comment="band 18">
        <r>  0.0000  0.0968  0.0133  0.0629  0.0138  0.0650  0.0051  0.1000  0.0394 </r>
        <r>  0.0000  0.0968  0.0133  0.0629  0.0138  0.0650  0.0051  0.1000  0.0394 </r>
       </set>
       <set comment="band 19">
        <r>  0.0000  0.0186  0.1020  0.0524  0.1054  0.0542  0.0394  0.0192  0.0051 </r>
        <r>  0.0000  0.0186  0.1020  0.0524  0.1054  0.0542  0.0394  0.0192  0.0051 </r>
       </set>
       <set comment="band 20">
        <r>  0.2675  0.0001  0.0001  0.0001  0.0369  0.0369  0.0000  0.0369  0.0000 </r>
        <r>  0.2675  0.0001  0.0001  0.0001  0.0369  0.0369  0.0000  0.0369  0.0000 </r>
       </set>
       <set comment="band 21">
        <r>  0.0000  0.0501  0.1114  0.0125  0.1033  0.0116  0.0180  0.0464  0.0007 </r>
        <r>  0.0000  0.0501  0.1114  0.0125  0.1033  0.0116  0.0180  0.0464  0.0007 </r>
       </set>
       <set comment="band 22">
        <r>  0.0000  0.0659  0.0046  0.1035  0.0042  0.0959  0.0007  0.0611  0.0180 </r>
        <r>  0.0000  0.0659  0.0046  0.1035  0.0042  0.0959  0.0007  0.0611  0.0180 </r>
       </set>
       <set comment="band 23">
        <r>  0.2590  0.0473  0.0473  0.0473  0.0010  0.0010  0.0000  0.0010  0.0000 </r>
        <r>  0.2590  0.0473  0.0473  0.0473  0.0010  0.0010  0.0000  0.0010  0.0000 </r>
       </set>
       <set comment="band 24">
        <r>  0.0580  0.0780  0.0780  0.0780  0.0286  0.0286  0.0000  0.0286  0.0000 </r>
        <r>  0.0580  0.0780  0.0780  0.0780  0.0286  0.0286  0.0000  0.0286  0.0000 </r>
       </set>
      </set>
      <set comment="kpoint 54">
       <set comment="band 1">
        <r>  0.0000  0.1317  0.1317  0.2326  0.0000  0.0000  0.0000  0.0000  0.0000 </r>
        <r>  0.0000  0.1317  0.1317  0.2326  0.0000  0.0000  0.0000  0.0000  0.0000 </r>
       </set>
       <set comment="band 2">
        <r>  0.0000  0.1044  0.1044  0.2874  0.0000  0.0001  0.0000  0.0000  0.0000 </r>
        <r>  0.0000  0.1044  0.1044  0.2874  0.0000  0.0001  0.0000  0.0000  0.0000 </r>
       </set>
       <set comment="band 3">
        <r>  0.0000  0.2486  0.2486  0.0000  0.0001  0.0000  0.0000  0.0001  0.0000 </r>
        <r>  0.0000  0.2486  0.2486  0.0000  0.0001  0.0000  0.0000  0.0001  0.0000 </r>
       </set>
       <set comment="band 4">
        <r>  0.0000  0.2489  0.2489  0.0000  0.0001  0.0000  0.0000  0.0001  0.0000 </r>
        <r>  0.0000  0.2489  0.2489  0.0000  0.0001  0.0000  0.0000  0.0001  0.0000 </r>
       </set>
       <set comment="band 5">
        <r>  0.0000  0.1169  0.1169  0.2647  0.0000  0.0001  0.0000  0.0000  0.0000 </r>
        <r>  0.0000  0.1169  0.1169  0.2647  0.0000  0.0001  0.0000  0.0000  0.0000 </r>
       </set>
       <set comment="band 6">
        <r>  0.0000  0.1444  0.1444  0.2098  0.0000  0.0000  0.0000  0.0000  0.0000 </r>
        <r>  0.0000  0.1444  0.1444  0.2098  0.0000  0.0000  0.0000  0.0000  0.0000 </r>
       </set>
       <set comment="band 7">
        <r>  0.0365  0.0251  0.0251  0.0068  0.1373  0.0065  0.0029  0.1373  0.0086 </r>
        <r>  0.0365  0.0251  0.0251  0.0068  0.1373  0.0065  0.0029  0.1373  0.0086 </r>
       </set>
       <set comment="band 8">
        <r>  0.0230  0.0114  0.0114  0.0002  0.1533  0.0564  0.0022  0.1533  0.0066 </r>
        <r>  0.0230  0.0114  0.0114  0.0002  0.1533  0.0564  0.0022  0.1533  0.0066 </r>
       </set>
       <set comment="band 9">
        <r>  0.0000  0.0203  0.0203  0.0000  0.1712  0.0000  0.0271  0.1712  0.0090 </r>
        <r>  0.0000  0.0203  0.0203  0.0000  0.1712  0.0000  0.0271  0.1712  0.0090 </r>
       </set>
       <set comment="band 10">
        <r>  0.0000  0.0286  0.0286  0.0000  0.1478  0.0000  0.0402  0.1478  0.0134 </r>
        <r>  0.0000  0.0286  0.0286  0.0000  0.1478  0.0000  0.0402  0.1478  0.0134 </r>
       </set>
       <set comment="band 11">
        <r>  0.0070  0.0033  0.0033  0.0557  0.0032  0.3297  0.0000  0.0032  0.0001 </r>
        <r>  0.0070  0.0033  0.0033  0.0557  0.0032  0.3297  0.0000  0.0032  0.0001 </r>
       </set>
       <set comment="band 12">
        <r>  0.0020  0.0095  0.0095  0.0631  0.0051  0.2749  0.0059  0.0051  0.0178 </r>
        <r>  0.0020  0.0095  0.0095  0.0631  0.0051  0.2749  0.0059  0.0051  0.0178 </r>
       </set>
       <set comment="band 13">
        <r>  0.0000  0.0002  0.0002  0.0000  0.0376  0.0000  0.3095  0.0376  0.1032 </r>
        <r>  0.0000  0.0002  0.0002  0.0000  0.0376  0.0000  0.3095  0.0376  0.1032 </r>
       </set>
       <set comment="band 14">
        <r>  0.0000  0.0001  0.0001  0.0000  0.0249  0.0000  0.3292  0.0249  0.1097 </r>
        <r>  0.0000  0.0001  0.0001  0.0000  0.0249  0.0000  0.3292  0.0249  0.1097 </r>
       </set>
       <set comment="band 15">
        <r>  0.0003  0.0001  0.0001  0.0004  0.0141  0.0218  0.1098  0.0141  0.3295 </r>
        <r>  0.0003  0.0001  0.0001  0.0004  0.0141  0.0218  0.1098  0.0141  0.3295 </r>
       </set>
       <set comment="band 16">
        <r>  0.0003  0.0000  0.0000  0.0000  0.0089  0.0001  0.1181  0.0089  0.3544 </r>
        <r>  0.0003  0.0000  0.0000  0.0000  0.0089  0.0001  0.1181  0.0089  0.3544 </r>
       </set>
       <set comment="band 17">
        <r>  0.0310  0.0239  0.0239  0.0458  0.0880  0.1195  0.0011  0.0880  0.0034 </r>
        <r>  0.0310  0.0239  0.0239  0.0458  0.0880  0.1195  0.0011  0.0880  0.0034 </r>
       </set>
       <set comment="band 18">
        <r>  0.0201  0.0263  0.0263  0.0812  0.0605  0.1105  0.0052  0.0605  0.0157 </r>
        <r>  0.0201  0.0263  0.0263  0.0812  0.0605  0.1105  0.0052  0.0605  0.0157 </r>
       </set>
       <set comment="band 19">
        <r>  0.0000  0.0890  0.0890  0.0000  0.0877  0.0000  0.0242  0.0877  0.0081 </r>
        <r>  0.0000  0.0890  0.0890  0.0000  0.0877  0.0000  0.0242  0.0877  0.0081 </r>
       </set>
       <set comment="band 20">
        <r>  0.2319  0.0006  0.0006  0.0364  0.0257  0.0531  0.0000  0.0257  0.0000 </r>
        <r>  0.2319  0.0006  0.0006  0.0364  0.0257  0.0531  0.0000  0.0257  0.0000 </r>
       </set>
       <set comment="band 21">
        <r>  0.0000  0.0892  0.0892  0.0000  0.0849  0.0000  0.0181  0.0849  0.0060 </r>
        <r>  0.0000  0.0892  0.0892  0.0000  0.0849  0.0000  0.0181  0.0849  0.0060 </r>
       </set>
       <set comment="band 22">
        <r>  0.1585  0.0001  0.0001  0.1006  0.0246  0.0579  0.0005  0.0246  0.0015 </r>
        <r>  0.1585  0.0001  0.0001  0.1006  0.0246  0.0579  0.0005  0.0246  0.0015 </r>
       </set>
       <set comment="band 23">
        <r>  0.1301  0.0803  0.0803  0.0169  0.0130  0.0404  0.0009  0.0130  0.0027 </r>
        <r>  0.1301  0.0803  0.0803  0.0169  0.0130  0.0404  0.0009  0.0130  0.0027 </r>
       </set>
       <set comment="band 24">
        <r>  0.0824  0.0803  0.0803  0.0477  0.0231  0.0363  0.0002  0.0231  0.0006 </r>
        <r>  0.0824  0.0803  0.0803  0.0477  0.0231  0.0363  0.0002  0.0231  0.0006 </r>
       </set>
      </set>
      <set comment="kpoint 55">
       <set comment="band 1">
        <r>  0.0000  0.2214  0.0535  0.2214  0.0000  0.0001  0.0000  0.0001  0.0000 </r>
        <r>  0.0000  0.2214  0.0535  0.2214  0.0000  0.0001  0.0000  0.0001  0.0000 </r>
       </set>
       <set comment="band 2">
        <r>  0.0000  0.2482  0.0000  0.2482  0.0000  0.0001  0.0000  0.0001  0.0000 </r>
        <r>  0.0000  0.2482  0.0000  0.2482  0.0000  0.0001  0.0000  0.0001  0.0000 </r>
       </set>
       <set comment="band 3">
        <r>  0.0000  0.0373  0.4227  0.0373  0.0001  0.0000  0.0000  0.0000  0.0000 </r>
        <r>  0.0000  0.0373  0.4227  0.0373  0.0001  0.0000  0.0000  0.0000  0.0000 </r>
       </set>
       <set comment="band 4">
        <r>  0.0000  0.0268  0.4440  0.0268  0.0001  0.0000  0.0000  0.0000  0.0000 </r>
        <r>  0.0000  0.0268  0.4440  0.0268  0.0001  0.0000  0.0000  0.0000  0.0000 </r>
       </set>
       <set comment="band 5">
        <r>  0.0000  0.2491  0.0000  0.2491  0.0000  0.0001  0.0000  0.0001  0.0000 </r>
        <r>  0.0000  0.2491  0.0000  0.2491  0.0000  0.0001  0.0000  0.0001  0.0000 </r>
       </set>
       <set comment="band 6">
        <r>  0.0000  0.2118  0.0748  0.2118  0.0000  0.0000  0.0000  0.0000  0.0000 </r>
        <r>  0.0000  0.2118  0.0748  0.2118  0.0000  0.0000  0.0000  0.0000  0.0000 </r>
       </set>
       <set comment="band 7">
        <r>  0.0162  0.0011  0.0315  0.0011  0.2607  0.0428  0.0171  0.0428  0.0000 </r>
        <r>  0.0162  0.0011  0.0315  0.0011  0.2607  0.0428  0.0171  0.0428  0.0000 </r>
       </set>
       <set comment="band 8">
        <r>  0.0191  0.0019  0.0461  0.0019  0.3056  0.0007  0.0240  0.0007  0.0000 </r>
        <r>  0.0191  0.0019  0.0461  0.0019  0.3056  0.0007  0.0240  0.0007  0.0000 </r>
       </set>
       <set comment="band 9">
        <r>  0.0000  0.0150  0.0000  0.0150  0.0000  0.1984  0.0000  0.1984  0.0029 </r>
        <r>  0.0000  0.0150  0.0000  0.0150  0.0000  0.1984  0.0000  0.1984  0.0029 </r>
       </set>
       <set comment="band 10">
        <r>  0.0002  0.0142  0.0149  0.0142  0.0530  0.1536  0.0154  0.1536  0.0000 </r>
        <r>  0.0002  0.0142  0.0149  0.0142  0.0530  0.1536  0.0154  0.1536  0.0000 </r>
       </set>
       <set comment="band 11">
        <r>  0.0043  0.0431  0.0000  0.0431  0.0098  0.1434  0.0028  0.1434  0.0000 </r>
        <r>  0.0043  0.0431  0.0000  0.0431  0.0098  0.1434  0.0028  0.1434  0.0000 </r>
       </set>
       <set comment="band 12">
        <r>  0.0000  0.0450  0.0000  0.0450  0.0000  0.1446  0.0000  0.1446  0.0103 </r>
        <r>  0.0000  0.0450  0.0000  0.0450  0.0000  0.1446  0.0000  0.1446  0.0103 </r>
       </set>
       <set comment="band 13">
        <r>  0.0002  0.0000  0.0002  0.0000  0.0426  0.0021  0.4427  0.0021  0.0000 </r>
        <r>  0.0002  0.0000  0.0002  0.0000  0.0426  0.0021  0.4427  0.0021  0.0000 </r>
       </set>
       <set comment="band 14">
        <r>  0.0002  0.0000  0.0001  0.0000  0.0368  0.0007  0.4516  0.0007  0.0000 </r>
        <r>  0.0002  0.0000  0.0001  0.0000  0.0368  0.0007  0.4516  0.0007  0.0000 </r>
       </set>
       <set comment="band 15">
        <r>  0.0000  0.0001  0.0000  0.0001  0.0000  0.0078  0.0000  0.0078  0.4753 </r>
        <r>  0.0000  0.0001  0.0000  0.0001  0.0000  0.0078  0.0000  0.0078  0.4753 </r>
       </set>
       <set comment="band 16">
        <r>  0.0000  0.0000  0.0000  0.0000  0.0000  0.0020  0.0000  0.0020  0.4872 </r>
        <r>  0.0000  0.0000  0.0000  0.0000  0.0000  0.0020  0.0000  0.0020  0.4872 </r>
       </set>
       <set comment="band 17">
        <r>  0.0245  0.0540  0.0148  0.0540  0.0478  0.1056  0.0010  0.1056  0.0000 </r>
        <r>  0.0245  0.0540  0.0148  0.0540  0.0478  0.1056  0.0010  0.1056  0.0000 </r>
       </set>
       <set comment="band 18">
        <r>  0.0000  0.0805  0.0000  0.0805  0.0000  0.1138  0.0000  0.1138  0.0065 </r>
        <r>  0.0000  0.0805  0.0000  0.0805  0.0000  0.1138  0.0000  0.1138  0.0065 </r>
       </set>
       <set comment="band 19">
        <r>  0.0904  0.0059  0.0880  0.0059  0.1799  0.0021  0.0177  0.0021  0.0000 </r>
        <r>  0.0904  0.0059  0.0880  0.0059  0.1799  0.0021  0.0177  0.0021  0.0000 </r>
       </set>
       <set comment="band 20">
        <r>  0.0828  0.0256  0.0653  0.0256  0.1393  0.0151  0.0137  0.0151  0.0000 </r>
        <r>  0.0828  0.0256  0.0653  0.0256  0.1393  0.0151  0.0137  0.0151  0.0000 </r>
       </set>
       <set comment="band 21">
        <r>  0.1403  0.0398  0.0256  0.0398  0.0001  0.0603  0.0024  0.0603  0.0000 </r>
        <r>  0.1403  0.0398  0.0256  0.0398  0.0001  0.0603  0.0024  0.0603  0.0000 </r>
       </set>
       <set comment="band 22">
        <r>  0.0000  0.0877  0.0000  0.0877  0.0000  0.0882  0.0000  0.0882  0.0022 </r>
        <r>  0.0000  0.0877  0.0000  0.0877  0.0000  0.0882  0.0000  0.0882  0.0022 </r>
       </set>
       <set comment="band 23">
        <r>  0.2390  0.0021  0.1201  0.0021  0.0181  0.0009  0.0037  0.0009  0.0000 </r>
        <r>  0.2390  0.0021  0.1201  0.0021  0.0181  0.0009  0.0037  0.0009  0.0000 </r>
       </set>
       <set comment="band 24">
        <r>  0.1212  0.0441  0.0875  0.0441  0.0209  0.0277  0.0013  0.0277  0.0000 </r>
        <r>  0.1212  0.0441  0.0875  0.0441  0.0209  0.0277  0.0013  0.0277  0.0000 </r>
       </set>
      </set>
      <set comment="kpoint 56">
       <set comment="band 1">
        <r>  0.0000  0.1656  0.1656  0.1656  0.0000  0.0000  0.0000  0.0000  0.0000 </r>
        <r>  0.0000  0.1656  0.1656  0.1656  0.0000  0.0000  0.0000  0.0000  0.0000 </r>
       </set>
       <set comment="band 2">
        <r>  0.0000  0.2833  0.1481  0.0656  0.0000  0.0000  0.0000  0.0001  0.0000 </r>
        <r>  0.0000  0.2833  0.1481  0.0656  0.0000  0.0000  0.0000  0.0001  0.0000 </r>
       </set>
       <set comment="band 3">
        <r>  0.0000  0.0480  0.1832  0.2658  0.0001  0.0001  0.0000  0.0000  0.0000 </r>
        <r>  0.0000  0.0480  0.1832  0.2658  0.0001  0.0001  0.0000  0.0000  0.0000 </r>
       </set>
       <set comment="band 4">
        <r>  0.0000  0.2736  0.1697  0.0542  0.0001  0.0000  0.0000  0.0001  0.0000 </r>
        <r>  0.0000  0.2736  0.1697  0.0542  0.0001  0.0000  0.0000  0.0001  0.0000 </r>
       </set>
       <set comment="band 5">
        <r>  0.0000  0.0581  0.1620  0.2775  0.0001  0.0001  0.0000  0.0000  0.0000 </r>
        <r>  0.0000  0.0581  0.1620  0.2775  0.0001  0.0001  0.0000  0.0000  0.0000 </r>
       </set>
       <set comment="band 6">
        <r>  0.0000  0.1660  0.1660  0.1660  0.0000  0.0000  0.0000  0.0000  0.0000 </r>
        <r>  0.0000  0.1660  0.1660  0.1660  0.0000  0.0000  0.0000  0.0000  0.0000 </r>
       </set>
       <set comment="band 7">
        <r>  0.0047  0.0123  0.0123  0.0123  0.1264  0.1264  0.0000  0.1264  0.0000 </r>
        <r>  0.0047  0.0123  0.0123  0.0123  0.1264  0.1264  0.0000  0.1264  0.0000 </r>
       </set>
       <set comment="band 8">
        <r>  0.0000  0.0097  0.0300  0.0068  0.2366  0.0533  0.0042  0.0765  0.0001 </r>
        <r>  0.0000  0.0097  0.0300  0.0068  0.2366  0.0533  0.0042  0.0765  0.0001 </r>
       </set>
       <set comment="band 9">
        <r>  0.0000  0.0213  0.0010  0.0242  0.0077  0.1910  0.0001  0.1678  0.0042 </r>
        <r>  0.0000  0.0213  0.0010  0.0242  0.0077  0.1910  0.0001  0.1678  0.0042 </r>
       </set>
       <set comment="band 10">
        <r>  0.0072  0.0255  0.0255  0.0255  0.1032  0.1032  0.0000  0.1032  0.0000 </r>
        <r>  0.0072  0.0255  0.0255  0.0255  0.1032  0.1032  0.0000  0.1032  0.0000 </r>
       </set>
       <set comment="band 11">
        <r>  0.0000  0.0331  0.0007  0.0326  0.0037  0.1623  0.0001  0.1650  0.0065 </r>
        <r>  0.0000  0.0331  0.0007  0.0326  0.0037  0.1623  0.0001  0.1650  0.0065 </r>
       </set>
       <set comment="band 12">
        <r>  0.0000  0.0112  0.0435  0.0117  0.2170  0.0583  0.0065  0.0557  0.0001 </r>
        <r>  0.0000  0.0112  0.0435  0.0117  0.2170  0.0583  0.0065  0.0557  0.0001 </r>
       </set>
       <set comment="band 13">
        <r>  0.0000  0.0000  0.0000  0.0000  0.0036  0.0053  0.2696  0.0008  0.2119 </r>
        <r>  0.0000  0.0000  0.0000  0.0000  0.0036  0.0053  0.2696  0.0008  0.2119 </r>
       </set>
       <set comment="band 14">
        <r>  0.0000  0.0000  0.0000  0.0000  0.0028  0.0012  0.2119  0.0057  0.2696 </r>
        <r>  0.0000  0.0000  0.0000  0.0000  0.0028  0.0012  0.2119  0.0057  0.2696 </r>
       </set>
       <set comment="band 15">
        <r>  0.0000  0.0000  0.0000  0.0000  0.0031  0.0024  0.3587  0.0008  0.1264 </r>
        <r>  0.0000  0.0000  0.0000  0.0000  0.0031  0.0024  0.3587  0.0008  0.1264 </r>
       </set>
       <set comment="band 16">
        <r>  0.0000  0.0000  0.0000  0.0000  0.0011  0.0018  0.1264  0.0034  0.3587 </r>
        <r>  0.0000  0.0000  0.0000  0.0000  0.0011  0.0018  0.1264  0.0034  0.3587 </r>
       </set>
       <set comment="band 17">
        <r>  0.0259  0.0465  0.0465  0.0465  0.0765  0.0765  0.0000  0.0765  0.0000 </r>
        <r>  0.0259  0.0465  0.0465  0.0465  0.0765  0.0765  0.0000  0.0765  0.0000 </r>
       </set>
       <set comment="band 18">
        <r>  0.0000  0.0037  0.0766  0.0919  0.0926  0.1111  0.0028  0.0045  0.0014 </r>
        <r>  0.0000  0.0037  0.0766  0.0919  0.0926  0.1111  0.0028  0.0045  0.0014 </r>
       </set>
       <set comment="band 19">
        <r>  0.0000  0.1111  0.0382  0.0229  0.0462  0.0277  0.0014  0.1343  0.0028 </r>
        <r>  0.0000  0.1111  0.0382  0.0229  0.0462  0.0277  0.0014  0.1343  0.0028 </r>
       </set>
       <set comment="band 20">
        <r>  0.1770  0.0222  0.0222  0.0222  0.0440  0.0440  0.0000  0.0440  0.0000 </r>
        <r>  0.1770  0.0222  0.0222  0.0222  0.0440  0.0440  0.0000  0.0440  0.0000 </r>
       </set>
       <set comment="band 21">
        <r>  0.0000  0.0965  0.0796  0.0008  0.0865  0.0009  0.0020  0.1049  0.0010 </r>
        <r>  0.0000  0.0965  0.0796  0.0008  0.0865  0.0009  0.0020  0.1049  0.0010 </r>
       </set>
       <set comment="band 22">
        <r>  0.0000  0.0214  0.0383  0.1171  0.0417  0.1273  0.0010  0.0233  0.0020 </r>
        <r>  0.0000  0.0214  0.0383  0.1171  0.0417  0.1273  0.0010  0.0233  0.0020 </r>
       </set>
       <set comment="band 23">
        <r>  0.3441  0.0118  0.0118  0.0118  0.0008  0.0008  0.0000  0.0008  0.0000 </r>
        <r>  0.3441  0.0118  0.0118  0.0118  0.0008  0.0008  0.0000  0.0008  0.0000 </r>
       </set>
       <set comment="band 24">
        <r>  0.1951  0.0394  0.0394  0.0394  0.0207  0.0207  0.0000  0.0207  0.0000 </r>
        <r>  0.1951  0.0394  0.0394  0.0394  0.0207  0.0207  0.0000  0.0207  0.0000 </r>
       </set>
      </set>
     </set>
    </set>
   </array>
  </projected>
 </calculation>
 <structure name="finalpos" >
  <crystal>
   <varray name="basis" >
    <v>       2.84005200       0.00000000       0.00000000 </v>
    <v>       0.00000000       2.84005200       0.00000000 </v>
    <v>       0.00000000       0.00000000       2.84005200 </v>
   </varray>
   <i name="volume">     22.90756226 </i>
   <varray name="rec_basis" >
    <v>       0.35210623       0.00000000       0.00000000 </v>
    <v>       0.00000000       0.35210623       0.00000000 </v>
    <v>       0.00000000       0.00000000       0.35210623 </v>
   </varray>
  </crystal>
  <varray name="positions" >
   <v>       0.00000000       0.00000000       0.00000000 </v>
   <v>       0.50000000       0.50000000       0.50000000 </v>
  </varray>
 </structure>
</modeling>
