 vasp.5.4.4.18Apr17-6-g9f103f2a35 (build Apr 28 2018 00:24:27) complex          
  
 executed on             LinuxIFC date 2021.03.19  23:29:05
 running on    8 total cores
 distrk:  each k-point on    8 cores,    1 groups
 distr:  one band on NCORES_PER_BAND=   4 cores,    2 groups


--------------------------------------------------------------------------------------------------------


 INCAR:
 POTCAR:    PAW_PBE Co 02Aug2007                  
 POTCAR:    PAW_PBE Co 02Aug2007                  
   SHA256 =  0e690c60710354995174544f52f9f2c30879afabeffe3b3fbd4001cb294e56d4 Co
   COPYR  = (c) Copyright 02Aug2007 Georg Kresse                                
   COPYR  = This file is part of the software VASP. Any use, copying, and all ot
   COPYR  = If you do not have a valid VASP license, you may not use, copy or di
   VRHFIN =Co: d8 s1                                                            
   LEXCH  = PE                                                                  
   EATOM  =   813.3670 eV,   59.7808 Ry                                         
                                                                                
   TITEL  = PAW_PBE Co 02Aug2007                                                
   LULTRA =        F    use ultrasoft PP ?                                      
   IUNSCR =        1    unscreen: 0-lin 1-nonlin 2-no                           
   RPACOR =    2.000    partial core radius                                     
   POMASS =   58.933; ZVAL   =    9.000    mass and valenz                      
   RCORE  =    2.300    outmost cutoff radius                                   
   RWIGS  =    2.460; RWIGS  =    1.302    wigner-seitz radius (au A)           
   ENMAX  =  267.968; ENMIN  =  200.976 eV                                      
   RCLOC  =    1.203    cutoff for local pot                                    
   LCOR   =        T    correct aug charges                                     
   LPAW   =        T    paw PP                                                  
   EAUG   =  477.818                                                            
   DEXC   =    0.000                                                            
   RMAX   =    2.360    core radius for proj-oper                               
   RAUG   =    1.300    factor for augmentation sphere                          
   RDEP   =    2.393    radius for radial grids                                 
   RDEPT  =    1.864    core radius for aug-charge                              
                                                                                
   Atomic configuration                                                         
    9 entries                                                                   
     n  l   j            E        occ.                                          
     1  0  0.50     -7587.6674   2.0000                                         
     2  0  0.50      -893.6084   2.0000                                         
     2  1  1.50      -764.5805   6.0000                                         
     3  0  0.50       -97.5973   2.0000                                         
     3  1  1.50       -60.9648   6.0000                                         
     3  2  2.50        -4.2382   8.0000                                         
     4  0  0.50        -4.3746   1.0000                                         
     4  1  1.50        -4.0817   0.0000                                         
     4  3  2.50        -1.3606   0.0000                                         
   Description                                                                  
     l       E           TYP  RCUT    TYP  RCUT                                 
     2     -4.2382362     23  2.300                                             
     2     -5.5988188     23  2.300                                             
     0     -4.3745797     23  2.300                                             
     0      5.7660125     23  2.300                                             
     1     -2.7211652     23  2.300                                             
     1     16.9860234     23  2.300                                             
  local pseudopotential read in
  partial core-charges read in
  partial kinetic energy density read in
  atomic valenz-charges read in
  non local Contribution for L=           2  read in
    real space projection operators read in
  non local Contribution for L=           2  read in
    real space projection operators read in
  non local Contribution for L=           0  read in
    real space projection operators read in
  non local Contribution for L=           0  read in
    real space projection operators read in
  non local Contribution for L=           1  read in
    real space projection operators read in
  non local Contribution for L=           1  read in
    real space projection operators read in
    PAW grid and wavefunctions read in
 
   number of l-projection  operators is LMAX  =           6
   number of lm-projection operators is LMMAX =          18
 

 ----------------------------------------------------------------------------- 
|                                                                             |
|  ADVICE TO THIS USER RUNNING 'VASP/VAMP'   (HEAR YOUR MASTER'S VOICE ...):  |
|                                                                             |
|      You have a (more or less) 'small supercell' and for smaller cells      |
|      it is recommended  to use the reciprocal-space projection scheme!      |
|      The real space optimization is not  efficient for small cells and it   |
|      is also less accurate ...                                              |
|      Therefore set LREAL=.FALSE. in the  INCAR file                         |
|                                                                             |
 ----------------------------------------------------------------------------- 

 Optimization of the real space projectors (new method)

 maximal supplied QI-value         = 16.25
 optimisation between [QCUT,QGAM] = [ 11.54, 23.24] = [ 37.28,151.24] Ry 
 Optimized for a Real-space Cutoff    1.45 Angstroem

   l    n(q)    QCUT    max X(q) W(low)/X(q) W(high)/X(q)  e(spline) 
   2      9    11.539    65.824    0.19E-03    0.47E-04    0.16E-06
   2      9    11.539    61.429    0.20E-03    0.48E-04    0.16E-06
   0     10    11.539    56.174    0.76E-04    0.45E-04    0.23E-06
   0     10    11.539    31.263    0.69E-04    0.41E-04    0.21E-06
   1     10    11.539    19.828    0.78E-04    0.14E-03    0.70E-07
   1     10    11.539    15.139    0.65E-04    0.12E-03    0.64E-07
  PAW_PBE Co 02Aug2007                  :
 energy of atom  1       EATOM= -813.3670
 kinetic energy error for atom=    0.0028 (will be added to EATOM!!)
 
 
 POSCAR: Co2                                     
  positions in direct lattice
  No initial velocities read in
 exchange correlation table for  LEXCH =        8
   RHO(1)=    0.500       N(1)  =     2000
   RHO(2)=  100.500       N(2)  =     4000
 


--------------------------------------------------------------------------------------------------------


 ion  position               nearest neighbor table
   1  0.667  0.333  0.750-   2 2.47   2 2.47   2 2.47   2 2.47   2 2.47   2 2.47
   2  0.333  0.667  0.250-   1 2.47   1 2.47   1 2.47   1 2.47   1 2.47   1 2.47
 
  LATTYP: Found a hexagonal cell.
 ALAT       =     2.4913021772
 C/A-ratio  =     1.6121236424
  
  Lattice vectors:
  
 A1 = (   2.4913025825,   0.0000000000,   0.0000000000)
 A2 = (  -1.2456512912,   2.1575308569,   0.0000000000)
 A3 = (   0.0000000000,   0.0000000000,   4.0162871401)


Analysis of symmetry for initial positions (statically):
=====================================================================
 Subroutine PRICEL returns:
 Original cell was already a primitive cell.
 

 Routine SETGRP: Setting up the symmetry group for a 
 hexagonal supercell.


 Subroutine GETGRP returns: Found 24 space group operations
 (whereof 12 operations were pure point group operations)
 out of a pool of 24 trial point group operations.


The static configuration has the point symmetry D_3d.
 The point group associated with its full space group is D_6h.


Analysis of symmetry for dynamics (positions and initial velocities):
=====================================================================
 Subroutine PRICEL returns:
 Original cell was already a primitive cell.
 

 Routine SETGRP: Setting up the symmetry group for a 
 hexagonal supercell.


 Subroutine GETGRP returns: Found 24 space group operations
 (whereof 12 operations were pure point group operations)
 out of a pool of 24 trial point group operations.


The dynamic configuration has the point symmetry D_3d.
 The point group associated with its full space group is D_6h.


Analysis of structural, dynamic, and magnetic symmetry:
=====================================================================
 Subroutine PRICEL returns:
 Original cell was already a primitive cell.
 

 Routine SETGRP: Setting up the symmetry group for a 
 hexagonal supercell.


 Subroutine GETGRP returns: Found 24 space group operations
 (whereof 12 operations were pure point group operations)
 out of a pool of 24 trial point group operations.


The magnetic configuration has the point symmetry D_3d.
 The point group associated with its full space group is D_6h.


 Subroutine INISYM returns: Found 24 space group operations
 (whereof 12 operations are pure point group operations),
 and found     1 'primitive' translations

 
 
 KPOINTS: pymatgen v2021.2.8.1 with grid density =

Automatic generation of k-mesh.
Space group operators:
 irot       det(A)        alpha          n_x          n_y          n_z        tau_x        tau_y        tau_z
    1     1.000000     0.000000     1.000000     0.000000     0.000000     0.000000     0.000000     0.000000
    2    -1.000000     0.000000     1.000000     0.000000     0.000000     0.000000     0.000000     0.000000
    3     1.000000   120.000000     0.000000     0.000000    -1.000000     0.000000     0.000000     0.000000
    4    -1.000000   120.000000     0.000000     0.000000    -1.000000     0.000000     0.000000     0.000000
    5     1.000000   120.000000     0.000000     0.000000     1.000000     0.000000     0.000000     0.000000
    6    -1.000000   120.000000     0.000000     0.000000     1.000000     0.000000     0.000000     0.000000
    7     1.000000   180.000000     1.000000     0.000000     0.000000     0.000000     0.000000     0.000000
    8    -1.000000   180.000000     1.000000     0.000000     0.000000     0.000000     0.000000     0.000000
    9     1.000000   180.000000     0.500000    -0.866025     0.000000     0.000000     0.000000     0.000000
   10    -1.000000   180.000000     0.500000    -0.866025     0.000000     0.000000     0.000000     0.000000
   11     1.000000   180.000000    -0.500000    -0.866025     0.000000     0.000000     0.000000     0.000000
   12    -1.000000   180.000000    -0.500000    -0.866025     0.000000     0.000000     0.000000     0.000000
   13     1.000000    60.000000     0.000000     0.000000    -1.000000     0.000001     0.000000     0.500000
   14    -1.000000    60.000000     0.000000     0.000000    -1.000000     0.000001     0.000000     0.500000
   15     1.000000   180.000000     0.000000     0.000000     1.000000     0.000000     0.000000     0.500000
   16    -1.000000   180.000000     0.000000     0.000000     1.000000     0.000000     0.000000     0.500000
   17     1.000000    60.000000     0.000000     0.000000     1.000000     0.000000     0.000000     0.500000
   18    -1.000000    60.000000     0.000000     0.000000     1.000000     0.000000     0.000000     0.500000
   19     1.000000   180.000000     0.866025    -0.500000     0.000000     0.000000     0.000000     0.500000
   20    -1.000000   180.000000     0.866025    -0.500000     0.000000     0.000000     0.000000     0.500000
   21     1.000000   180.000000     0.000000     1.000000     0.000000     0.000001     0.000000     0.500000
   22    -1.000000   180.000000     0.000000     1.000000     0.000000     0.000001     0.000000     0.500000
   23     1.000000   180.000000     0.866025     0.500000     0.000000     0.000000     0.000000     0.500000
   24    -1.000000   180.000000     0.866025     0.500000     0.000000     0.000000     0.000000     0.500000
 
 Subroutine IBZKPT returns following result:
 ===========================================
 
 Found     56 irreducible k-points:
 
 Following reciprocal coordinates:
            Coordinates               Weight
  0.000000  0.000000  0.000000      1.000000
  0.100000  0.000000  0.000000      6.000000
  0.200000 -0.000000  0.000000      6.000000
  0.300000  0.000000  0.000000      6.000000
  0.400000 -0.000000  0.000000      6.000000
  0.500000  0.000000  0.000000      3.000000
  0.100000  0.100000  0.000000      6.000000
  0.200000  0.100000  0.000000     12.000000
  0.300000  0.100000  0.000000     12.000000
  0.400000  0.100000  0.000000     12.000000
  0.200000  0.200000  0.000000      6.000000
  0.300000  0.200000  0.000000     12.000000
  0.400000  0.200000  0.000000      6.000000
  0.300000  0.300000  0.000000      6.000000
  0.000000  0.000000  0.166667      2.000000
  0.100000  0.000000  0.166667     12.000000
  0.200000 -0.000000  0.166667     12.000000
  0.300000  0.000000  0.166667     12.000000
  0.400000 -0.000000  0.166667     12.000000
  0.500000  0.000000  0.166667      6.000000
  0.100000  0.100000  0.166667     12.000000
  0.200000  0.100000  0.166667     24.000000
  0.300000  0.100000  0.166667     24.000000
  0.400000  0.100000  0.166667     24.000000
  0.200000  0.200000  0.166667     12.000000
  0.300000  0.200000  0.166667     24.000000
  0.400000  0.200000  0.166667     12.000000
  0.300000  0.300000  0.166667     12.000000
  0.000000  0.000000  0.333333      2.000000
  0.100000  0.000000  0.333333     12.000000
  0.200000 -0.000000  0.333333     12.000000
  0.300000  0.000000  0.333333     12.000000
  0.400000 -0.000000  0.333333     12.000000
  0.500000  0.000000  0.333333      6.000000
  0.100000  0.100000  0.333333     12.000000
  0.200000  0.100000  0.333333     24.000000
  0.300000  0.100000  0.333333     24.000000
  0.400000  0.100000  0.333333     24.000000
  0.200000  0.200000  0.333333     12.000000
  0.300000  0.200000  0.333333     24.000000
  0.400000  0.200000  0.333333     12.000000
  0.300000  0.300000  0.333333     12.000000
  0.000000  0.000000  0.500000      1.000000
  0.100000  0.000000  0.500000      6.000000
  0.200000 -0.000000  0.500000      6.000000
  0.300000  0.000000  0.500000      6.000000
  0.400000 -0.000000  0.500000      6.000000
  0.500000  0.000000  0.500000      3.000000
  0.100000  0.100000  0.500000      6.000000
  0.200000  0.100000  0.500000     12.000000
  0.300000  0.100000  0.500000     12.000000
  0.400000  0.100000  0.500000     12.000000
  0.200000  0.200000  0.500000      6.000000
  0.300000  0.200000  0.500000     12.000000
  0.400000  0.200000  0.500000      6.000000
  0.300000  0.300000  0.500000      6.000000
 
 Following cartesian coordinates:
            Coordinates               Weight
  0.000000  0.000000  0.000000      1.000000
  0.040140  0.023175  0.000000      6.000000
  0.080279  0.046349  0.000000      6.000000
  0.120419  0.069524  0.000000      6.000000
  0.160559  0.092699  0.000000      6.000000
  0.200698  0.115873  0.000000      3.000000
  0.040140  0.069524  0.000000      6.000000
  0.080279  0.092699  0.000000     12.000000
  0.120419  0.115873  0.000000     12.000000
  0.160559  0.139048  0.000000     12.000000
  0.080279  0.139048  0.000000      6.000000
  0.120419  0.162222  0.000000     12.000000
  0.160559  0.185397  0.000000      6.000000
  0.120419  0.208572  0.000000      6.000000
  0.000000  0.000000  0.041498      2.000000
  0.040140  0.023175  0.041498     12.000000
  0.080279  0.046349  0.041498     12.000000
  0.120419  0.069524  0.041498     12.000000
  0.160559  0.092699  0.041498     12.000000
  0.200698  0.115873  0.041498      6.000000
  0.040140  0.069524  0.041498     12.000000
  0.080279  0.092699  0.041498     24.000000
  0.120419  0.115873  0.041498     24.000000
  0.160559  0.139048  0.041498     24.000000
  0.080279  0.139048  0.041498     12.000000
  0.120419  0.162222  0.041498     24.000000
  0.160559  0.185397  0.041498     12.000000
  0.120419  0.208572  0.041498     12.000000
  0.000000  0.000000  0.082995      2.000000
  0.040140  0.023175  0.082995     12.000000
  0.080279  0.046349  0.082995     12.000000
  0.120419  0.069524  0.082995     12.000000
  0.160559  0.092699  0.082995     12.000000
  0.200698  0.115873  0.082995      6.000000
  0.040140  0.069524  0.082995     12.000000
  0.080279  0.092699  0.082995     24.000000
  0.120419  0.115873  0.082995     24.000000
  0.160559  0.139048  0.082995     24.000000
  0.080279  0.139048  0.082995     12.000000
  0.120419  0.162222  0.082995     24.000000
  0.160559  0.185397  0.082995     12.000000
  0.120419  0.208572  0.082995     12.000000
  0.000000  0.000000  0.124493      1.000000
  0.040140  0.023175  0.124493      6.000000
  0.080279  0.046349  0.124493      6.000000
  0.120419  0.069524  0.124493      6.000000
  0.160559  0.092699  0.124493      6.000000
  0.200698  0.115873  0.124493      3.000000
  0.040140  0.069524  0.124493      6.000000
  0.080279  0.092699  0.124493     12.000000
  0.120419  0.115873  0.124493     12.000000
  0.160559  0.139048  0.124493     12.000000
  0.080279  0.139048  0.124493      6.000000
  0.120419  0.162222  0.124493     12.000000
  0.160559  0.185397  0.124493      6.000000
  0.120419  0.208572  0.124493      6.000000
 
 TETIRR: Found    630 inequivalent tetrahedra from     3600


--------------------------------------------------------------------------------------------------------




 Dimension of arrays:
   k-points           NKPTS =     56   k-points in BZ     NKDIM =     56   number of bands    NBANDS=     16
   number of dos      NEDOS =    301   number of ions     NIONS =      2
   non local maximal  LDIM  =      6   non local SUM 2l+1 LMDIM =     18
   total plane-waves  NPLWV =  12000
   max r-space proj   IRMAX =   7086   max aug-charges    IRDMAX=  22120
   dimension x,y,z NGX =    20 NGY =   20 NGZ =   30
   dimension x,y,z NGXF=    40 NGYF=   40 NGZF=   60
   support grid    NGXF=    40 NGYF=   40 NGZF=   60
   ions per type =               2
   NGX,Y,Z   is equivalent  to a cutoff of  13.35, 13.35, 12.42 a.u.
   NGXF,Y,Z  is equivalent  to a cutoff of  26.69, 26.69, 24.84 a.u.

 SYSTEM =  "Co_hcp"                                
 POSCAR =  Co2                                     

 Startparameter for this run:
   NWRITE =      2    write-flag & timer
   PREC   = accura    normal or accurate (medium, high low for compatibility)
   ISTART =      0    job   : 0-new  1-cont  2-samecut
   ICHARG =      2    charge: 1-file 2-atom 10-const
   ISPIN  =      2    spin polarized calculation?
   LNONCOLLINEAR =      F non collinear calculations
   LSORBIT =      F    spin-orbit coupling
   INIWAV =      1    electr: 0-lowe 1-rand  2-diag
   LASPH  =      T    aspherical Exc in radial PAW
   METAGGA=      F    non-selfconsistent MetaGGA calc.

 Electronic Relaxation 1
   ENCUT  =  520.0 eV  38.22 Ry    6.18 a.u.   4.63  4.63  7.47*2*pi/ulx,y,z
   ENINI  =  520.0     initial cutoff
   ENAUG  =  477.8 eV  augmentation charge cutoff
   NELM   =    100;   NELMIN=  2; NELMDL= -5     # of ELM steps 
   EDIFF  = 0.1E-05   stopping-criterion for ELM
   LREAL  =      T    real-space projection
   NLSPLINE    = F    spline interpolate recip. space projectors
   LCOMPAT=      F    compatible to vasp.4.4
   GGA_COMPAT  = T    GGA compatible to vasp.4.4-vasp.4.6
   LMAXPAW     = -100 max onsite density
   LMAXMIX     =    2 max onsite mixed and CHGCAR
   VOSKOWN=      0    Vosko Wilk Nusair interpolation
   ROPT   =   -0.00025
 Ionic relaxation
   EDIFFG = 0.1E-04   stopping-criterion for IOM
   NSW    =     99    number of steps for IOM
   NBLOCK =      1;   KBLOCK =     99    inner block; outer block 
   IBRION =      2    ionic relax: 0-MD 1-quasi-New 2-CG
   NFREE  =      1    steps in history (QN), initial steepest desc. (CG)
   ISIF   =      3    stress and relaxation
   IWAVPR =     11    prediction:  0-non 1-charg 2-wave 3-comb
   ISYM   =      2    0-nonsym 1-usesym 2-fastsym
   LCORR  =      T    Harris-Foulkes like correction to forces

   POTIM  = 0.5000    time-step for ionic-motion
   TEIN   =    0.0    initial temperature
   TEBEG  =    0.0;   TEEND  =   0.0 temperature during run
   SMASS  =  -3.00    Nose mass-parameter (am)
   estimated Nose-frequenzy (Omega)   =  0.10E-29 period in steps =****** mass=  -0.142E-27a.u.
   SCALEE = 1.0000    scale energy and forces
   NPACO  =    256;   APACO  = 16.0  distance and # of slots for P.C.
   PSTRESS=    0.0 pullay stress

  Mass of Ions in am
   POMASS =  58.93
  Ionic Valenz
   ZVAL   =   9.00
  Atomic Wigner-Seitz radii
   RWIGS  =  -1.00
  virtual crystal weights 
   VCA    =   1.00
   NELECT =      18.0000    total number of electrons
   NUPDOWN=      -1.0000    fix difference up-down

 DOS related values:
   EMIN   =  10.00;   EMAX   =-10.00  energy-range for DOS
   EFERMI =   0.00
   ISMEAR =    -5;   SIGMA  =   0.05  broadening in eV -4-tet -1-fermi 0-gaus

 Electronic relaxation 2 (details)
   IALGO  =     68    algorithm
   LDIAG  =      T    sub-space diagonalisation (order eigenvalues)
   LSUBROT=      F    optimize rotation matrix (better conditioning)
   TURBO    =      0    0=normal 1=particle mesh
   IRESTART =      0    0=no restart 2=restart with 2 vectors
   NREBOOT  =      0    no. of reboots
   NMIN     =      0    reboot dimension
   EREF     =   0.00    reference energy to select bands
   IMIX   =      4    mixing-type and parameters
     AMIX     =   0.40;   BMIX     =  1.00
     AMIX_MAG =   1.60;   BMIX_MAG =  1.00
     AMIN     =   0.10
     WC   =   100.;   INIMIX=   1;  MIXPRE=   1;  MAXMIX= -45

 Intra band minimization:
   WEIMIN = 0.0010     energy-eigenvalue tresh-hold
   EBREAK =  0.16E-07  absolut break condition
   DEPER  =   0.30     relativ break condition  

   TIME   =   0.40     timestep for ELM

  volume/ion in A,a.u.               =      10.79        72.84
  Fermi-wavevector in a.u.,A,eV,Ry     =   1.540859  2.911801 32.303587  2.374247
  Thomas-Fermi vector in A             =   2.646887
 
 Write flags
   LWAVE        =      F    write WAVECAR
   LDOWNSAMPLE  =      F    k-point downsampling of WAVECAR
   LCHARG       =      T    write CHGCAR
   LVTOT        =      F    write LOCPOT, total local potential
   LVHAR        =      F    write LOCPOT, Hartree potential only
   LELF         =      F    write electronic localiz. function (ELF)
   LORBIT       =     11    0 simple, 1 ext, 2 COOP (PROOUT), +10 PAW based schemes


 Dipole corrections
   LMONO  =      F    monopole corrections only (constant potential shift)
   LDIPOL =      F    correct potential (dipole corrections)
   IDIPOL =      0    1-x, 2-y, 3-z, 4-all directions 
   EPSILON=  1.0000000 bulk dielectric constant

 Exchange correlation treatment:
   GGA     =    --    GGA type
   LEXCH   =     8    internal setting for exchange type
   VOSKOWN=      0    Vosko Wilk Nusair interpolation
   LHFCALC =     F    Hartree Fock is set to
   LHFONE  =     F    Hartree Fock one center treatment
   AEXX    =    0.0000 exact exchange contribution

 Linear response parameters
   LEPSILON=     F    determine dielectric tensor
   LRPA    =     F    only Hartree local field effects (RPA)
   LNABLA  =     F    use nabla operator in PAW spheres
   LVEL    =     F    velocity operator in full k-point grid
   LINTERFAST=   F  fast interpolation
   KINTER  =     0    interpolate to denser k-point grid
   CSHIFT  =0.1000    complex shift for real part using Kramers Kronig
   OMEGAMAX=  -1.0    maximum frequency
   DEG_THRESHOLD= 0.2000000E-02 threshold for treating states as degnerate
   RTIME   =   -0.100 relaxation time in fs
  (WPLASMAI=    0.000 imaginary part of plasma frequency in eV, 0.658/RTIME)
   DFIELD  = 0.0000000 0.0000000 0.0000000 field for delta impulse in time
 
 Orbital magnetization related:
   ORBITALMAG=     F  switch on orbital magnetization
   LCHIMAG   =     F  perturbation theory with respect to B field
   DQ        =  0.001000  dq finite difference perturbation B field
   LLRAUG    =     F  two centre corrections for induced B field



--------------------------------------------------------------------------------------------------------


 conjugate gradient relaxation of ions
 charge density and potential will be updated during run
 spin polarized calculation
 RMM-DIIS sequential band-by-band and
  variant of blocked Davidson during initial phase
 perform sub-space diagonalisation
    before iterative eigenvector-optimisation
 modified Broyden-mixing scheme, WC =      100.0
 initial mixing is a Kerker type mixing with AMIX =  0.4000 and BMIX =      1.0000
 Hartree-type preconditioning will be used
 using additional bands            7
 real space projection scheme for non local part
 use partial core corrections
 calculate Harris-corrections to forces 
   (improved forces if not selfconsistent)
 use gradient corrections 
 use of overlap-Matrix (Vanderbilt PP)
 Fermi weights with tetrahedron method with Bloechl corrections


--------------------------------------------------------------------------------------------------------


  energy-cutoff  :      520.00
  volume of cell :       21.59
      direct lattice vectors                 reciprocal lattice vectors
     2.491302582  0.000000000  0.000000000     0.401396445  0.231746396  0.000000000
    -1.245651291  2.157530857  0.000000000     0.000000000  0.463492792  0.000000000
     0.000000000  0.000000000  4.016287140     0.000000000  0.000000000  0.248986182

  length of vectors
     2.491302582  2.491302177  4.016287140     0.463492716  0.463492792  0.248986182


 
 k-points in units of 2pi/SCALE and weight: pymatgen v2021.2.8.1 with grid density =
   0.00000000  0.00000000  0.00000000       0.002
   0.04013964  0.02317464  0.00000000       0.010
   0.08027929  0.04634928  0.00000000       0.010
   0.12041893  0.06952392  0.00000000       0.010
   0.16055858  0.09269856  0.00000000       0.010
   0.20069822  0.11587320  0.00000000       0.005
   0.04013964  0.06952392  0.00000000       0.010
   0.08027929  0.09269856  0.00000000       0.020
   0.12041893  0.11587320  0.00000000       0.020
   0.16055858  0.13904784  0.00000000       0.020
   0.08027929  0.13904784  0.00000000       0.010
   0.12041893  0.16222248  0.00000000       0.020
   0.16055858  0.18539712  0.00000000       0.010
   0.12041893  0.20857176  0.00000000       0.010
   0.00000000  0.00000000  0.04149770       0.003
   0.04013964  0.02317464  0.04149770       0.020
   0.08027929  0.04634928  0.04149770       0.020
   0.12041893  0.06952392  0.04149770       0.020
   0.16055858  0.09269856  0.04149770       0.020
   0.20069822  0.11587320  0.04149770       0.010
   0.04013964  0.06952392  0.04149770       0.020
   0.08027929  0.09269856  0.04149770       0.040
   0.12041893  0.11587320  0.04149770       0.040
   0.16055858  0.13904784  0.04149770       0.040
   0.08027929  0.13904784  0.04149770       0.020
   0.12041893  0.16222248  0.04149770       0.040
   0.16055858  0.18539712  0.04149770       0.020
   0.12041893  0.20857176  0.04149770       0.020
   0.00000000  0.00000000  0.08299539       0.003
   0.04013964  0.02317464  0.08299539       0.020
   0.08027929  0.04634928  0.08299539       0.020
   0.12041893  0.06952392  0.08299539       0.020
   0.16055858  0.09269856  0.08299539       0.020
   0.20069822  0.11587320  0.08299539       0.010
   0.04013964  0.06952392  0.08299539       0.020
   0.08027929  0.09269856  0.08299539       0.040
   0.12041893  0.11587320  0.08299539       0.040
   0.16055858  0.13904784  0.08299539       0.040
   0.08027929  0.13904784  0.08299539       0.020
   0.12041893  0.16222248  0.08299539       0.040
   0.16055858  0.18539712  0.08299539       0.020
   0.12041893  0.20857176  0.08299539       0.020
   0.00000000  0.00000000  0.12449309       0.002
   0.04013964  0.02317464  0.12449309       0.010
   0.08027929  0.04634928  0.12449309       0.010
   0.12041893  0.06952392  0.12449309       0.010
   0.16055858  0.09269856  0.12449309       0.010
   0.20069822  0.11587320  0.12449309       0.005
   0.04013964  0.06952392  0.12449309       0.010
   0.08027929  0.09269856  0.12449309       0.020
   0.12041893  0.11587320  0.12449309       0.020
   0.16055858  0.13904784  0.12449309       0.020
   0.08027929  0.13904784  0.12449309       0.010
   0.12041893  0.16222248  0.12449309       0.020
   0.16055858  0.18539712  0.12449309       0.010
   0.12041893  0.20857176  0.12449309       0.010
 
 k-points in reciprocal lattice and weights: pymatgen v2021.2.8.1 with grid density =
   0.00000000  0.00000000  0.00000000       0.002
   0.10000000  0.00000000  0.00000000       0.010
   0.20000000 -0.00000000  0.00000000       0.010
   0.30000000  0.00000000  0.00000000       0.010
   0.40000000 -0.00000000  0.00000000       0.010
   0.50000000  0.00000000  0.00000000       0.005
   0.10000000  0.10000000  0.00000000       0.010
   0.20000000  0.10000000  0.00000000       0.020
   0.30000000  0.10000000  0.00000000       0.020
   0.40000000  0.10000000  0.00000000       0.020
   0.20000000  0.20000000  0.00000000       0.010
   0.30000000  0.20000000  0.00000000       0.020
   0.40000000  0.20000000  0.00000000       0.010
   0.30000000  0.30000000  0.00000000       0.010
   0.00000000  0.00000000  0.16666667       0.003
   0.10000000  0.00000000  0.16666667       0.020
   0.20000000 -0.00000000  0.16666667       0.020
   0.30000000  0.00000000  0.16666667       0.020
   0.40000000 -0.00000000  0.16666667       0.020
   0.50000000  0.00000000  0.16666667       0.010
   0.10000000  0.10000000  0.16666667       0.020
   0.20000000  0.10000000  0.16666667       0.040
   0.30000000  0.10000000  0.16666667       0.040
   0.40000000  0.10000000  0.16666667       0.040
   0.20000000  0.20000000  0.16666667       0.020
   0.30000000  0.20000000  0.16666667       0.040
   0.40000000  0.20000000  0.16666667       0.020
   0.30000000  0.30000000  0.16666667       0.020
   0.00000000  0.00000000  0.33333333       0.003
   0.10000000  0.00000000  0.33333333       0.020
   0.20000000 -0.00000000  0.33333333       0.020
   0.30000000  0.00000000  0.33333333       0.020
   0.40000000 -0.00000000  0.33333333       0.020
   0.50000000  0.00000000  0.33333333       0.010
   0.10000000  0.10000000  0.33333333       0.020
   0.20000000  0.10000000  0.33333333       0.040
   0.30000000  0.10000000  0.33333333       0.040
   0.40000000  0.10000000  0.33333333       0.040
   0.20000000  0.20000000  0.33333333       0.020
   0.30000000  0.20000000  0.33333333       0.040
   0.40000000  0.20000000  0.33333333       0.020
   0.30000000  0.30000000  0.33333333       0.020
   0.00000000  0.00000000  0.50000000       0.002
   0.10000000  0.00000000  0.50000000       0.010
   0.20000000 -0.00000000  0.50000000       0.010
   0.30000000  0.00000000  0.50000000       0.010
   0.40000000 -0.00000000  0.50000000       0.010
   0.50000000  0.00000000  0.50000000       0.005
   0.10000000  0.10000000  0.50000000       0.010
   0.20000000  0.10000000  0.50000000       0.020
   0.30000000  0.10000000  0.50000000       0.020
   0.40000000  0.10000000  0.50000000       0.020
   0.20000000  0.20000000  0.50000000       0.010
   0.30000000  0.20000000  0.50000000       0.020
   0.40000000  0.20000000  0.50000000       0.010
   0.30000000  0.30000000  0.50000000       0.010
 
 position of ions in fractional coordinates (direct lattice) 
   0.66666700  0.33333300  0.75000000
   0.33333300  0.66666700  0.25000000
 
 position of ions in cartesian coordinates  (Angst):
   1.24565254  0.71917623  3.01221536
  -0.00000125  1.43835462  1.00407179
 


--------------------------------------------------------------------------------------------------------


 k-point  1 :   0.0000 0.0000 0.0000  plane waves:     579
 k-point  2 :   0.1000 0.0000 0.0000  plane waves:     584
 k-point  3 :   0.2000-0.0000 0.0000  plane waves:     586
 k-point  4 :   0.3000 0.0000 0.0000  plane waves:     586
 k-point  5 :   0.4000-0.0000 0.0000  plane waves:     580
 k-point  6 :   0.5000 0.0000 0.0000  plane waves:     584
 k-point  7 :   0.1000 0.1000 0.0000  plane waves:     587
 k-point  8 :   0.2000 0.1000 0.0000  plane waves:     592
 k-point  9 :   0.3000 0.1000 0.0000  plane waves:     591
 k-point 10 :   0.4000 0.1000 0.0000  plane waves:     575
 k-point 11 :   0.2000 0.2000 0.0000  plane waves:     585
 k-point 12 :   0.3000 0.2000 0.0000  plane waves:     579
 k-point 13 :   0.4000 0.2000 0.0000  plane waves:     578
 k-point 14 :   0.3000 0.3000 0.0000  plane waves:     567
 k-point 15 :   0.0000 0.0000 0.1667  plane waves:     585
 k-point 16 :   0.1000 0.0000 0.1667  plane waves:     583
 k-point 17 :   0.2000-0.0000 0.1667  plane waves:     587
 k-point 18 :   0.3000 0.0000 0.1667  plane waves:     585
 k-point 19 :   0.4000-0.0000 0.1667  plane waves:     578
 k-point 20 :   0.5000 0.0000 0.1667  plane waves:     580
 k-point 21 :   0.1000 0.1000 0.1667  plane waves:     585
 k-point 22 :   0.2000 0.1000 0.1667  plane waves:     586
 k-point 23 :   0.3000 0.1000 0.1667  plane waves:     581
 k-point 24 :   0.4000 0.1000 0.1667  plane waves:     582
 k-point 25 :   0.2000 0.2000 0.1667  plane waves:     584
 k-point 26 :   0.3000 0.2000 0.1667  plane waves:     579
 k-point 27 :   0.4000 0.2000 0.1667  plane waves:     579
 k-point 28 :   0.3000 0.3000 0.1667  plane waves:     574
 k-point 29 :   0.0000 0.0000 0.3333  plane waves:     579
 k-point 30 :   0.1000 0.0000 0.3333  plane waves:     587
 k-point 31 :   0.2000-0.0000 0.3333  plane waves:     590
 k-point 32 :   0.3000 0.0000 0.3333  plane waves:     583
 k-point 33 :   0.4000-0.0000 0.3333  plane waves:     584
 k-point 34 :   0.5000 0.0000 0.3333  plane waves:     584
 k-point 35 :   0.1000 0.1000 0.3333  plane waves:     584
 k-point 36 :   0.2000 0.1000 0.3333  plane waves:     582
 k-point 37 :   0.3000 0.1000 0.3333  plane waves:     579
 k-point 38 :   0.4000 0.1000 0.3333  plane waves:     578
 k-point 39 :   0.2000 0.2000 0.3333  plane waves:     579
 k-point 40 :   0.3000 0.2000 0.3333  plane waves:     580
 k-point 41 :   0.4000 0.2000 0.3333  plane waves:     574
 k-point 42 :   0.3000 0.3000 0.3333  plane waves:     575
 k-point 43 :   0.0000 0.0000 0.5000  plane waves:     590
 k-point 44 :   0.1000 0.0000 0.5000  plane waves:     588
 k-point 45 :   0.2000-0.0000 0.5000  plane waves:     588
 k-point 46 :   0.3000 0.0000 0.5000  plane waves:     582
 k-point 47 :   0.4000-0.0000 0.5000  plane waves:     578
 k-point 48 :   0.5000 0.0000 0.5000  plane waves:     588
 k-point 49 :   0.1000 0.1000 0.5000  plane waves:     584
 k-point 50 :   0.2000 0.1000 0.5000  plane waves:     578
 k-point 51 :   0.3000 0.1000 0.5000  plane waves:     576
 k-point 52 :   0.4000 0.1000 0.5000  plane waves:     580
 k-point 53 :   0.2000 0.2000 0.5000  plane waves:     574
 k-point 54 :   0.3000 0.2000 0.5000  plane waves:     572
 k-point 55 :   0.4000 0.2000 0.5000  plane waves:     578
 k-point 56 :   0.3000 0.3000 0.5000  plane waves:     572

 maximum and minimum number of plane-waves per node :       155      134

 maximum number of plane-waves:       592
 maximum index in each direction: 
   IXMAX=    4   IYMAX=    4   IZMAX=    7
   IXMIN=   -5   IYMIN=   -4   IZMIN=   -7


 real space projection operators:
  total allocation   :       1922.06 KBytes
  max/ min on nodes  :        485.44        474.75


 parallel 3D FFT for wavefunctions:
    minimum data exchange during FFTs selected (reduces bandwidth)
 parallel 3D FFT for charge:
    minimum data exchange during FFTs selected (reduces bandwidth)


 total amount of memory used by VASP MPI-rank0    34893. kBytes
=======================================================================

   base      :      30000. kBytes
   nonlr-proj:        823. kBytes
   fftplans  :        502. kBytes
   grid      :       1129. kBytes
   one-center:         31. kBytes
   wavefun   :       2408. kBytes
 
     INWAV:  cpu time    0.0000: real time    0.0001
 Broyden mixing: mesh for mixing (old mesh)
   NGX =  9   NGY =  9   NGZ = 15
  (NGX  = 40   NGY  = 40   NGZ  = 60)
  gives a total of   1215 points

 initial charge density was supplied:
 charge density of overlapping atoms calculated
 number of electron      18.0000000 magnetization       4.0000000
 keeping initial charge density in first step


--------------------------------------------------------------------------------------------------------


 Maximum index for non-local projection operator         1688
 Maximum index for augmentation-charges         2633 (set IRDMAX)


--------------------------------------------------------------------------------------------------------


 First call to EWALD:  gamma=   0.637
 Maximum number of real-space cells 3x 3x 2
 Maximum number of reciprocal cells 3x 3x 4

    FEWALD:  cpu time    0.0012: real time    0.0012


--------------------------------------- Iteration      1(   1)  ---------------------------------------


    POTLOK:  cpu time    0.0156: real time    0.0157
    SETDIJ:  cpu time    0.4758: real time    0.4770
     EDDAV:  cpu time    0.6741: real time    0.6992
 BZINTS: Fermi energy: 20.041164; 18.000000 electrons
         Band energy: 265.706970;  BLOECHL correction: -0.186490
       DOS:  cpu time    0.0379: real time    0.0379
    --------------------------------------------
      LOOP:  cpu time    1.2033: real time    1.2298

 eigenvalue-minimisations  :  3680
 total energy-change (2. order) : 0.7618433E+02  (-0.8647593E+03)
 number of electron      18.0000000 magnetization       4.0000000
 augmentation part       18.0000000 magnetization       4.0000000

 Free energy of the ion-electron system (eV)
  ---------------------------------------------------
  alpha Z        PSCENC =        78.48452236
  Ewald energy   TEWEN  =     -1524.25730476
  -Hartree energ DENC   =      -298.93865255
  -exchange      EXHF   =         0.00000000
  -V(xc)+E(xc)   XCENC  =        34.44888997
  PAW double counting   =      1441.12157596    -1547.11005290
  entropy T*S    EENTRO =         0.00000000
  eigenvalues    EBANDS =       265.70696971
  atomic energy  EATOM  =      1626.72837775
  Solvation  Ediel_sol  =         0.00000000
  ---------------------------------------------------
  free energy    TOTEN  =        76.18432553 eV

  energy without entropy =       76.18432553  energy(sigma->0) =       76.18432553


--------------------------------------------------------------------------------------------------------




--------------------------------------- Iteration      1(   2)  ---------------------------------------


     EDDAV:  cpu time    0.6525: real time    0.6573
 BZINTS: Fermi energy: 12.668263; 18.000000 electrons
         Band energy: 175.631758;  BLOECHL correction: -0.049799
       DOS:  cpu time    0.0433: real time    0.0668
    --------------------------------------------
      LOOP:  cpu time    0.6958: real time    0.7240

 eigenvalue-minimisations  :  3608
 total energy-change (2. order) :-0.9007521E+02  (-0.8253031E+02)
 number of electron      18.0000000 magnetization       4.0000000
 augmentation part       18.0000000 magnetization       4.0000000

 Free energy of the ion-electron system (eV)
  ---------------------------------------------------
  alpha Z        PSCENC =        78.48452236
  Ewald energy   TEWEN  =     -1524.25730476
  -Hartree energ DENC   =      -298.93865255
  -exchange      EXHF   =         0.00000000
  -V(xc)+E(xc)   XCENC  =        34.44888997
  PAW double counting   =      1441.12157596    -1547.11005290
  entropy T*S    EENTRO =         0.00000000
  eigenvalues    EBANDS =       175.63175774
  atomic energy  EATOM  =      1626.72837775
  Solvation  Ediel_sol  =         0.00000000
  ---------------------------------------------------
  free energy    TOTEN  =       -13.89088644 eV

  energy without entropy =      -13.89088644  energy(sigma->0) =      -13.89088644


--------------------------------------------------------------------------------------------------------




--------------------------------------- Iteration      1(   3)  ---------------------------------------


     EDDAV:  cpu time    0.7649: real time    0.7670
 BZINTS: Fermi energy: 12.506626; 18.000000 electrons
         Band energy: 173.420032;  BLOECHL correction: -0.053053
       DOS:  cpu time    0.0343: real time    0.0343
    --------------------------------------------
      LOOP:  cpu time    0.7992: real time    0.8014

 eigenvalue-minimisations  :  4408
 total energy-change (2. order) :-0.2211725E+01  (-0.2172005E+01)
 number of electron      18.0000000 magnetization       4.0000000
 augmentation part       18.0000000 magnetization       4.0000000

 Free energy of the ion-electron system (eV)
  ---------------------------------------------------
  alpha Z        PSCENC =        78.48452236
  Ewald energy   TEWEN  =     -1524.25730476
  -Hartree energ DENC   =      -298.93865255
  -exchange      EXHF   =         0.00000000
  -V(xc)+E(xc)   XCENC  =        34.44888997
  PAW double counting   =      1441.12157596    -1547.11005290
  entropy T*S    EENTRO =         0.00000000
  eigenvalues    EBANDS =       173.42003242
  atomic energy  EATOM  =      1626.72837775
  Solvation  Ediel_sol  =         0.00000000
  ---------------------------------------------------
  free energy    TOTEN  =       -16.10261176 eV

  energy without entropy =      -16.10261176  energy(sigma->0) =      -16.10261176


--------------------------------------------------------------------------------------------------------




--------------------------------------- Iteration      1(   4)  ---------------------------------------


     EDDAV:  cpu time    0.8496: real time    0.8518
 BZINTS: Fermi energy: 12.505116; 18.000000 electrons
         Band energy: 173.384990;  BLOECHL correction: -0.053025
       DOS:  cpu time    0.0350: real time    0.0351
    --------------------------------------------
      LOOP:  cpu time    0.8847: real time    0.8869

 eigenvalue-minimisations  :  4992
 total energy-change (2. order) :-0.3504229E-01  (-0.3506134E-01)
 number of electron      18.0000000 magnetization       4.0000000
 augmentation part       18.0000000 magnetization       4.0000000

 Free energy of the ion-electron system (eV)
  ---------------------------------------------------
  alpha Z        PSCENC =        78.48452236
  Ewald energy   TEWEN  =     -1524.25730476
  -Hartree energ DENC   =      -298.93865255
  -exchange      EXHF   =         0.00000000
  -V(xc)+E(xc)   XCENC  =        34.44888997
  PAW double counting   =      1441.12157596    -1547.11005290
  entropy T*S    EENTRO =         0.00000000
  eigenvalues    EBANDS =       173.38499013
  atomic energy  EATOM  =      1626.72837775
  Solvation  Ediel_sol  =         0.00000000
  ---------------------------------------------------
  free energy    TOTEN  =       -16.13765405 eV

  energy without entropy =      -16.13765405  energy(sigma->0) =      -16.13765405


--------------------------------------------------------------------------------------------------------




--------------------------------------- Iteration      1(   5)  ---------------------------------------


     EDDAV:  cpu time    0.7965: real time    0.7986
 BZINTS: Fermi energy: 12.505106; 18.000000 electrons
         Band energy: 173.384654;  BLOECHL correction: -0.053025
       DOS:  cpu time    0.0342: real time    0.0342
    CHARGE:  cpu time    0.0296: real time    0.0297
    MIXING:  cpu time    0.0004: real time    0.0004
    --------------------------------------------
      LOOP:  cpu time    0.8607: real time    0.8630

 eigenvalue-minimisations  :  4608
 total energy-change (2. order) :-0.3361510E-03  (-0.3361719E-03)
 number of electron      17.9999995 magnetization       3.0464474
 augmentation part        9.1548352 magnetization       2.4140774

 Broyden mixing:
  rms(total) = 0.14957E+01    rms(broyden)= 0.14957E+01
  rms(prec ) = 0.26435E+01
  weight for this iteration     100.00

 Free energy of the ion-electron system (eV)
  ---------------------------------------------------
  alpha Z        PSCENC =        78.48452236
  Ewald energy   TEWEN  =     -1524.25730476
  -Hartree energ DENC   =      -298.93865255
  -exchange      EXHF   =         0.00000000
  -V(xc)+E(xc)   XCENC  =        34.44888997
  PAW double counting   =      1441.12157596    -1547.11005290
  entropy T*S    EENTRO =         0.00000000
  eigenvalues    EBANDS =       173.38465398
  atomic energy  EATOM  =      1626.72837775
  Solvation  Ediel_sol  =         0.00000000
  ---------------------------------------------------
  free energy    TOTEN  =       -16.13799020 eV

  energy without entropy =      -16.13799020  energy(sigma->0) =      -16.13799020


--------------------------------------------------------------------------------------------------------




--------------------------------------- Iteration      1(   6)  ---------------------------------------


    POTLOK:  cpu time    0.0131: real time    0.0132
    SETDIJ:  cpu time    0.4751: real time    0.4763
    EDDIAG:  cpu time    0.1088: real time    0.1091
  RMM-DIIS:  cpu time    0.3725: real time    0.3734
    ORTHCH:  cpu time    0.0134: real time    0.0134
 BZINTS: Fermi energy:  9.438806; 18.000000 electrons
         Band energy: 129.128837;  BLOECHL correction: -0.072725
       DOS:  cpu time    0.0369: real time    0.0370
    CHARGE:  cpu time    0.0295: real time    0.0296
    MIXING:  cpu time    0.0005: real time    0.0005
    --------------------------------------------
      LOOP:  cpu time    1.0498: real time    1.0525

 eigenvalue-minimisations  :  3584
 total energy-change (2. order) : 0.1621975E+01  (-0.1142529E+01)
 number of electron      17.9999994 magnetization       3.0456703
 augmentation part       10.7683835 magnetization       2.7424032

 Broyden mixing:
  rms(total) = 0.70411E+00    rms(broyden)= 0.70409E+00
  rms(prec ) = 0.98552E+00
  weight for this iteration     100.00

 eigenvalues of (default mixing * dielectric matrix)
  average eigenvalue GAMMA=   0.8142
  0.8142

 Free energy of the ion-electron system (eV)
  ---------------------------------------------------
  alpha Z        PSCENC =        78.48452236
  Ewald energy   TEWEN  =     -1524.25730476
  -Hartree energ DENC   =      -261.72387855
  -exchange      EXHF   =         0.00000000
  -V(xc)+E(xc)   XCENC  =        32.49752193
  PAW double counting   =      1585.45960920    -1680.83370050
  entropy T*S    EENTRO =         0.00000000
  eigenvalues    EBANDS =       129.12883737
  atomic energy  EATOM  =      1626.72837775
  Solvation  Ediel_sol  =         0.00000000
  ---------------------------------------------------
  free energy    TOTEN  =       -14.51601520 eV

  energy without entropy =      -14.51601520  energy(sigma->0) =      -14.51601520


--------------------------------------------------------------------------------------------------------




--------------------------------------- Iteration      1(   7)  ---------------------------------------


    POTLOK:  cpu time    0.0129: real time    0.0130
    SETDIJ:  cpu time    0.4742: real time    0.4754
    EDDIAG:  cpu time    0.1089: real time    0.1091
  RMM-DIIS:  cpu time    0.3736: real time    0.3745
    ORTHCH:  cpu time    0.0139: real time    0.0139
 BZINTS: Fermi energy: 10.506700; 18.000000 electrons
         Band energy: 144.966758;  BLOECHL correction: -0.069163
       DOS:  cpu time    0.0358: real time    0.0359
    CHARGE:  cpu time    0.0297: real time    0.0298
    MIXING:  cpu time    0.0005: real time    0.0005
    --------------------------------------------
      LOOP:  cpu time    1.0495: real time    1.0521

 eigenvalue-minimisations  :  3584
 total energy-change (2. order) : 0.3979589E+00  (-0.1320377E+00)
 number of electron      17.9999994 magnetization       3.1143678
 augmentation part       10.1429670 magnetization       2.8159144

 Broyden mixing:
  rms(total) = 0.39573E+00    rms(broyden)= 0.39572E+00
  rms(prec ) = 0.49831E+00
  weight for this iteration     100.00

 eigenvalues of (default mixing * dielectric matrix)
  average eigenvalue GAMMA=   0.7591
  1.0573  0.4609

 Free energy of the ion-electron system (eV)
  ---------------------------------------------------
  alpha Z        PSCENC =        78.48452236
  Ewald energy   TEWEN  =     -1524.25730476
  -Hartree energ DENC   =      -270.61948785
  -exchange      EXHF   =         0.00000000
  -V(xc)+E(xc)   XCENC  =        33.06872965
  PAW double counting   =      1670.38045756    -1772.87010943
  entropy T*S    EENTRO =         0.00000000
  eigenvalues    EBANDS =       144.96675844
  atomic energy  EATOM  =      1626.72837775
  Solvation  Ediel_sol  =         0.00000000
  ---------------------------------------------------
  free energy    TOTEN  =       -14.11805628 eV

  energy without entropy =      -14.11805628  energy(sigma->0) =      -14.11805628


--------------------------------------------------------------------------------------------------------




--------------------------------------- Iteration      1(   8)  ---------------------------------------


    POTLOK:  cpu time    0.0133: real time    0.0136
    SETDIJ:  cpu time    0.4744: real time    0.4755
    EDDIAG:  cpu time    0.1089: real time    0.1091
  RMM-DIIS:  cpu time    0.3757: real time    0.3766
    ORTHCH:  cpu time    0.0132: real time    0.0132
 BZINTS: Fermi energy: 10.413109; 18.000000 electrons
         Band energy: 143.158662;  BLOECHL correction: -0.071499
       DOS:  cpu time    0.0288: real time    0.0289
    CHARGE:  cpu time    0.0292: real time    0.0293
    MIXING:  cpu time    0.0005: real time    0.0005
    --------------------------------------------
      LOOP:  cpu time    1.0438: real time    1.0466

 eigenvalue-minimisations  :  3587
 total energy-change (2. order) : 0.2886768E-01  (-0.1233894E-02)
 number of electron      17.9999994 magnetization       3.1594052
 augmentation part       10.2146371 magnetization       2.8806292

 Broyden mixing:
  rms(total) = 0.16698E+00    rms(broyden)= 0.16698E+00
  rms(prec ) = 0.21877E+00
  weight for this iteration     100.00

 eigenvalues of (default mixing * dielectric matrix)
  average eigenvalue GAMMA=   1.0422
  1.8488  0.6952  0.5828

 Free energy of the ion-electron system (eV)
  ---------------------------------------------------
  alpha Z        PSCENC =        78.48452236
  Ewald energy   TEWEN  =     -1524.25730476
  -Hartree energ DENC   =      -267.48695527
  -exchange      EXHF   =         0.00000000
  -V(xc)+E(xc)   XCENC  =        32.99422241
  PAW double counting   =      1729.17289438    -1832.88360759
  entropy T*S    EENTRO =         0.00000000
  eigenvalues    EBANDS =       143.15866212
  atomic energy  EATOM  =      1626.72837775
  Solvation  Ediel_sol  =         0.00000000
  ---------------------------------------------------
  free energy    TOTEN  =       -14.08918860 eV

  energy without entropy =      -14.08918860  energy(sigma->0) =      -14.08918860


--------------------------------------------------------------------------------------------------------




--------------------------------------- Iteration      1(   9)  ---------------------------------------


    POTLOK:  cpu time    0.0129: real time    0.0130
    SETDIJ:  cpu time    0.4738: real time    0.4750
    EDDIAG:  cpu time    0.1088: real time    0.1090
  RMM-DIIS:  cpu time    0.3931: real time    0.3941
    ORTHCH:  cpu time    0.0136: real time    0.0136
 BZINTS: Fermi energy: 10.348743; 18.000000 electrons
         Band energy: 141.930641;  BLOECHL correction: -0.072623
       DOS:  cpu time    0.0354: real time    0.0355
    CHARGE:  cpu time    0.0294: real time    0.0295
    MIXING:  cpu time    0.0005: real time    0.0005
    --------------------------------------------
      LOOP:  cpu time    1.0675: real time    1.0702

 eigenvalue-minimisations  :  3680
 total energy-change (2. order) : 0.1389153E-01  (-0.5644057E-03)
 number of electron      17.9999994 magnetization       3.1452256
 augmentation part       10.2555663 magnetization       2.8737926

 Broyden mixing:
  rms(total) = 0.42466E-01    rms(broyden)= 0.42465E-01
  rms(prec ) = 0.49152E-01
  weight for this iteration     100.00

 eigenvalues of (default mixing * dielectric matrix)
  average eigenvalue GAMMA=   1.0547
  2.0841  0.7757  0.7757  0.5831

 Free energy of the ion-electron system (eV)
  ---------------------------------------------------
  alpha Z        PSCENC =        78.48452236
  Ewald energy   TEWEN  =     -1524.25730476
  -Hartree energ DENC   =      -264.65948489
  -exchange      EXHF   =         0.00000000
  -V(xc)+E(xc)   XCENC  =        32.90088760
  PAW double counting   =      1792.33756214    -1897.54049827
  entropy T*S    EENTRO =         0.00000000
  eigenvalues    EBANDS =       141.93064099
  atomic energy  EATOM  =      1626.72837775
  Solvation  Ediel_sol  =         0.00000000
  ---------------------------------------------------
  free energy    TOTEN  =       -14.07529708 eV

  energy without entropy =      -14.07529708  energy(sigma->0) =      -14.07529708


--------------------------------------------------------------------------------------------------------




--------------------------------------- Iteration      1(  10)  ---------------------------------------


    POTLOK:  cpu time    0.0128: real time    0.0129
    SETDIJ:  cpu time    0.4736: real time    0.4748
    EDDIAG:  cpu time    0.1090: real time    0.1093
  RMM-DIIS:  cpu time    0.3855: real time    0.3865
    ORTHCH:  cpu time    0.0132: real time    0.0133
 BZINTS: Fermi energy: 10.341714; 18.000000 electrons
         Band energy: 141.933046;  BLOECHL correction: -0.072368
       DOS:  cpu time    0.0369: real time    0.0370
    CHARGE:  cpu time    0.0295: real time    0.0296
    MIXING:  cpu time    0.0005: real time    0.0005
    --------------------------------------------
      LOOP:  cpu time    1.0611: real time    1.0638

 eigenvalue-minimisations  :  3661
 total energy-change (2. order) : 0.8577759E-03  (-0.7641515E-04)
 number of electron      17.9999994 magnetization       3.1319053
 augmentation part       10.2564717 magnetization       2.8538457

 Broyden mixing:
  rms(total) = 0.87822E-02    rms(broyden)= 0.87822E-02
  rms(prec ) = 0.11709E-01
  weight for this iteration     100.00

 eigenvalues of (default mixing * dielectric matrix)
  average eigenvalue GAMMA=   1.1515
  2.2926  1.1533  1.0266  0.6020  0.6830

 Free energy of the ion-electron system (eV)
  ---------------------------------------------------
  alpha Z        PSCENC =        78.48452236
  Ewald energy   TEWEN  =     -1524.25730476
  -Hartree energ DENC   =      -264.04043158
  -exchange      EXHF   =         0.00000000
  -V(xc)+E(xc)   XCENC  =        32.85031408
  PAW double counting   =      1809.83350848    -1915.60647139
  entropy T*S    EENTRO =         0.00000000
  eigenvalues    EBANDS =       141.93304576
  atomic energy  EATOM  =      1626.72837775
  Solvation  Ediel_sol  =         0.00000000
  ---------------------------------------------------
  free energy    TOTEN  =       -14.07443930 eV

  energy without entropy =      -14.07443930  energy(sigma->0) =      -14.07443930


--------------------------------------------------------------------------------------------------------




--------------------------------------- Iteration      1(  11)  ---------------------------------------


    POTLOK:  cpu time    0.0129: real time    0.0130
    SETDIJ:  cpu time    0.4742: real time    0.4753
    EDDIAG:  cpu time    0.1073: real time    0.1075
  RMM-DIIS:  cpu time    0.4057: real time    0.4067
    ORTHCH:  cpu time    0.0132: real time    0.0132
 BZINTS: Fermi energy: 10.338644; 18.000000 electrons
         Band energy: 141.944172;  BLOECHL correction: -0.072199
       DOS:  cpu time    0.0361: real time    0.0362
    CHARGE:  cpu time    0.0296: real time    0.0297
    MIXING:  cpu time    0.0005: real time    0.0005
    --------------------------------------------
      LOOP:  cpu time    1.0795: real time    1.0821

 eigenvalue-minimisations  :  3791
 total energy-change (2. order) : 0.1941165E-03  (-0.1391340E-04)
 number of electron      17.9999994 magnetization       3.1322196
 augmentation part       10.2566042 magnetization       2.8524901

 Broyden mixing:
  rms(total) = 0.40788E-02    rms(broyden)= 0.40787E-02
  rms(prec ) = 0.52269E-02
  weight for this iteration     100.00

 eigenvalues of (default mixing * dielectric matrix)
  average eigenvalue GAMMA=   1.0759
  2.2711  1.0940  1.0940  0.5867  0.7047  0.7047

 Free energy of the ion-electron system (eV)
  ---------------------------------------------------
  alpha Z        PSCENC =        78.48452236
  Ewald energy   TEWEN  =     -1524.25730476
  -Hartree energ DENC   =      -263.88375911
  -exchange      EXHF   =         0.00000000
  -V(xc)+E(xc)   XCENC  =        32.83156382
  PAW double counting   =      1812.22089066    -1918.14270761
  entropy T*S    EENTRO =         0.00000000
  eigenvalues    EBANDS =       141.94417171
  atomic energy  EATOM  =      1626.72837775
  Solvation  Ediel_sol  =         0.00000000
  ---------------------------------------------------
  free energy    TOTEN  =       -14.07424518 eV

  energy without entropy =      -14.07424518  energy(sigma->0) =      -14.07424518


--------------------------------------------------------------------------------------------------------




--------------------------------------- Iteration      1(  12)  ---------------------------------------


    POTLOK:  cpu time    0.0127: real time    0.0128
    SETDIJ:  cpu time    0.4737: real time    0.4752
    EDDIAG:  cpu time    0.1083: real time    0.1085
  RMM-DIIS:  cpu time    0.4285: real time    0.4295
    ORTHCH:  cpu time    0.0138: real time    0.0138
 BZINTS: Fermi energy: 10.338041; 18.000000 electrons
         Band energy: 141.930236;  BLOECHL correction: -0.072218
       DOS:  cpu time    0.0366: real time    0.0366
    CHARGE:  cpu time    0.0297: real time    0.0298
    MIXING:  cpu time    0.0006: real time    0.0006
    --------------------------------------------
      LOOP:  cpu time    1.1039: real time    1.1069

 eigenvalue-minimisations  :  3974
 total energy-change (2. order) :-0.9883024E-05  (-0.3743267E-05)
 number of electron      17.9999994 magnetization       3.1321687
 augmentation part       10.2569527 magnetization       2.8526456

 Broyden mixing:
  rms(total) = 0.24503E-02    rms(broyden)= 0.24503E-02
  rms(prec ) = 0.32751E-02
  weight for this iteration     100.00

 eigenvalues of (default mixing * dielectric matrix)
  average eigenvalue GAMMA=   1.2536
  2.4061  2.2794  1.0772  1.0772  0.6988  0.5963  0.6403

 Free energy of the ion-electron system (eV)
  ---------------------------------------------------
  alpha Z        PSCENC =        78.48452236
  Ewald energy   TEWEN  =     -1524.25730476
  -Hartree energ DENC   =      -263.86398223
  -exchange      EXHF   =         0.00000000
  -V(xc)+E(xc)   XCENC  =        32.83193920
  PAW double counting   =      1811.53931291    -1917.46735678
  entropy T*S    EENTRO =         0.00000000
  eigenvalues    EBANDS =       141.93023648
  atomic energy  EATOM  =      1626.72837775
  Solvation  Ediel_sol  =         0.00000000
  ---------------------------------------------------
  free energy    TOTEN  =       -14.07425507 eV

  energy without entropy =      -14.07425507  energy(sigma->0) =      -14.07425507


--------------------------------------------------------------------------------------------------------




--------------------------------------- Iteration      1(  13)  ---------------------------------------


    POTLOK:  cpu time    0.0134: real time    0.0135
    SETDIJ:  cpu time    0.4744: real time    0.4755
    EDDIAG:  cpu time    0.1084: real time    0.1086
  RMM-DIIS:  cpu time    0.2997: real time    0.3004
    ORTHCH:  cpu time    0.0132: real time    0.0132
 BZINTS: Fermi energy: 10.336819; 18.000000 electrons
         Band energy: 141.908416;  BLOECHL correction: -0.072236
       DOS:  cpu time    0.0357: real time    0.0358
    CHARGE:  cpu time    0.0296: real time    0.0296
    MIXING:  cpu time    0.0006: real time    0.0006
    --------------------------------------------
      LOOP:  cpu time    0.9749: real time    0.9773

 eigenvalue-minimisations  :  2633
 total energy-change (2. order) : 0.4525689E-05  (-0.2603601E-06)
 number of electron      17.9999994 magnetization       3.1322755
 augmentation part       10.2575257 magnetization       2.8527817

 Broyden mixing:
  rms(total) = 0.58021E-03    rms(broyden)= 0.58020E-03
  rms(prec ) = 0.60055E-03
  weight for this iteration     100.00

 eigenvalues of (default mixing * dielectric matrix)
  average eigenvalue GAMMA=   1.2517
  2.9916  2.2927  1.0801  1.0801  0.7036  0.7036  0.5990  0.5628

 Free energy of the ion-electron system (eV)
  ---------------------------------------------------
  alpha Z        PSCENC =        78.48452236
  Ewald energy   TEWEN  =     -1524.25730476
  -Hartree energ DENC   =      -263.80448353
  -exchange      EXHF   =         0.00000000
  -V(xc)+E(xc)   XCENC  =        32.82949842
  PAW double counting   =      1810.19725219    -1916.16052900
  entropy T*S    EENTRO =         0.00000000
  eigenvalues    EBANDS =       141.90841603
  atomic energy  EATOM  =      1626.72837775
  Solvation  Ediel_sol  =         0.00000000
  ---------------------------------------------------
  free energy    TOTEN  =       -14.07425054 eV

  energy without entropy =      -14.07425054  energy(sigma->0) =      -14.07425054


--------------------------------------------------------------------------------------------------------




--------------------------------------- Iteration      1(  14)  ---------------------------------------


    POTLOK:  cpu time    0.0127: real time    0.0128
    SETDIJ:  cpu time    0.4734: real time    0.4745
    EDDIAG:  cpu time    0.1083: real time    0.1085
  RMM-DIIS:  cpu time    0.2636: real time    0.2642
    ORTHCH:  cpu time    0.0133: real time    0.0133
 BZINTS: Fermi energy: 10.336668; 18.000000 electrons
         Band energy: 141.906553;  BLOECHL correction: -0.072235
       DOS:  cpu time    0.0363: real time    0.0364
    CHARGE:  cpu time    0.0295: real time    0.0296
    MIXING:  cpu time    0.0007: real time    0.0007
    --------------------------------------------
      LOOP:  cpu time    0.9377: real time    0.9400

 eigenvalue-minimisations  :  2291
 total energy-change (2. order) : 0.1385081E-05  (-0.8164480E-07)
 number of electron      17.9999994 magnetization       3.1324034
 augmentation part       10.2577032 magnetization       2.8528722

 Broyden mixing:
  rms(total) = 0.23304E-03    rms(broyden)= 0.23303E-03
  rms(prec ) = 0.34197E-03
  weight for this iteration     100.00

 eigenvalues of (default mixing * dielectric matrix)
  average eigenvalue GAMMA=   1.2002
  2.6130  2.4449  1.1000  1.1000  0.9506  0.7368  0.6504  0.6244  0.5815

 Free energy of the ion-electron system (eV)
  ---------------------------------------------------
  alpha Z        PSCENC =        78.48452236
  Ewald energy   TEWEN  =     -1524.25730476
  -Hartree energ DENC   =      -263.80803514
  -exchange      EXHF   =         0.00000000
  -V(xc)+E(xc)   XCENC  =        32.82947681
  PAW double counting   =      1810.08048970    -1916.03832848
  entropy T*S    EENTRO =         0.00000000
  eigenvalues    EBANDS =       141.90655261
  atomic energy  EATOM  =      1626.72837775
  Solvation  Ediel_sol  =         0.00000000
  ---------------------------------------------------
  free energy    TOTEN  =       -14.07424915 eV

  energy without entropy =      -14.07424915  energy(sigma->0) =      -14.07424915


--------------------------------------------------------------------------------------------------------




--------------------------------------- Iteration      1(  15)  ---------------------------------------


    POTLOK:  cpu time    0.0128: real time    0.0129
    SETDIJ:  cpu time    0.4740: real time    0.4752
    EDDIAG:  cpu time    0.1080: real time    0.1083
  RMM-DIIS:  cpu time    0.2551: real time    0.2557
    ORTHCH:  cpu time    0.0130: real time    0.0130
 BZINTS: Fermi energy: 10.336801; 18.000000 electrons
         Band energy: 141.908119;  BLOECHL correction: -0.072236
       DOS:  cpu time    0.0365: real time    0.0366
    CHARGE:  cpu time    0.0294: real time    0.0295
    MIXING:  cpu time    0.0007: real time    0.0007
    --------------------------------------------
      LOOP:  cpu time    0.9295: real time    0.9318

 eigenvalue-minimisations  :  2144
 total energy-change (2. order) :-0.1443784E-05  (-0.2524235E-07)
 number of electron      17.9999994 magnetization       3.1324243
 augmentation part       10.2575772 magnetization       2.8529264

 Broyden mixing:
  rms(total) = 0.62439E-04    rms(broyden)= 0.62439E-04
  rms(prec ) = 0.77967E-04
  weight for this iteration     100.00

 eigenvalues of (default mixing * dielectric matrix)
  average eigenvalue GAMMA=   1.1849
  2.5347  2.5347  1.3977  1.0553  1.0553  0.7125  0.7125  0.5840  0.6309  0.6309

 Free energy of the ion-electron system (eV)
  ---------------------------------------------------
  alpha Z        PSCENC =        78.48452236
  Ewald energy   TEWEN  =     -1524.25730476
  -Hartree energ DENC   =      -263.81410116
  -exchange      EXHF   =         0.00000000
  -V(xc)+E(xc)   XCENC  =        32.82986040
  PAW double counting   =      1809.98786698    -1915.94159101
  entropy T*S    EENTRO =         0.00000000
  eigenvalues    EBANDS =       141.90811884
  atomic energy  EATOM  =      1626.72837775
  Solvation  Ediel_sol  =         0.00000000
  ---------------------------------------------------
  free energy    TOTEN  =       -14.07425060 eV

  energy without entropy =      -14.07425060  energy(sigma->0) =      -14.07425060


--------------------------------------------------------------------------------------------------------




--------------------------------------- Iteration      1(  16)  ---------------------------------------


    POTLOK:  cpu time    0.0127: real time    0.0128
    SETDIJ:  cpu time    0.4742: real time    0.4754
    EDDIAG:  cpu time    0.1085: real time    0.1087
  RMM-DIIS:  cpu time    0.2512: real time    0.2518
    ORTHCH:  cpu time    0.0133: real time    0.0133
 BZINTS: Fermi energy: 10.336744; 18.000000 electrons
         Band energy: 141.907059;  BLOECHL correction: -0.072237
       DOS:  cpu time    0.0341: real time    0.0342
    --------------------------------------------
      LOOP:  cpu time    0.8940: real time    0.8962

 eigenvalue-minimisations  :  2060
 total energy-change (2. order) :-0.1435019E-06  (-0.1340459E-07)
 number of electron      17.9999994 magnetization       3.1324243
 augmentation part       10.2575772 magnetization       2.8529264

 Free energy of the ion-electron system (eV)
  ---------------------------------------------------
  alpha Z        PSCENC =        78.48452236
  Ewald energy   TEWEN  =     -1524.25730476
  -Hartree energ DENC   =      -263.81378641
  -exchange      EXHF   =         0.00000000
  -V(xc)+E(xc)   XCENC  =        32.82988728
  PAW double counting   =      1809.94499847    -1915.89800399
  entropy T*S    EENTRO =         0.00000000
  eigenvalues    EBANDS =       141.90705855
  atomic energy  EATOM  =      1626.72837775
  Solvation  Ediel_sol  =         0.00000000
  ---------------------------------------------------
  free energy    TOTEN  =       -14.07425074 eV

  energy without entropy =      -14.07425074  energy(sigma->0) =      -14.07425074


--------------------------------------------------------------------------------------------------------




 average (electrostatic) potential at core
  the test charge radii are     1.0452
  (the norm of the test charge is              1.0000)
       1 -78.2255       2 -78.2255
 
 
 
 E-fermi :  10.3367     XC(G=0): -13.4340     alpha+bet :-17.8197


 spin component 1

 k-point     1 :       0.0000    0.0000    0.0000
  band No.  band energies     occupation 
      1       1.4026      1.00000
      2       5.1901      1.00000
      3       7.7363      1.00000
      4       7.7441      1.00000
      5       7.7441      1.00000
      6       8.0618      1.00000
      7       8.0618      1.00000
      8       8.4003      1.00000
      9       8.4003      1.00000
     10       9.5203      1.00000
     11       9.5203      1.00000
     12      10.3003      0.18861
     13      16.7849      0.00000
     14      32.3201      0.00000
     15      34.9345      0.00000
     16      35.0651      0.00000

 k-point     2 :       0.1000    0.0000    0.0000
  band No.  band energies     occupation 
      1       1.7521      1.00000
      2       5.3947      1.00000
      3       7.4566      1.00000
      4       7.9066      1.00000
      5       7.9447      1.00000
      6       8.0263      1.00000
      7       8.1543      1.00000
      8       8.2051      1.00000
      9       8.3001      1.00000
     10       8.6315      1.00000
     11       9.5627      1.00000
     12      11.6751     -0.02953
     13      16.8471      0.00000
     14      29.7381      0.00000
     15      32.2826      0.00000
     16      32.5995      0.00000

 k-point     3 :       0.2000   -0.0000    0.0000
  band No.  band energies     occupation 
      1       2.7429      1.00000
      2       5.8386      1.00000
      3       7.1403      1.00000
      4       7.2405      1.00000
      5       7.7931      1.00000
      6       8.0694      1.00000
      7       8.2917      1.00000
      8       8.3521      1.00000
      9       8.3861      1.00000
     10       8.5943      1.00000
     11       9.6430      1.00000
     12      13.6685      0.00000
     13      17.0738      0.00000
     14      25.1285      0.00000
     15      29.5071      0.00000
     16      31.4827      0.00000

 k-point     4 :       0.3000    0.0000    0.0000
  band No.  band energies     occupation 
      1       4.1285      1.00000
      2       5.9673      1.00000
      3       6.4808      1.00000
      4       7.1063      1.00000
      5       7.8064      1.00000
      6       7.8222      1.00000
      7       8.0659      1.00000
      8       8.9455      1.00000
      9       9.0374      1.00000
     10       9.1119      1.00000
     11       9.7068      1.00000
     12      15.9332      0.00000
     13      17.4165      0.00000
     14      21.0210      0.00000
     15      27.2524      0.00000
     16      28.5583      0.00000

 k-point     5 :       0.4000   -0.0000    0.0000
  band No.  band energies     occupation 
      1       5.2258      1.00000
      2       5.7543      1.00000
      3       6.0220      1.00000
      4       7.4717      1.00000
      5       7.6412      1.00000
      6       7.8966      1.00000
      7       8.0512      1.00000
      8       9.4492      1.00000
      9       9.5868      1.00000
     10       9.7413      1.00000
     11      10.2074      0.55551
     12      15.9072      0.00000
     13      18.3664      0.00000
     14      19.8615      0.00000
     15      25.1808      0.00000
     16      25.7309      0.00000

 k-point     6 :       0.5000    0.0000    0.0000
  band No.  band energies     occupation 
      1       5.5687      1.00000
      2       5.5912      1.00000
      3       5.8695      1.00000
      4       7.5755      1.00000
      5       7.8083      1.00000
      6       7.8334      1.00000
      7       8.1618      1.00000
      8       9.6397      1.00000
      9       9.7516      1.00000
     10       9.7931      1.00000
     11      11.6496     -0.03089
     12      13.6692      0.00000
     13      20.0915      0.00000
     14      20.7472      0.00000
     15      23.1464      0.00000
     16      24.3874      0.00000

 k-point     7 :       0.1000    0.1000    0.0000
  band No.  band energies     occupation 
      1       2.4250      1.00000
      2       5.7371      1.00000
      3       7.1792      1.00000
      4       7.5218      1.00000
      5       7.8660      1.00000
      6       8.0310      1.00000
      7       8.1657      1.00000
      8       8.2379      1.00000
      9       8.4411      1.00000
     10       8.5304      1.00000
     11       9.6065      1.00000
     12      13.1092      0.00000
     13      16.9978      0.00000
     14      27.2901      0.00000
     15      27.9312      0.00000
     16      34.2508      0.00000

 k-point     8 :       0.2000    0.1000    0.0000
  band No.  band energies     occupation 
      1       3.6431      1.00000
      2       6.1059      1.00000
      3       6.7597      1.00000
      4       6.8974      1.00000
      5       7.7666      1.00000
      6       7.7805      1.00000
      7       8.2523      1.00000
      8       8.5044      1.00000
      9       8.8063      1.00000
     10       9.1244      1.00000
     11       9.6525      1.00000
     12      15.1232      0.00000
     13      17.3766      0.00000
     14      23.0734      0.00000
     15      25.6735      0.00000
     16      30.5664      0.00000

 k-point     9 :       0.3000    0.1000    0.0000
  band No.  band energies     occupation 
      1       4.9782      1.00000
      2       5.9966      1.00000
      3       6.2144      1.00000
      4       7.0320      1.00000
      5       7.5930      1.00000
      6       7.9451      1.00000
      7       8.0113      1.00000
      8       9.0425      1.00000
      9       9.3651      1.00000
     10       9.6845      1.00000
     11       9.9825      0.79432
     12      17.3749      0.00000
     13      17.4504      0.00000
     14      19.9047      0.00000
     15      24.1016      0.00000
     16      26.9770      0.00000

 k-point    10 :       0.4000    0.1000    0.0000
  band No.  band energies     occupation 
      1       5.6345      1.00000
      2       5.7904      1.00000
      3       5.9386      1.00000
      4       7.4697      1.00000
      5       7.5316      1.00000
      6       7.8262      1.00000
      7       8.1563      1.00000
      8       9.5454      1.00000
      9       9.6616      1.00000
     10       9.6984      1.00000
     11      11.4369     -0.06323
     12      14.7275      0.00000
     13      19.8247      0.00000
     14      20.6073      0.00000
     15      23.0957      0.00000
     16      23.9760      0.00000

 k-point    11 :       0.2000    0.2000    0.0000
  band No.  band energies     occupation 
      1       4.9023      1.00000
      2       6.3374      1.00000
      3       6.3757      1.00000
      4       6.5568      1.00000
      5       7.5023      1.00000
      6       7.9081      1.00000
      7       8.0977      1.00000
      8       8.7046      1.00000
      9       9.3705      1.00000
     10       9.6301      1.00000
     11      10.0133      0.78185
     12      17.1451      0.00000
     13      17.9986      0.00000
     14      21.1980      0.00000
     15      21.7920      0.00000
     16      28.9916      0.00000

 k-point    12 :       0.3000    0.2000    0.0000
  band No.  band energies     occupation 
      1       5.8766      1.00000
      2       6.0676      1.00000
      3       6.1865      1.00000
      4       6.7902      1.00000
      5       7.4135      1.00000
      6       7.8472      1.00000
      7       8.1555      1.00000
      8       9.0862      1.00000
      9       9.6097      1.00000
     10       9.6667      1.00000
     11      11.3852     -0.05555
     12      16.9069      0.00000
     13      19.5190      0.00000
     14      19.6222      0.00000
     15      20.9714      0.00000
     16      25.8957      0.00000

 k-point    13 :       0.4000    0.2000    0.0000
  band No.  band energies     occupation 
      1       5.9765      1.00000
      2       6.0721      1.00000
      3       6.0821      1.00000
      4       7.0858      1.00000
      5       7.4427      1.00000
      6       7.6881      1.00000
      7       8.2789      1.00000
      8       9.4244      1.00000
      9       9.6019      1.00000
     10       9.6173      1.00000
     11      13.0659      0.00000
     12      14.4606      0.00000
     13      19.5874      0.00000
     14      21.4240      0.00000
     15      21.7270      0.00000
     16      23.6646      0.00000

 k-point    14 :       0.3000    0.3000    0.0000
  band No.  band energies     occupation 
      1       6.0210      1.00000
      2       6.2815      1.00000
      3       6.4394      1.00000
      4       6.6772      1.00000
      5       7.4100      1.00000
      6       7.6076      1.00000
      7       8.3720      1.00000
      8       9.2655      1.00000
      9       9.5538      1.00000
     10       9.5765      1.00000
     11      13.4738      0.00000
     12      16.4513      0.00000
     13      16.4812      0.00000
     14      21.9663      0.00000
     15      22.2032      0.00000
     16      24.8090      0.00000

 k-point    15 :       0.0000    0.0000    0.1667
  band No.  band energies     occupation 
      1       1.6841      1.00000
      2       5.1288      1.00000
      3       7.6646      1.00000
      4       7.6767      1.00000
      5       7.6767      1.00000
      6       7.9863      1.00000
      7       7.9863      1.00000
      8       8.5676      1.00000
      9       8.5676      1.00000
     10       9.3026      1.00000
     11       9.5043      1.00000
     12       9.5043      0.93107
     13      18.3445      0.00000
     14      32.1888      0.00000
     15      33.9054      0.00000
     16      34.9206      0.00000

 k-point    16 :       0.1000    0.0000    0.1667
  band No.  band energies     occupation 
      1       2.0272      1.00000
      2       5.3548      1.00000
      3       7.4626      1.00000
      4       7.7468      1.00000
      5       7.7778      1.00000
      6       7.8124      1.00000
      7       8.1203      1.00000
      8       8.3179      1.00000
      9       8.5094      1.00000
     10       8.6123      1.00000
     11       9.5362      1.00000
     12      10.7897      0.07159
     13      18.5071      0.00000
     14      29.9141      0.00000
     15      32.4930      0.00000
     16      32.5645      0.00000

 k-point    17 :       0.2000   -0.0000    0.1667
  band No.  band energies     occupation 
      1       2.9909      1.00000
      2       5.8608      1.00000
      3       7.0206      1.00000
      4       7.1879      1.00000
      5       7.6707      1.00000
      6       8.0156      1.00000
      7       8.1314      1.00000
      8       8.4499      1.00000
      9       8.5886      1.00000
     10       8.6531      1.00000
     11       9.5958      1.00000
     12      12.3080     -0.01672
     13      19.0451      0.00000
     14      25.3712      0.00000
     15      29.8473      0.00000
     16      30.3961      0.00000

 k-point    18 :       0.3000    0.0000    0.1667
  band No.  band energies     occupation 
      1       4.2871      1.00000
      2       6.0207      1.00000
      3       6.4276      1.00000
      4       7.0846      1.00000
      5       7.6736      1.00000
      6       7.8996      1.00000
      7       8.2628      1.00000
      8       8.9722      1.00000
      9       9.0370      1.00000
     10       9.0401      1.00000
[...]
     11      12.5283      0.00000
     12      12.5283      0.00000
     13      18.5098      0.00000
     14      18.5098      0.00000
     15      28.9560      0.00000
     16      28.9560      0.00000

 k-point    49 :       0.1000    0.1000    0.5000
  band No.  band energies     occupation 
      1       4.5752      1.00000
      2       4.5752      1.00000
      3       8.4456      1.00000
      4       8.4456      1.00000
      5       9.1115      1.00000
      6       9.1115      1.00000
      7       9.6782      1.00000
      8       9.6782      1.00000
      9      10.9882      0.00000
     10      10.9882      0.00000
     11      11.2954      0.00000
     12      11.2954      0.00000
     13      26.5497      0.00000
     14      26.5497      0.00000
     15      29.1725      0.00000
     16      29.1725      0.00000

 k-point    50 :       0.2000    0.1000    0.5000
  band No.  band energies     occupation 
      1       5.4941      1.00000
      2       5.4941      1.00000
      3       8.2574      1.00000
      4       8.2574      1.00000
      5       8.9671      1.00000
      6       8.9671      1.00000
      7      10.0076      1.00000
      8      10.0076      1.04841
      9      11.1291      0.00000
     10      11.1291      0.00000
     11      11.5993      0.00000
     12      11.5993      0.00000
     13      25.4420      0.00000
     14      25.4420      0.00000
     15      27.4454      0.00000
     16      27.4454      0.00000

 k-point    51 :       0.3000    0.1000    0.5000
  band No.  band energies     occupation 
      1       6.2390      1.00000
      2       6.2390      1.00000
      3       8.1228      1.00000
      4       8.1228      1.00000
      5       9.2283      1.00000
      6       9.2283      1.00000
      7      10.1667      1.00531
      8      10.1667      0.79361
      9      11.4378      0.00000
     10      11.4378      0.00000
     11      12.1571      0.00000
     12      12.1571      0.00000
     13      21.7496      0.00000
     14      21.7496      0.00000
     15      27.0411      0.00000
     16      27.0411      0.00000

 k-point    52 :       0.4000    0.1000    0.5000
  band No.  band energies     occupation 
      1       6.4814      1.00000
      2       6.4814      1.00000
      3       8.0342      1.00000
      4       8.0342      1.00000
      5       9.6121      1.00000
      6       9.6121      1.00000
      7      10.4615      0.40478
      8      10.4615      0.03960
      9      11.4913      0.00000
     10      11.4913      0.00000
     11      13.0987      0.00000
     12      13.0987      0.00000
     13      19.0271      0.00000
     14      19.0271      0.00000
     15      26.3773      0.00000
     16      26.3773      0.00000

 k-point    53 :       0.2000    0.2000    0.5000
  band No.  band energies     occupation 
      1       6.3046      1.00000
      2       6.3046      1.00000
      3       8.2258      1.00000
      4       8.2258      1.00000
      5       8.7928      1.00000
      6       8.7928      1.00000
      7      10.0420      1.00000
      8      10.0420      1.03885
      9      11.5044      0.00000
     10      11.5044      0.00000
     11      12.2369      0.00000
     12      12.2369      0.00000
     13      23.7072      0.00000
     14      23.7072      0.00000
     15      24.5861      0.00000
     16      24.5861      0.00000

 k-point    54 :       0.3000    0.2000    0.5000
  band No.  band energies     occupation 
      1       6.8249      1.00000
      2       6.8249      1.00000
      3       8.2099      1.00000
      4       8.2099      1.00000
      5       8.8241      1.00000
      6       8.8241      1.00000
      7      10.1133      1.00540
      8      10.1133      0.85084
      9      11.5305      0.00000
     10      11.5305      0.00000
     11      13.6670      0.00000
     12      13.6670      0.00000
     13      20.5513      0.00000
     14      20.5513      0.00000
     15      23.3150      0.00000
     16      23.3150      0.00000

 k-point    55 :       0.4000    0.2000    0.5000
  band No.  band energies     occupation 
      1       6.9602      1.00000
      2       6.9602      1.00000
      3       8.2045      1.00000
      4       8.2045      1.00000
      5       8.8428      1.00000
      6       8.8428      1.00000
      7      10.2933      0.93805
      8      10.2933      0.37090
      9      11.4399      0.00000
     10      11.4399      0.00000
     11      14.8161      0.00000
     12      14.8161      0.00000
     13      18.7123      0.00000
     14      18.7123      0.00000
     15      22.9652      0.00000
     16      22.9652      0.00000

 k-point    56 :       0.3000    0.3000    0.5000
  band No.  band energies     occupation 
      1       7.3916      1.00000
      2       7.3916      1.00000
      3       8.0664      1.00000
      4       8.0664      1.00000
      5       8.5747      1.00000
      6       8.5747      1.00000
      7      10.1223      1.00000
      8      10.1223      0.87986
      9      11.4200      0.00000
     10      11.4200      0.00000
     11      15.7666      0.00000
     12      15.7666      0.00000
     13      19.1290      0.00000
     14      19.1290      0.00000
     15      20.9511      0.00000
     16      20.9511      0.00000


--------------------------------------------------------------------------------------------------------


 soft charge-density along one line, spin component           1
         0         1         2         3         4         5         6         7         8         9
 total charge-density along one line
 
 soft charge-density along one line, spin component           2
         0         1         2         3         4         5         6         7         8         9
 total charge-density along one line
 
 pseudopotential strength for first ion, spin component:           1
 -0.565   0.000   0.000  -0.000   0.000  -1.201   0.000   0.000
  0.000  -0.570  -0.000  -0.000   0.000   0.000  -1.205  -0.000
  0.000  -0.000  -0.568   0.000  -0.000   0.000  -0.000  -1.204
 -0.000  -0.000   0.000  -0.570   0.000  -0.000  -0.000   0.000
  0.000   0.000  -0.000   0.000  -0.565   0.000   0.000  -0.000
 -1.201   0.000   0.000  -0.000   0.000  -1.778   0.000   0.000
  0.000  -1.205  -0.000  -0.000   0.000   0.000  -1.782  -0.000
  0.000  -0.000  -1.204   0.000  -0.000   0.000  -0.000  -1.781
 -0.000  -0.000   0.000  -1.205   0.000  -0.000  -0.000   0.000
  0.000   0.000  -0.000   0.000  -1.201   0.000   0.000  -0.000
  0.000   0.000   0.000  -0.000  -0.000   0.000   0.000   0.000
  0.000   0.000   0.001  -0.000  -0.000   0.000   0.000   0.001
  0.000   0.000   0.000   0.000   0.001   0.000   0.000   0.000
  0.000  -0.000   0.000   0.000  -0.000   0.000  -0.000   0.000
  0.001   0.000  -0.000   0.000   0.000   0.001   0.000  -0.000
  0.000   0.000   0.000   0.000   0.001   0.000   0.000   0.000
  0.000  -0.000   0.000   0.000  -0.000   0.000  -0.000   0.000
  0.001   0.000  -0.000   0.000   0.000   0.001   0.000  -0.000
 pseudopotential strength for first ion, spin component:           2
  0.744   0.000   0.000  -0.000   0.000   0.053   0.000   0.000
  0.000   0.750  -0.000  -0.000   0.000   0.000   0.059  -0.000
  0.000  -0.000   0.735   0.000  -0.000   0.000  -0.000   0.044
 -0.000  -0.000   0.000   0.750   0.000  -0.000  -0.000   0.000
  0.000   0.000  -0.000   0.000   0.744   0.000   0.000  -0.000
  0.053   0.000   0.000  -0.000   0.000  -0.576   0.000   0.000
  0.000   0.059  -0.000  -0.000   0.000   0.000  -0.571  -0.000
  0.000  -0.000   0.044   0.000  -0.000   0.000  -0.000  -0.585
 -0.000  -0.000   0.000   0.059   0.000  -0.000  -0.000   0.000
  0.000   0.000  -0.000   0.000   0.053   0.000   0.000  -0.000
  0.000   0.000   0.000  -0.000  -0.000   0.000   0.000   0.000
  0.000   0.000   0.000  -0.000  -0.000   0.000   0.000   0.000
  0.000   0.000   0.000  -0.000   0.000   0.000   0.000   0.000
 -0.000  -0.000   0.000   0.000   0.000  -0.000  -0.000   0.000
  0.000  -0.000  -0.000   0.000   0.000   0.000  -0.000  -0.000
  0.000   0.000   0.000  -0.000  -0.000   0.000   0.000   0.000
 -0.000  -0.000   0.000   0.000   0.000  -0.000  -0.000   0.000
 -0.000  -0.000  -0.000   0.000   0.000  -0.000  -0.000  -0.000
 total augmentation occupancy for first ion, spin component:           1
  2.878   0.000  -0.000  -0.000   0.000  -1.551   0.000  -0.000   0.000   0.000   0.000   0.000   0.000  -0.000  -0.043   0.000
  0.000   3.009  -0.000   0.000   0.000   0.000  -1.615  -0.000   0.000   0.000   0.000  -0.000  -0.000   0.000   0.000   0.000
 -0.000  -0.000   2.738   0.000  -0.000  -0.000  -0.000  -1.508  -0.000   0.000  -0.022   0.002   0.000  -0.000  -0.000  -0.000
  0.000   0.000   0.000   3.009   0.000  -0.000   0.000   0.000  -1.615   0.000   0.000  -0.000  -0.000   0.000   0.000  -0.000
  0.000  -0.000  -0.000   0.000   2.878  -0.000   0.000   0.000  -0.000  -1.551   0.000  -0.000  -0.043   0.000   0.000   0.003
 -1.551   0.000  -0.000   0.000   0.000   1.776  -0.000   0.000  -0.000   0.000  -0.000   0.000   0.000   0.000   0.060  -0.000
  0.000  -1.615   0.000   0.000   0.000   0.000   1.778  -0.000   0.000   0.000   0.000   0.000  -0.000   0.000  -0.000  -0.000
 -0.000  -0.000  -1.508  -0.000   0.000   0.000  -0.000   1.822   0.000  -0.000   0.025  -0.002  -0.000  -0.000  -0.000   0.000
  0.000   0.000   0.000  -1.615  -0.000   0.000   0.000  -0.000   1.778  -0.000  -0.000   0.000  -0.000   0.000   0.000  -0.000
  0.000   0.000   0.000   0.000  -1.551  -0.000   0.000  -0.000   0.000   1.776  -0.000   0.000   0.060   0.000   0.000  -0.005
  0.000   0.000  -0.022   0.000   0.000   0.000   0.000   0.025   0.000  -0.000   2.301  -0.270   0.000  -0.000   0.000  -0.000
 -0.000   0.000   0.002  -0.000  -0.000   0.000   0.000  -0.002   0.000   0.000  -0.270   0.039  -0.000  -0.000   0.000  -0.000
 -0.000   0.000   0.000  -0.000  -0.043   0.000   0.000  -0.000  -0.000   0.060  -0.000  -0.000   0.314   0.000   0.000  -0.031
  0.000  -0.000  -0.000   0.000   0.000   0.000  -0.000   0.000  -0.000   0.000  -0.000  -0.000   0.000   0.321   0.000  -0.000
 -0.043   0.000  -0.000  -0.000   0.000   0.060  -0.000  -0.000  -0.000   0.000  -0.000   0.000  -0.000  -0.000   0.314   0.000
  0.000   0.000  -0.000  -0.000   0.003   0.000   0.000   0.000  -0.000  -0.005   0.000   0.000  -0.031   0.000   0.000   0.003
 -0.000  -0.000   0.000  -0.000   0.000   0.000  -0.000  -0.000   0.000   0.000   0.000   0.000  -0.000  -0.031   0.000   0.000
  0.003  -0.000  -0.000   0.000   0.000  -0.005   0.000  -0.000   0.000  -0.000  -0.000   0.000  -0.000   0.000  -0.031   0.000
 total augmentation occupancy for first ion, spin component:           2
  2.023  -0.000   0.000  -0.000   0.000  -0.958   0.000   0.000   0.000   0.000  -0.000  -0.000   0.000   0.000   0.003   0.000
  0.000   2.069  -0.000   0.000   0.000  -0.000  -0.992  -0.000  -0.000  -0.000   0.000  -0.000  -0.000   0.000  -0.000  -0.000
 -0.000  -0.000   2.039   0.000  -0.000   0.000   0.000  -0.964   0.000   0.000   0.003   0.000  -0.000   0.000   0.000  -0.000
  0.000   0.000   0.000   2.069   0.000   0.000   0.000   0.000  -0.992   0.000   0.000   0.000   0.000   0.000   0.000  -0.000
 -0.000  -0.000  -0.000  -0.000   2.023   0.000  -0.000   0.000   0.000  -0.958  -0.000  -0.000   0.003  -0.000   0.000   0.000
 -0.958  -0.000  -0.000   0.000   0.000   0.259   0.000   0.000  -0.000   0.000   0.000   0.000  -0.000   0.000  -0.007  -0.000
  0.000  -0.992  -0.000  -0.000  -0.000   0.000   0.289   0.000  -0.000   0.000  -0.000   0.000   0.000   0.000  -0.000   0.000
  0.000  -0.000  -0.964   0.000   0.000  -0.000  -0.000   0.250   0.000  -0.000  -0.004   0.000   0.000  -0.000   0.000  -0.000
 -0.000  -0.000  -0.000  -0.992   0.000  -0.000   0.000  -0.000   0.289  -0.000   0.000   0.000  -0.000   0.000  -0.000   0.000
  0.000   0.000   0.000  -0.000  -0.958   0.000  -0.000  -0.000   0.000   0.259   0.000  -0.000  -0.007  -0.000   0.000   0.000
  0.000   0.000   0.003  -0.000  -0.000  -0.000   0.000  -0.004   0.000   0.000  -0.302   0.090   0.000   0.000   0.000  -0.000
 -0.000  -0.000   0.000  -0.000  -0.000   0.000  -0.000   0.000   0.000  -0.000   0.090  -0.016  -0.000   0.000   0.000   0.000
  0.000  -0.000  -0.000   0.000   0.003   0.000   0.000   0.000  -0.000  -0.007  -0.000  -0.000  -0.038  -0.000  -0.000   0.005
  0.000   0.000   0.000  -0.000   0.000   0.000  -0.000   0.000   0.000  -0.000   0.000  -0.000   0.000  -0.042   0.000  -0.000
  0.003  -0.000  -0.000   0.000  -0.000  -0.007   0.000   0.000   0.000  -0.000  -0.000   0.000   0.000   0.000  -0.038   0.000
  0.000   0.000  -0.000   0.000   0.000  -0.000   0.000  -0.000   0.000   0.000   0.000  -0.000   0.005  -0.000   0.000  -0.001
  0.000   0.000  -0.000   0.000  -0.000   0.000  -0.000   0.000   0.000  -0.000   0.000   0.000  -0.000   0.005   0.000   0.000
  0.000   0.000   0.000   0.000  -0.000   0.000   0.000   0.000  -0.000   0.000   0.000  -0.000  -0.000   0.000   0.005  -0.000


------------------------ aborting loop because EDIFF is reached ----------------------------------------


 


 total charge     
 
# of ion       s       p       d       tot
------------------------------------------
    1        0.489   0.525   7.273   8.287
    2        0.490   0.525   7.263   8.279
--------------------------------------------------
tot          0.979   1.050  14.536  16.566
 


 magnetization (x)
 
# of ion       s       p       d       tot
------------------------------------------
    1       -0.017  -0.060   1.664   1.587
    2       -0.016  -0.060   1.666   1.590
--------------------------------------------------
tot         -0.033  -0.120   3.331   3.177
 
    CHARGE:  cpu time    0.0286: real time    0.0286
    FORLOC:  cpu time    0.0003: real time    0.0003
    FORNL :  cpu time    0.2160: real time    0.2165
    STRESS:  cpu time    0.6470: real time    0.6485
    FORCOR:  cpu time    0.0129: real time    0.0129
    FORHAR:  cpu time    0.0013: real time    0.0013
    MIXING:  cpu time    0.0004: real time    0.0004
    OFIELD:  cpu time    0.0000: real time    0.0000

  FORCE on cell =-STRESS in cart. coord.  units (eV):
  Direction    XX          YY          ZZ          XY          YZ          ZX
  --------------------------------------------------------------------------------------
  Alpha Z    78.46560    78.46560    78.46560
  Ewald    -511.15614  -511.15585  -501.82153     0.00017    -0.00000    -0.00000
  Hartree    86.54878    86.54886    90.76689     0.00006    -0.00000     0.00000
  E(xc)     -92.52757   -92.52757   -92.53373    -0.00000    -0.00000     0.00000
  Local     -14.92502   -14.92532   -28.10536    -0.00023    -0.00000     0.00000
  n-local    -9.82997    -9.70780    -9.63660    -6.48769     1.67548     1.68579
  augment   311.01729   311.01726   310.81489     0.00002    -0.00000    -0.00000
  Kinetic   153.74754   150.92760   152.03881     3.82043     0.16354     0.68293
  Fock        0.00000     0.00000     0.00000     0.00000     0.00000     0.00000
  -------------------------------------------------------------------------------------
  Total      -0.00836    -0.00836    -0.01102    -0.00000     0.00000     0.00000
  in kB      -0.62065    -0.62065    -0.81784    -0.00000     0.00000     0.00000
  external pressure =       -0.69 kB  Pullay stress =        0.00 kB


 VOLUME and BASIS-vectors are now :
 -----------------------------------------------------------------------------
  energy-cutoff  :      520.00
  volume of cell :       21.59
      direct lattice vectors                 reciprocal lattice vectors
     2.491816879 -0.000000000  0.000000000     0.401313599  0.231698565  0.000000000
    -1.245908440  2.157976251 -0.000000000     0.000000000  0.463397129  0.000000000
    -0.000000000  0.000000000  4.015597702    -0.000000000  0.000000000  0.249028930

  length of vectors
     2.491816879  2.491816474  4.015597702     0.463397054  0.463397129  0.249028930


 FORCES acting on ions
    electron-ion (+dipol)            ewald-force                    non-local-force                 convergence-correction
 -----------------------------------------------------------------------------------------------
   0.867E-04 -.616E-04 -.285E-04   -.822E-04 0.626E-04 0.224E-13   0.191E-16 -.347E-17 -.651E-18   -.536E-08 0.277E-08 0.573E-09
   -.715E-04 0.529E-04 -.285E-04   0.822E-04 -.626E-04 -.224E-13   -.260E-16 0.347E-17 -.152E-17   0.315E-08 -.149E-08 0.573E-09
 -----------------------------------------------------------------------------------------------
   0.151E-04 -.874E-05 -.569E-04   -.539E-14 -.157E-14 0.465E-21   -.694E-17 0.000E+00 -.217E-17   -.222E-08 0.128E-08 0.115E-08
 
 
 POSITION                                       TOTAL-FORCE (eV/Angst)
 -----------------------------------------------------------------------------------
      1.24591      0.71932      3.01170         0.000000      0.000000      0.000000
     -0.00000      1.43865      1.00390        -0.000000      0.000000      0.000000
 -----------------------------------------------------------------------------------
    total drift:                                0.000015     -0.000009     -0.000057


--------------------------------------------------------------------------------------------------------



  FREE ENERGIE OF THE ION-ELECTRON SYSTEM (eV)
  ---------------------------------------------------
  free  energy   TOTEN  =       -14.07423085 eV

  energy  without entropy=      -14.07423085  energy(sigma->0) =      -14.07423085
 
 d Force = 0.0000000E+00[ 0.000E+00, 0.000E+00]  d Energy = 0.1215209E-04-0.122E-04
 d Force = 0.0000000E+00[ 0.000E+00, 0.000E+00]  d Ewald  = 0.5590845E-01-0.559E-01


--------------------------------------------------------------------------------------------------------


    POTLOK:  cpu time    0.4868: real time    0.4880


--------------------------------------------------------------------------------------------------------




--------------------------------------------------------------------------------------------------------


  
 reached required accuracy - stopping structural energy minimisation
     LOOP+:  cpu time    6.0068: real time    6.0273
    4ORBIT:  cpu time    0.0000: real time    0.0000
 


 total charge     
 
# of ion       s       p       d       tot
------------------------------------------
    1        0.489   0.525   7.273   8.287
    2        0.490   0.525   7.263   8.279
--------------------------------------------------
tot          0.979   1.050  14.536  16.566
 


 magnetization (x)
 
# of ion       s       p       d       tot
------------------------------------------
    1       -0.017  -0.060   1.664   1.587
    2       -0.016  -0.060   1.666   1.590
--------------------------------------------------
tot         -0.033  -0.120   3.331   3.177
 
 BZINTS: Fermi energy: 10.333254; 18.000000 electrons
         Band energy: 141.855316;  BLOECHL correction: -0.072191

 total amount of memory used by VASP MPI-rank0    34893. kBytes
=======================================================================

   base      :      30000. kBytes
   nonlr-proj:        823. kBytes
   fftplans  :        502. kBytes
   grid      :       1129. kBytes
   one-center:         31. kBytes
   wavefun   :       2408. kBytes
 
  
  
 General timing and accounting informations for this job:
 ========================================================
  
                  Total CPU time used (sec):       32.096
                            User time (sec):       31.530
                          System time (sec):        0.567
                         Elapsed time (sec):       32.676
  
                   Maximum memory used (kb):       50388.
                   Average memory used (kb):           0.
  
                          Minor page faults:        18318
                          Major page faults:            0
                 Voluntary context switches:          107
