=========================================
SLURM_JOB_ID = 29456386
SLURM_JOB_NODELIST = lnode22
SLURM_GPUS = 
SLURM_CPUS_ON_NODE = 8
SLURM_JOB_PARTITION = lenovo
SLURM_TASK_PID = 2510490
CUDA_VISIBLE_DEVICES = 
==========================================
 running on    8 total cores
 distrk:  each k-point on    8 cores,    1 groups
 distr:  one band on    8 cores,    1 groups
 using from now: INCAR     
 vasp.5.4.4.18Apr17-6-g9f103f2a35 (build Apr 28 2018 00:24:27) complex          
  
 POSCAR found type information on POSCAR  Mn Bi
 POSCAR found :  2 types and       8 ions
 scaLAPACK will be used

 ----------------------------------------------------------------------------- 
|                                                                             |
|           W    W    AA    RRRRR   N    N  II  N    N   GGGG   !!!           |
|           W    W   A  A   R    R  NN   N  II  NN   N  G    G  !!!           |
|           W    W  A    A  R    R  N N  N  II  N N  N  G       !!!           |
|           W WW W  AAAAAA  RRRRR   N  N N  II  N  N N  G  GGG   !            |
|           WW  WW  A    A  R   R   N   NN  II  N   NN  G    G                |
|           W    W  A    A  R    R  N    N  II  N    N   GGGG   !!!           |
|                                                                             |
|      For optimal performance we recommend to set                            |
|        NCORE= 4 - approx SQRT( number of cores)                             |
|      NCORE specifies how many cores store one orbital (NPAR=cpu/NCORE).     |
|      This setting can  greatly improve the performance of VASP for DFT.     |
|      The default,   NCORE=1            might be grossly inefficient         |
|      on modern multi-core architectures or massively parallel machines.     |
|      Do your own testing !!!!                                               |
|      Unfortunately you need to use the default for GW and RPA calculations. |
|      (for HF NCORE is supported but not extensively tested yet)             |
|                                                                             |
 ----------------------------------------------------------------------------- 

 LDA part: xc-table for Pade appr. of Perdew
 POSCAR, INCAR and KPOINTS ok, starting setup
 FFT: planning ...
 WAVECAR not read
 entering main loop
       N       E                     dE             d eps       ncg     rms          rms(c)
DAV:   1     0.351194917799E+03    0.35119E+03   -0.15897E+04195808   0.138E+03
DAV:   2     0.736651272544E+01   -0.34383E+03   -0.33402E+03196152   0.381E+02
DAV:   3    -0.450745888398E+02   -0.52441E+02   -0.49578E+02324554   0.139E+02
DAV:   4    -0.497978936783E+02   -0.47233E+01   -0.45019E+01350195   0.515E+01
DAV:   5    -0.500605239171E+02   -0.26263E+00   -0.25486E+00329491   0.118E+01    0.193E+01
DAV:   6    -0.570481038196E+02   -0.69876E+01   -0.18211E+02385016   0.156E+02    0.461E+01
DAV:   7    -0.451211855534E+02    0.11927E+02   -0.62622E+01333575   0.851E+01    0.738E+00
DAV:   8    -0.457350866407E+02   -0.61390E+00   -0.68439E+00338032   0.194E+01    0.426E+00
DAV:   9    -0.456738713835E+02    0.61215E-01   -0.11695E+00371899   0.146E+01    0.269E+00
DAV:  10    -0.457270620546E+02   -0.53191E-01   -0.29022E-01340951   0.651E+00    0.183E+00
DAV:  11    -0.457505184939E+02   -0.23456E-01   -0.77230E-02327955   0.380E+00    0.100E+00
DAV:  12    -0.457588095425E+02   -0.82910E-02   -0.31525E-02335313   0.224E+00    0.429E-01
DAV:  13    -0.457590072654E+02   -0.19772E-03   -0.99441E-03332984   0.182E+00    0.208E-01
DAV:  14    -0.457590691899E+02   -0.61925E-04   -0.19435E-03342578   0.830E-01    0.750E-02
DAV:  15    -0.457591079859E+02   -0.38796E-04   -0.64120E-04339464   0.336E-01    0.553E-02
DAV:  16    -0.457591217085E+02   -0.13723E-04   -0.15486E-04350891   0.210E-01    0.462E-02
DAV:  17    -0.457591197835E+02    0.19249E-05   -0.74078E-05361352   0.167E-01    0.221E-02
DAV:  18    -0.457591237057E+02   -0.39222E-05   -0.31468E-05336908   0.923E-02    0.976E-03
DAV:  19    -0.457591262072E+02   -0.25015E-05   -0.94713E-06298976   0.516E-02    0.409E-03
DAV:  20    -0.457591268471E+02   -0.63986E-06   -0.14888E-06151321   0.179E-02
   1 F= -.45759127E+02 E0= -.45758542E+02  d E =-.175508E-02  mag=    -0.0000
