=========================================
SLURM_JOB_ID = 51754170
SLURM_JOB_NODELIST = lnode59
SLURM_GPUS = 
SLURM_CPUS_ON_NODE = 24
SLURM_JOB_PARTITION = lenovo
SLURM_TASK_PID = 1115354
CUDA_VISIBLE_DEVICES = 
==========================================
 running on   24 total cores
 distrk:  each k-point on   24 cores,    1 groups
 distr:  one band on    4 cores,    6 groups
 using from now: INCAR     
 vasp.5.4.4.18Apr17-6-g9f103f2a35 (build Apr 28 2018 00:24:27) complex          
  
 POSCAR found type information on POSCAR  Fe
 POSCAR found :  1 types and       2 ions
 scaLAPACK will be used

 ----------------------------------------------------------------------------- 
|                                                                             |
|  ADVICE TO THIS USER RUNNING 'VASP/VAMP'   (HEAR YOUR MASTER'S VOICE ...):  |
|                                                                             |
|      You have a (more or less) 'small supercell' and for smaller cells      |
|      it is recommended  to use the reciprocal-space projection scheme!      |
|      The real space optimization is not  efficient for small cells and it   |
|      is also less accurate ...                                              |
|      Therefore set LREAL=.FALSE. in the  INCAR file                         |
|                                                                             |
 ----------------------------------------------------------------------------- 

 LDA part: xc-table for Pade appr. of Perdew
 POSCAR, INCAR and KPOINTS ok, starting setup
 FFT: planning ...
 WAVECAR not read
 entering main loop
       N       E                     dE             d eps       ncg     rms          rms(c)
DAV:   1     0.268479267811E+03    0.26848E+03   -0.24394E+04  3420   0.265E+03
DAV:   2    -0.809410748102E+01   -0.27657E+03   -0.26515E+03  3444   0.489E+02
DAV:   3    -0.162009100772E+02   -0.81068E+01   -0.80865E+01  3708   0.897E+01
DAV:   4    -0.162733987759E+02   -0.72489E-01   -0.72495E-01  3912   0.809E+00
DAV:   5    -0.162747212871E+02   -0.13225E-02   -0.13226E-02  3672   0.104E+00    0.250E+01
DAV:   6    -0.164590654985E+02   -0.18434E+00   -0.74922E+00  3432   0.399E+01    0.691E+00
DAV:   7    -0.165136223784E+02   -0.54557E-01   -0.61530E-01  3396   0.982E+00    0.431E+00
DAV:   8    -0.165233239046E+02   -0.97015E-02   -0.15175E-02  3840   0.149E+00    0.137E+00
DAV:   9    -0.165150448289E+02    0.82791E-02   -0.52766E-03  3660   0.893E-01    0.337E-01
DAV:  10    -0.165148474249E+02    0.19740E-03   -0.22409E-03  3444   0.617E-01    0.441E-02
DAV:  11    -0.165149073372E+02   -0.59912E-04   -0.50191E-05  3624   0.678E-02    0.242E-02
DAV:  12    -0.165149154783E+02   -0.81411E-05   -0.50856E-06  3876   0.232E-02    0.956E-03
DAV:  13    -0.165149087558E+02    0.67226E-05   -0.12862E-06  3576   0.113E-02    0.253E-03
DAV:  14    -0.165149071893E+02    0.15665E-05   -0.15727E-07  2700   0.334E-03    0.659E-04
DAV:  15    -0.165149071877E+02    0.15380E-08   -0.11193E-08  1788   0.111E-03
   1 F= -.16514907E+02 E0= -.16514907E+02  d E =0.000000E+00  mag=     4.4054
