=========================================
SLURM_JOB_ID = 30234766
SLURM_JOB_NODELIST = lnode33
SLURM_GPUS = 
SLURM_CPUS_ON_NODE = 8
SLURM_JOB_PARTITION = lenovo
SLURM_TASK_PID = 804827
CUDA_VISIBLE_DEVICES = 
==========================================
 running on    8 total cores
 distrk:  each k-point on    8 cores,    1 groups
 distr:  one band on    4 cores,    2 groups
 using from now: INCAR     
 vasp.5.4.4.18Apr17-6-g9f103f2a35 (build Apr 28 2018 00:24:27) complex          
  
 POSCAR found type information on POSCAR  Eu O 
 POSCAR found :  2 types and       8 ions
 scaLAPACK will be used
 LDA part: xc-table for Pade appr. of Perdew
 POSCAR, INCAR and KPOINTS ok, starting setup
 FFT: planning ...
 WAVECAR not read
 entering main loop
       N       E                     dE             d eps       ncg     rms          rms(c)
DAV:   1     0.122736242438E+04    0.12274E+04   -0.30834E+04  4248   0.347E+03
DAV:   2     0.316618850904E+03   -0.91074E+03   -0.82822E+03  4864   0.668E+02
DAV:   3    -0.110558135266E+02   -0.32767E+03   -0.31757E+03  5264   0.346E+02
DAV:   4    -0.806380175312E+02   -0.69582E+02   -0.67347E+02  6800   0.141E+02
DAV:   5    -0.890619395095E+02   -0.84239E+01   -0.77532E+01  6880   0.539E+01    0.381E+01
DAV:   6    -0.153388529953E+03   -0.64327E+02   -0.85457E+02  6112   0.223E+02    0.163E+02
DAV:   7    -0.458270246204E+02    0.10756E+03   -0.89427E+02  5456   0.130E+02    0.572E+01
DAV:   8    -0.810473263164E+02   -0.35220E+02   -0.32985E+02  6544   0.771E+01    0.306E+01
DAV:   9    -0.827486987978E+02   -0.17014E+01   -0.28815E+01  5704   0.306E+01    0.152E+01
DAV:  10    -0.829786256717E+02   -0.22993E+00   -0.33051E+00  7144   0.118E+01    0.126E+01
DAV:  11    -0.830179194714E+02   -0.39294E-01   -0.46068E-01  6672   0.506E+00    0.108E+01
DAV:  12    -0.832180898486E+02   -0.20017E+00   -0.62844E-01  6576   0.622E+00    0.637E+00
DAV:  13    -0.833145767710E+02   -0.96487E-01   -0.24768E-01  6768   0.349E+00    0.513E+00
DAV:  14    -0.833251354648E+02   -0.10559E-01   -0.41600E-02  6480   0.152E+00    0.467E+00
DAV:  15    -0.833120102140E+02    0.13125E-01   -0.13680E-02  6608   0.799E-01    0.385E+00
DAV:  16    -0.832470401369E+02    0.64970E-01   -0.57314E-02  6728   0.133E+00    0.317E+00
DAV:  17    -0.832318274175E+02    0.15213E-01   -0.68329E-02  6576   0.170E+00    0.211E+00
DAV:  18    -0.832406471758E+02   -0.88198E-02   -0.42469E-02  6536   0.138E+00    0.905E-01
DAV:  19    -0.832430062091E+02   -0.23590E-02   -0.69819E-03  6784   0.577E-01    0.178E-01
DAV:  20    -0.832430884046E+02   -0.82195E-04   -0.10101E-03  6472   0.217E-01    0.112E-01
DAV:  21    -0.832430071550E+02    0.81250E-04   -0.35568E-04  6944   0.119E-01    0.971E-02
DAV:  22    -0.832430301468E+02   -0.22992E-04   -0.14271E-04  6432   0.834E-02    0.224E-02
DAV:  23    -0.832430311809E+02   -0.10340E-05   -0.22638E-05  5880   0.369E-02    0.172E-02
DAV:  24    -0.832430320472E+02   -0.86633E-06   -0.30046E-06  3288   0.215E-02
   1 F= -.83243032E+02 E0= -.83255293E+02  d E =0.367839E-01  mag=     0.0000
