=========================================
SLURM_JOB_ID = 31881300
SLURM_JOB_NODELIST = lnode19
SLURM_GPUS = 
SLURM_CPUS_ON_NODE = 8
SLURM_JOB_PARTITION = lenovo
SLURM_TASK_PID = 1445062
CUDA_VISIBLE_DEVICES = 
==========================================
 running on    8 total cores
 distrk:  each k-point on    8 cores,    1 groups
 distr:  one band on    4 cores,    2 groups
 using from now: INCAR     
 vasp.5.4.4.18Apr17-6-g9f103f2a35 (build Apr 28 2018 00:24:27) complex          
  
 POSCAR found type information on POSCAR  Eu O 
 POSCAR found :  2 types and       8 ions
 scaLAPACK will be used
 LDA part: xc-table for Pade appr. of Perdew
 generate k-points for:    4    3    2
 POSCAR, INCAR and KPOINTS ok, starting setup
 FFT: planning ...
 WAVECAR not read
 entering main loop
       N       E                     dE             d eps       ncg     rms          rms(c)
DAV:   1     0.125130260821E+04    0.12513E+04   -0.30590E+04  3656   0.347E+03
DAV:   2     0.331900222743E+03   -0.91940E+03   -0.83472E+03  4208   0.694E+02
DAV:   3    -0.459620478255E+01   -0.33650E+03   -0.32555E+03  4512   0.354E+02
DAV:   4    -0.794162449794E+02   -0.74820E+02   -0.72438E+02  5888   0.145E+02
DAV:   5    -0.888833645190E+02   -0.94671E+01   -0.87146E+01  5960   0.574E+01    0.383E+01
DAV:   6    -0.155488634251E+03   -0.66605E+02   -0.86752E+02  5280   0.223E+02    0.163E+02
DAV:   7    -0.466330170993E+02    0.10886E+03   -0.88528E+02  4808   0.129E+02    0.589E+01
DAV:   8    -0.810229313265E+02   -0.34390E+02   -0.32098E+02  5672   0.769E+01    0.307E+01
DAV:   9    -0.826259088980E+02   -0.16030E+01   -0.26038E+01  4984   0.300E+01    0.157E+01
DAV:  10    -0.829679694282E+02   -0.34206E+00   -0.34086E+00  6224   0.117E+01    0.128E+01
DAV:  11    -0.829646892223E+02    0.32802E-02   -0.46803E-01  5776   0.492E+00    0.115E+01
DAV:  12    -0.832288977679E+02   -0.26421E+00   -0.57286E-01  5848   0.517E+00    0.662E+00
DAV:  13    -0.833091156021E+02   -0.80218E-01   -0.24108E-01  5656   0.399E+00    0.530E+00
DAV:  14    -0.833224319316E+02   -0.13316E-01   -0.57682E-02  5616   0.189E+00    0.503E+00
DAV:  15    -0.833219868017E+02    0.44513E-03   -0.89666E-03  6000   0.654E-01    0.464E+00
DAV:  16    -0.832926680961E+02    0.29319E-01   -0.23529E-02  4952   0.110E+00    0.375E+00
DAV:  17    -0.832335344724E+02    0.59134E-01   -0.72568E-02  5768   0.136E+00    0.320E+00
DAV:  18    -0.832356254739E+02   -0.20910E-02   -0.31935E-02  5352   0.158E+00    0.210E+00
DAV:  19    -0.832357178589E+02   -0.92385E-04   -0.24591E-02  5680   0.114E+00    0.115E+00
DAV:  20    -0.832385209889E+02   -0.28031E-02   -0.10962E-02  6008   0.756E-01    0.496E-01
DAV:  21    -0.832392436438E+02   -0.72265E-03   -0.25523E-03  5824   0.364E-01    0.522E-02
DAV:  22    -0.832393069806E+02   -0.63337E-04   -0.59039E-04  5552   0.156E-01    0.976E-02
DAV:  23    -0.832392831053E+02    0.23875E-04   -0.17135E-04  5976   0.873E-02    0.350E-02
DAV:  24    -0.832392830226E+02    0.82740E-07   -0.54671E-05  4928   0.449E-02    0.151E-02
DAV:  25    -0.832392829959E+02    0.26661E-07   -0.46808E-06  3592   0.214E-02
   1 F= -.83239283E+02 E0= -.83245941E+02  d E =0.199754E-01  mag=     0.0000
