 vasp.5.4.4.18Apr17-6-g9f103f2a35 (build Apr 28 2018 00:24:27) complex          
  
 executed on             LinuxIFC date 2021.03.23  16:56:30
 running on    8 total cores
 distrk:  each k-point on    8 cores,    1 groups
 distr:  one band on NCORES_PER_BAND=   4 cores,    2 groups


--------------------------------------------------------------------------------------------------------


 INCAR:
 POTCAR:    PAW_PBE Eu 23Dec2003                  
 POTCAR:    PAW_PBE O 08Apr2002                   
 POTCAR:    PAW_PBE Eu 23Dec2003                  
   SHA256 =  ed303d27e7c5191953f9b15539336e6f36d9037c1d2e92e80c13d733697cb93d Eu
   COPYR  = (c) Copyright 23Dec2003 Georg Kresse                                
   COPYR  = This file is part of the software VASP. Any use, copying, and all ot
   COPYR  = If you do not have a valid VASP license, you may not use, copy or di
   VRHFIN =Eu : [core=Kr4d]                                                     
   LEXCH  = PE                                                                  
   EATOM  =  2619.8085 eV,  192.5505 Ry                                         
                                                                                
   TITEL  = PAW_PBE Eu 23Dec2003                                                
   LULTRA =        F    use ultrasoft PP ?                                      
   IUNSCR =        1    unscreen: 0-lin 1-nonlin 2-no                           
   RPACOR =    2.300    partial core radius                                     
   POMASS =  151.965; ZVAL   =   17.000    mass and valenz                      
   RCORE  =    2.800    outmost cutoff radius                                   
   RWIGS  =    2.800; RWIGS  =    1.482    wigner-seitz radius (au A)           
   ENMAX  =  249.668; ENMIN  =  187.251 eV                                      
   RCLOC  =    2.308    cutoff for local pot                                    
   LCOR   =        T    correct aug charges                                     
   LPAW   =        T    paw PP                                                  
   EAUG   =  549.628                                                            
   DEXC   =    0.000                                                            
   RMAX   =    2.870    core radius for proj-oper                               
   RAUG   =    1.300    factor for augmentation sphere                          
   RDEP   =    2.887    radius for radial grids                                 
   RDEPT  =    2.221    core radius for aug-charge                              
                                                                                
   Atomic configuration                                                         
   14 entries                                                                   
     n  l   j            E        occ.                                          
     1  0  0.50    -48354.7667   2.0000                                         
     2  0  0.50     -7939.6472   2.0000                                         
     2  1  1.50     -7072.6637   6.0000                                         
     3  0  0.50     -1747.1875   2.0000                                         
     3  1  1.50     -1477.5221   6.0000                                         
     3  2  2.50     -1117.4686  10.0000                                         
     4  0  0.50      -346.8682   2.0000                                         
     4  1  1.50      -258.1962   6.0000                                         
     4  2  2.50      -134.7724  10.0000                                         
     5  0  0.50       -44.6510   2.0000                                         
     6  0  0.50        -3.6227   2.0000                                         
     5  1  1.50       -23.7639   6.0000                                         
     5  2  2.50        -1.3130   0.0000                                         
     4  3  2.50        -2.7310   7.0000                                         
   Description                                                                  
     l       E           TYP  RCUT    TYP  RCUT                                 
     0    -44.6510453     23  2.400                                             
     0     -3.6226685     23  2.400                                             
     1    -23.7638687     23  2.400                                             
     1     27.2116520     23  2.400                                             
     2     -1.3129622     23  2.500                                             
     2     13.6058260     23  2.500                                             
     3     -2.7309948     23  2.800                                             
     3     -3.4014565     23  2.800                                             
  local pseudopotential read in
  partial core-charges read in
  partial kinetic energy density read in
  atomic valenz-charges read in
  non local Contribution for L=           0  read in
    real space projection operators read in
  non local Contribution for L=           0  read in
    real space projection operators read in
  non local Contribution for L=           1  read in
    real space projection operators read in
  non local Contribution for L=           1  read in
    real space projection operators read in
  non local Contribution for L=           2  read in
    real space projection operators read in
  non local Contribution for L=           2  read in
    real space projection operators read in
  non local Contribution for L=           3  read in
    real space projection operators read in
  non local Contribution for L=           3  read in
    real space projection operators read in
    PAW grid and wavefunctions read in
 
   number of l-projection  operators is LMAX  =           8
   number of lm-projection operators is LMMAX =          32
 
 POTCAR:    PAW_PBE O 08Apr2002                   
   SHA256 =  818f92134a0a090dccd8ba1447fa70422a3b330e708bb4f08108d8ae51209ddf O/
   COPYR  = (c) Copyright 08Apr2002 Georg Kresse                                
   COPYR  = This file is part of the software VASP. Any use, copying, and all ot
   COPYR  = If you do not have a valid VASP license, you may not use, copy or di
   VRHFIN =O: s2p4                                                              
   LEXCH  = PE                                                                  
   EATOM  =   432.3788 eV,   31.7789 Ry                                         
                                                                                
   TITEL  = PAW_PBE O 08Apr2002                                                 
   LULTRA =        F    use ultrasoft PP ?                                      
   IUNSCR =        1    unscreen: 0-lin 1-nonlin 2-no                           
   RPACOR =    1.200    partial core radius                                     
   POMASS =   16.000; ZVAL   =    6.000    mass and valenz                      
   RCORE  =    1.520    outmost cutoff radius                                   
   RWIGS  =    1.550; RWIGS  =    0.820    wigner-seitz radius (au A)           
   ENMAX  =  400.000; ENMIN  =  300.000 eV                                      
   ICORE  =        2    local potential                                         
   LCOR   =        T    correct aug charges                                     
   LPAW   =        T    paw PP                                                  
   EAUG   =  605.392                                                            
   DEXC   =    0.000                                                            
   RMAX   =    1.553    core radius for proj-oper                               
   RAUG   =    1.300    factor for augmentation sphere                          
   RDEP   =    1.550    radius for radial grids                                 
   RDEPT  =    1.329    core radius for aug-charge                              
                                                                                
   Atomic configuration                                                         
    4 entries                                                                   
     n  l   j            E        occ.                                          
     1  0  0.50      -514.6923   2.0000                                         
     2  0  0.50       -23.9615   2.0000                                         
     2  1  0.50        -9.0305   4.0000                                         
     3  2  1.50        -9.5241   0.0000                                         
   Description                                                                  
     l       E           TYP  RCUT    TYP  RCUT                                 
     0    -23.9615318     23  1.200                                             
     0     -9.5240782     23  1.200                                             
     1     -9.0304911     23  1.520                                             
     1      8.1634956     23  1.520                                             
     2     -9.5240782      7  1.500                                             
  local pseudopotential read in
  partial core-charges read in
  partial kinetic energy density read in
  kinetic energy density of atom read in
  atomic valenz-charges read in
  non local Contribution for L=           0  read in
    real space projection operators read in
  non local Contribution for L=           0  read in
    real space projection operators read in
  non local Contribution for L=           1  read in
    real space projection operators read in
  non local Contribution for L=           1  read in
    real space projection operators read in
    PAW grid and wavefunctions read in
 
   number of l-projection  operators is LMAX  =           4
   number of lm-projection operators is LMMAX =           8
 
  PAW_PBE Eu 23Dec2003                  :
 energy of atom  1       EATOM=-2619.8085
 kinetic energy error for atom=    0.0019 (will be added to EATOM!!)
  PAW_PBE O 08Apr2002                   :
 energy of atom  2       EATOM= -432.3788
 kinetic energy error for atom=    0.0224 (will be added to EATOM!!)
 
 
 POSCAR: Eu1 O1 str #: 9                         
  positions in direct lattice
  No initial velocities read in
 exchange correlation table for  LEXCH =        8
   RHO(1)=    0.500       N(1)  =     2000
   RHO(2)=  100.500       N(2)  =     4000
 


--------------------------------------------------------------------------------------------------------


 ion  position               nearest neighbor table
   1  0.000  0.000  0.000-   5 2.54   5 2.54   6 2.54   8 2.54   8 2.54   6 2.54
   2  0.500  0.500  0.250-   6 2.54   6 2.54   7 2.54   5 2.54   5 2.54   7 2.54
   3  0.000  0.000  0.500-   7 2.54   7 2.54   8 2.54   6 2.54   6 2.54   8 2.54
   4  0.500  0.500  0.750-   8 2.54   8 2.54   5 2.54   7 2.54   7 2.54   5 2.54
   5  0.000  0.500  0.000-   1 2.54   1 2.54   4 2.54   2 2.54   2 2.54   4 2.54
   6  0.500  1.000  0.250-   2 2.54   2 2.54   1 2.54   3 2.54   3 2.54   1 2.54
   7  0.000  0.500  0.500-   3 2.54   3 2.54   2 2.54   4 2.54   4 2.54   2 2.54
   8  0.500  1.000  0.750-   4 2.54   4 2.54   3 2.54   1 2.54   1 2.54   3 2.54
 
  LATTYP: Found a simple monoclinic cell.
 ALAT       =     6.2226751670
 B/A-ratio  =     1.1546723251
 C/A-ratio  =     1.4142187552
 COS(beta)  =    -0.9428119261
  
  Lattice vectors:
  
 A1 = (  -3.5927775000,  -4.1483958000,  -2.9333340000)
 A2 = (  -0.0000170000,   4.1483248000,  -5.8666680000)
 A3 = (   7.1854231000,   4.1483958000,   2.9333340000)


Analysis of symmetry for initial positions (statically):
=====================================================================
 Subroutine PRICEL returns following result:
 
  LATTYP: Found a trigonal (rhomboedric) cell.
 ALAT       =     3.5926456000
 COS(alpha) =     0.5000180940
  
  Lattice vectors:
  
 A1 = (   3.5926456000,  -0.0000000000,   0.0000000000)
 A2 = (   1.7963845000,   3.1112791000,   0.0000000000)
 A3 = (   1.7963930000,   1.0371167000,   2.9333340000)
 
   4 primitive cells build up your supercell.
 

 Routine SETGRP: Setting up the symmetry group for a 
 simple monoclinic supercell.


 Subroutine GETGRP returns: Found  4 space group operations
 (whereof  4 operations were pure point group operations)
 out of a pool of  4 trial point group operations.


The static configuration has the point symmetry C_2h.


Analysis of symmetry for dynamics (positions and initial velocities):
=====================================================================
 Subroutine PRICEL returns following result:
 
  LATTYP: Found a trigonal (rhomboedric) cell.
 ALAT       =     3.5926456000
 COS(alpha) =     0.5000180940
  
  Lattice vectors:
  
 A1 = (   3.5926456000,  -0.0000000000,   0.0000000000)
 A2 = (   1.7963845000,   3.1112791000,   0.0000000000)
 A3 = (   1.7963930000,   1.0371167000,   2.9333340000)
 
   4 primitive cells build up your supercell.
 

 Routine SETGRP: Setting up the symmetry group for a 
 simple monoclinic supercell.


 Subroutine GETGRP returns: Found  4 space group operations
 (whereof  4 operations were pure point group operations)
 out of a pool of  4 trial point group operations.


The dynamic configuration has the point symmetry C_2h.


Analysis of structural, dynamic, and magnetic symmetry:
=====================================================================
 Subroutine PRICEL returns following result:
 
  LATTYP: Found a simple monoclinic cell.
 ALAT       =     6.2226751670
 B/A-ratio  =     0.5773361626
 C/A-ratio  =     1.4142187552
 COS(beta)  =    -0.9428119261
  
  Lattice vectors:
  
 A1 = (  -3.5927775000,  -4.1483958000,  -2.9333340000)
 A2 = (  -0.0000085000,   2.0741624000,  -2.9333340000)
 A3 = (   7.1854231000,   4.1483958000,   2.9333340000)
 
   2 primitive cells build up your supercell.
 

 Routine SETGRP: Setting up the symmetry group for a 
 simple monoclinic supercell.


 Subroutine GETGRP returns: Found  4 space group operations
 (whereof  2 operations were pure point group operations)
 out of a pool of  4 trial point group operations.


The magnetic configuration has the point symmetry C_2 .
 The point group associated with its full space group is C_2h.


 Subroutine INISYM returns: Found  4 space group operations
 (whereof  2 operations are pure point group operations),
 and found     2 'primitive' translations

 
 
 KPOINTS: pymatgen v2020.8.13 with grid density = 

Automatic generation of k-mesh.
Space group operators:
 irot       det(A)        alpha          n_x          n_y          n_z        tau_x        tau_y        tau_z
    1     1.000000     0.000001     1.000000     0.000000     0.000000     0.000000     0.000000     0.000000
    2     1.000000   180.000000     0.000000    -0.577347     0.816499     0.000000     0.000000     0.000000
    3    -1.000000     0.000001     1.000000     0.000000     0.000000    -0.500000    -0.500000    -0.250000
    4    -1.000000   180.000000     0.000000    -0.577347     0.816499    -0.500000    -0.500000    -0.250000
 
 Subroutine IBZKPT returns following result:
 ===========================================
 
 Found     16 irreducible k-points:
 
 Following reciprocal coordinates:
            Coordinates               Weight
  0.125000  0.125000  0.125000      4.000000
  0.375000  0.125000  0.125000      4.000000
 -0.375000  0.125000  0.125000      4.000000
 -0.125000  0.125000  0.125000      4.000000
  0.125000  0.375000  0.125000      4.000000
  0.375000  0.375000  0.125000      4.000000
 -0.375000  0.375000  0.125000      4.000000
 -0.125000  0.375000  0.125000      4.000000
  0.125000  0.125000  0.375000      4.000000
  0.375000  0.125000  0.375000      4.000000
 -0.375000  0.125000  0.375000      4.000000
 -0.125000  0.125000  0.375000      4.000000
  0.125000  0.375000  0.375000      4.000000
  0.375000  0.375000  0.375000      4.000000
 -0.375000  0.375000  0.375000      4.000000
 -0.125000  0.375000  0.375000      4.000000
 
 Following cartesian coordinates:
            Coordinates               Weight
  0.034793  0.010043  0.028408      4.000000
  0.104380  0.010042  0.028407      4.000000
 -0.104380  0.010046  0.028411      4.000000
 -0.034793  0.010045  0.028410      4.000000
  0.034793  0.050220  0.056817      4.000000
  0.104380  0.050218  0.056816      4.000000
 -0.104380  0.050223  0.056820      4.000000
 -0.034793  0.050221  0.056818      4.000000
  0.034793 -0.010045  0.056818      4.000000
  0.104380 -0.010046  0.056816      4.000000
 -0.104380 -0.010042  0.056820      4.000000
 -0.034793 -0.010043  0.056819      4.000000
  0.034793  0.030132  0.085226      4.000000
  0.104380  0.030130  0.085225      4.000000
 -0.104380  0.030134  0.085229      4.000000
 -0.034793  0.030133  0.085228      4.000000
 


--------------------------------------------------------------------------------------------------------




 Dimension of arrays:
   k-points           NKPTS =     16   k-points in BZ     NKDIM =     16   number of bands    NBANDS=     56
   number of dos      NEDOS =    301   number of ions     NIONS =      8
   non local maximal  LDIM  =      8   non local SUM 2l+1 LMDIM =     32
   total plane-waves  NPLWV =  22400
   max r-space proj   IRMAX =      1   max aug-charges    IRDMAX=   9962
   dimension x,y,z NGX =    20 NGY =   28 NGZ =   40
   dimension x,y,z NGXF=    40 NGYF=   56 NGZF=   80
   support grid    NGXF=    40 NGYF=   56 NGZF=   80
   ions per type =               4   4
   NGX,Y,Z   is equivalent  to a cutoff of   9.25,  9.16,  9.25 a.u.
   NGXF,Y,Z  is equivalent  to a cutoff of  18.51, 18.32, 18.51 a.u.

 SYSTEM =  "EuO"                                   
 POSCAR =  Eu1 O1 str #: 9                         

 Startparameter for this run:
   NWRITE =      2    write-flag & timer
   PREC   = normal    normal or accurate (medium, high low for compatibility)
   ISTART =      0    job   : 0-new  1-cont  2-samecut
   ICHARG =      2    charge: 1-file 2-atom 10-const
   ISPIN  =      2    spin polarized calculation?
   LNONCOLLINEAR =      F non collinear calculations
   LSORBIT =      F    spin-orbit coupling
   INIWAV =      1    electr: 0-lowe 1-rand  2-diag
   LASPH  =      F    aspherical Exc in radial PAW
   METAGGA=      F    non-selfconsistent MetaGGA calc.

 Electronic Relaxation 1
   ENCUT  =  500.0 eV  36.75 Ry    6.06 a.u.   6.55  9.26 13.10*2*pi/ulx,y,z
   ENINI  =  500.0     initial cutoff
   ENAUG  =  605.4 eV  augmentation charge cutoff
   NELM   =     60;   NELMIN=  2; NELMDL= -5     # of ELM steps 
   EDIFF  = 0.1E-05   stopping-criterion for ELM
   LREAL  =      F    real-space projection
   NLSPLINE    = F    spline interpolate recip. space projectors
   LCOMPAT=      F    compatible to vasp.4.4
   GGA_COMPAT  = T    GGA compatible to vasp.4.4-vasp.4.6
   LMAXPAW     = -100 max onsite density
   LMAXMIX     =    2 max onsite mixed and CHGCAR
   VOSKOWN=      0    Vosko Wilk Nusair interpolation
   ROPT   =    0.00000   0.00000
 Ionic relaxation
   EDIFFG = 0.1E-04   stopping-criterion for IOM
   NSW    =      0    number of steps for IOM
   NBLOCK =      1;   KBLOCK =      1    inner block; outer block 
   IBRION =     -1    ionic relax: 0-MD 1-quasi-New 2-CG
   NFREE  =      1    steps in history (QN), initial steepest desc. (CG)
   ISIF   =      2    stress and relaxation
   IWAVPR =     10    prediction:  0-non 1-charg 2-wave 3-comb
   ISYM   =      2    0-nonsym 1-usesym 2-fastsym
   LCORR  =      T    Harris-Foulkes like correction to forces

   POTIM  = 0.5000    time-step for ionic-motion
   TEIN   =    0.0    initial temperature
   TEBEG  =    0.0;   TEEND  =   0.0 temperature during run
   SMASS  =  -3.00    Nose mass-parameter (am)
   estimated Nose-frequenzy (Omega)   =  0.10E-29 period in steps =****** mass=  -0.295E-27a.u.
   SCALEE = 1.0000    scale energy and forces
   NPACO  =    256;   APACO  = 16.0  distance and # of slots for P.C.
   PSTRESS=    0.0 pullay stress

  Mass of Ions in am
   POMASS = 151.97 16.00
  Ionic Valenz
   ZVAL   =  17.00  6.00
  Atomic Wigner-Seitz radii
   RWIGS  =  -1.00 -1.00
  virtual crystal weights 
   VCA    =   1.00  1.00
   NELECT =      92.0000    total number of electrons
   NUPDOWN=      -1.0000    fix difference up-down

 DOS related values:
   EMIN   =  10.00;   EMAX   =-10.00  energy-range for DOS
   EFERMI =   0.00
   ISMEAR =     1;   SIGMA  =   0.10  broadening in eV -4-tet -1-fermi 0-gaus

 Electronic relaxation 2 (details)
   IALGO  =     38    algorithm
   LDIAG  =      T    sub-space diagonalisation (order eigenvalues)
   LSUBROT=      F    optimize rotation matrix (better conditioning)
   TURBO    =      0    0=normal 1=particle mesh
   IRESTART =      0    0=no restart 2=restart with 2 vectors
   NREBOOT  =      0    no. of reboots
   NMIN     =      0    reboot dimension
   EREF     =   0.00    reference energy to select bands
   IMIX   =      4    mixing-type and parameters
     AMIX     =   0.40;   BMIX     =  1.00
     AMIX_MAG =   1.60;   BMIX_MAG =  1.00
     AMIN     =   0.10
     WC   =   100.;   INIMIX=   1;  MIXPRE=   1;  MAXMIX= -45

 Intra band minimization:
   WEIMIN = 0.0000     energy-eigenvalue tresh-hold
   EBREAK =  0.45E-08  absolut break condition
   DEPER  =   0.30     relativ break condition  

   TIME   =   0.40     timestep for ELM

  volume/ion in A,a.u.               =      16.39       110.63
  Fermi-wavevector in a.u.,A,eV,Ry     =   1.454607  2.748810 28.788335  2.115883
  Thomas-Fermi vector in A             =   2.571738
 
 Write flags
   LWAVE        =      F    write WAVECAR
   LDOWNSAMPLE  =      F    k-point downsampling of WAVECAR
   LCHARG       =      F    write CHGCAR
   LVTOT        =      F    write LOCPOT, total local potential
   LVHAR        =      F    write LOCPOT, Hartree potential only
   LELF         =      F    write electronic localiz. function (ELF)
   LORBIT       =     11    0 simple, 1 ext, 2 COOP (PROOUT), +10 PAW based schemes


 Dipole corrections
   LMONO  =      F    monopole corrections only (constant potential shift)
   LDIPOL =      F    correct potential (dipole corrections)
   IDIPOL =      0    1-x, 2-y, 3-z, 4-all directions 
   EPSILON=  1.0000000 bulk dielectric constant

 Exchange correlation treatment:
   GGA     =    --    GGA type
   LEXCH   =     8    internal setting for exchange type
   VOSKOWN=      0    Vosko Wilk Nusair interpolation
   LHFCALC =     F    Hartree Fock is set to
   LHFONE  =     F    Hartree Fock one center treatment
   AEXX    =    0.0000 exact exchange contribution

 Linear response parameters
   LEPSILON=     F    determine dielectric tensor
   LRPA    =     F    only Hartree local field effects (RPA)
   LNABLA  =     F    use nabla operator in PAW spheres
   LVEL    =     F    velocity operator in full k-point grid
   LINTERFAST=   F  fast interpolation
   KINTER  =     0    interpolate to denser k-point grid
   CSHIFT  =0.1000    complex shift for real part using Kramers Kronig
   OMEGAMAX=  -1.0    maximum frequency
   DEG_THRESHOLD= 0.2000000E-02 threshold for treating states as degnerate
   RTIME   =   -0.100 relaxation time in fs
  (WPLASMAI=    0.000 imaginary part of plasma frequency in eV, 0.658/RTIME)
   DFIELD  = 0.0000000 0.0000000 0.0000000 field for delta impulse in time
 
 Orbital magnetization related:
   ORBITALMAG=     F  switch on orbital magnetization
   LCHIMAG   =     F  perturbation theory with respect to B field
   DQ        =  0.001000  dq finite difference perturbation B field
   LLRAUG    =     F  two centre corrections for induced B field



--------------------------------------------------------------------------------------------------------


 Static calculation
 charge density and potential will be updated during run
 spin polarized calculation
 Variant of blocked Davidson
 Davidson routine will perform the subspace rotation
 perform sub-space diagonalisation
    after iterative eigenvector-optimisation
 modified Broyden-mixing scheme, WC =      100.0
 initial mixing is a Kerker type mixing with AMIX =  0.4000 and BMIX =      1.0000
 Hartree-type preconditioning will be used
 using additional bands           10
 reciprocal scheme for non local part
 use partial core corrections
 calculate Harris-corrections to forces 
   (improved forces if not selfconsistent)
 use gradient corrections 
 use of overlap-Matrix (Vanderbilt PP)
 Methfessel and Paxton  Order N= 1 SIGMA  =   0.10


--------------------------------------------------------------------------------------------------------


  energy-cutoff  :      500.00
  volume of cell :      131.15
      direct lattice vectors                 reciprocal lattice vectors
     3.592645600  0.000000000  0.000000000     0.278346409 -0.000005520 -0.000004710
     0.000131900  4.148395800  2.933334000     0.000000000  0.160705608  0.113635041
     0.000017000 -4.148324800  5.866668000     0.000000000 -0.080352804  0.113636986

  length of vectors
     3.592645600  5.080712163  7.185150803     0.278346409  0.196822801  0.139175924


 
 k-points in units of 2pi/SCALE and weight: pymatgen v2020.8.13 with grid density = 
   0.03479330  0.01004341  0.02840841       0.062
   0.10437990  0.01004203  0.02840724       0.062
  -0.10437990  0.01004617  0.02841077       0.062
  -0.03479330  0.01004479  0.02840959       0.062
   0.03479330  0.05021981  0.05681718       0.062
   0.10437990  0.05021843  0.05681600       0.062
  -0.10437990  0.05022257  0.05681953       0.062
  -0.03479330  0.05022119  0.05681835       0.062
   0.03479330 -0.01004479  0.05681766       0.062
   0.10437990 -0.01004617  0.05681648       0.062
  -0.10437990 -0.01004203  0.05682002       0.062
  -0.03479330 -0.01004341  0.05681884       0.062
   0.03479330  0.03013161  0.08522642       0.062
   0.10437990  0.03013023  0.08522524       0.062
  -0.10437990  0.03013437  0.08522878       0.062
  -0.03479330  0.03013299  0.08522760       0.062
 
 k-points in reciprocal lattice and weights: pymatgen v2020.8.13 with grid density = 
   0.12500000  0.12500000  0.12500000       0.062
   0.37500000  0.12500000  0.12500000       0.062
  -0.37500000  0.12500000  0.12500000       0.062
  -0.12500000  0.12500000  0.12500000       0.062
   0.12500000  0.37500000  0.12500000       0.062
   0.37500000  0.37500000  0.12500000       0.062
  -0.37500000  0.37500000  0.12500000       0.062
  -0.12500000  0.37500000  0.12500000       0.062
   0.12500000  0.12500000  0.37500000       0.062
   0.37500000  0.12500000  0.37500000       0.062
  -0.37500000  0.12500000  0.37500000       0.062
  -0.12500000  0.12500000  0.37500000       0.062
   0.12500000  0.37500000  0.37500000       0.062
   0.37500000  0.37500000  0.37500000       0.062
  -0.37500000  0.37500000  0.37500000       0.062
  -0.12500000  0.37500000  0.37500000       0.062
 
 position of ions in fractional coordinates (direct lattice) 
   0.00000000  0.00000000  0.00000000
   0.50000000  0.50000000  0.25000000
   0.00000000  0.00000000  0.50000000
   0.50000000  0.50000000  0.75000000
   0.00000004  0.50000000  0.00000002
   0.50000004  1.00000000  0.25000002
   0.00000004  0.50000000  0.50000002
   0.50000004  1.00000000  0.75000002
 
 position of ions in cartesian coordinates  (Angst):
   0.00000000  0.00000000  0.00000000
   1.79639300  1.03711670  2.93333400
   0.00000850 -2.07416240  2.93333400
   1.79640150 -1.03704570  5.86666800
   0.00006610  2.07419780  1.46666710
   1.79645910  3.11131450  4.40000110
   0.00007460  0.00003540  4.40000110
   1.79646760  1.03715210  7.33333510
 


--------------------------------------------------------------------------------------------------------


 k-point  1 :   0.1250 0.1250 0.1250  plane waves:    3342
 k-point  2 :   0.3750 0.1250 0.1250  plane waves:    3323
 k-point  3 :  -0.3750 0.1250 0.1250  plane waves:    3323
 k-point  4 :  -0.1250 0.1250 0.1250  plane waves:    3342
 k-point  5 :   0.1250 0.3750 0.1250  plane waves:    3341
 k-point  6 :   0.3750 0.3750 0.1250  plane waves:    3332
 k-point  7 :  -0.3750 0.3750 0.1250  plane waves:    3332
 k-point  8 :  -0.1250 0.3750 0.1250  plane waves:    3341
 k-point  9 :   0.1250 0.1250 0.3750  plane waves:    3343
 k-point 10 :   0.3750 0.1250 0.3750  plane waves:    3329
 k-point 11 :  -0.3750 0.1250 0.3750  plane waves:    3329
 k-point 12 :  -0.1250 0.1250 0.3750  plane waves:    3343
 k-point 13 :   0.1250 0.3750 0.3750  plane waves:    3334
 k-point 14 :   0.3750 0.3750 0.3750  plane waves:    3327
 k-point 15 :  -0.3750 0.3750 0.3750  plane waves:    3327
 k-point 16 :  -0.1250 0.3750 0.3750  plane waves:    3334

 maximum and minimum number of plane-waves per node :       846      821

 maximum number of plane-waves:      3343
 maximum index in each direction: 
   IXMAX=    6   IYMAX=    9   IZMAX=   12
   IXMIN=   -6   IYMIN=   -9   IZMIN=  -13


 parallel 3D FFT for wavefunctions:
    minimum data exchange during FFTs selected (reduces bandwidth)
 parallel 3D FFT for charge:
    minimum data exchange during FFTs selected (reduces bandwidth)


 total amount of memory used by VASP MPI-rank0    52887. kBytes
=======================================================================

   base      :      30000. kBytes
   nonl-proj :       6938. kBytes
   fftplans  :        944. kBytes
   grid      :       2280. kBytes
   one-center:        196. kBytes
   wavefun   :      12529. kBytes
 
     INWAV:  cpu time    0.0000: real time    0.0001
 Broyden mixing: mesh for mixing (old mesh)
   NGX = 13   NGY = 19   NGZ = 27
  (NGX  = 40   NGY  = 56   NGZ  = 80)
  gives a total of   6669 points

 initial charge density was supplied:
 charge density of overlapping atoms calculated
 number of electron      92.0000000 magnetization       0.0000000
 keeping initial charge density in first step


--------------------------------------------------------------------------------------------------------


 Maximum index for augmentation-charges         1239 (set IRDMAX)


--------------------------------------------------------------------------------------------------------


 First call to EWALD:  gamma=   0.349
 Maximum number of real-space cells 4x 3x 2
 Maximum number of reciprocal cells 2x 3x 4

    FEWALD:  cpu time    0.0013: real time    0.0013


--------------------------------------- Iteration      1(   1)  ---------------------------------------


    POTLOK:  cpu time    0.0269: real time    0.0305
    SETDIJ:  cpu time    0.0090: real time    0.0090
     EDDAV:  cpu time    1.4303: real time    1.4351
       DOS:  cpu time    0.0020: real time    0.0020
    --------------------------------------------
      LOOP:  cpu time    1.4683: real time    1.4766

 eigenvalue-minimisations  :  4248
 total energy-change (2. order) : 0.1227362E+04  (-0.3083392E+04)
 number of electron      92.0000000 magnetization       0.0000000
 augmentation part       92.0000000 magnetization       0.0000000

 Free energy of the ion-electron system (eV)
  ---------------------------------------------------
  alpha Z        PSCENC =       906.21131108
  Ewald energy   TEWEN  =     -9706.50133840
  -Hartree energ DENC   =     -2789.90800795
  -exchange      EXHF   =         0.00000000
  -V(xc)+E(xc)   XCENC  =       454.64264860
  PAW double counting   =     10245.08530371   -10827.60657067
  entropy T*S    EENTRO =        -0.00089891
  eigenvalues    EBANDS =       736.78764661
  atomic energy  EATOM  =     12208.65233032
  Solvation  Ediel_sol  =         0.00000000
  ---------------------------------------------------
  free energy    TOTEN  =      1227.36242438 eV

  energy without entropy =     1227.36332329  energy(sigma->0) =     1227.36272402


--------------------------------------------------------------------------------------------------------




--------------------------------------- Iteration      1(   2)  ---------------------------------------


     EDDAV:  cpu time    1.6837: real time    1.6894
       DOS:  cpu time    0.0023: real time    0.0023
    --------------------------------------------
      LOOP:  cpu time    1.6861: real time    1.6917

 eigenvalue-minimisations  :  4864
 total energy-change (2. order) :-0.9107436E+03  (-0.8282193E+03)
 number of electron      92.0000000 magnetization       0.0000000
 augmentation part       92.0000000 magnetization       0.0000000

 Free energy of the ion-electron system (eV)
  ---------------------------------------------------
  alpha Z        PSCENC =       906.21131108
  Ewald energy   TEWEN  =     -9706.50133840
  -Hartree energ DENC   =     -2789.90800795
  -exchange      EXHF   =         0.00000000
  -V(xc)+E(xc)   XCENC  =       454.64264860
  PAW double counting   =     10245.08530371   -10827.60657067
  entropy T*S    EENTRO =        -0.00231658
  eigenvalues    EBANDS =      -173.95450920
  atomic energy  EATOM  =     12208.65233032
  Solvation  Ediel_sol  =         0.00000000
  ---------------------------------------------------
  free energy    TOTEN  =       316.61885090 eV

  energy without entropy =      316.62116749  energy(sigma->0) =      316.61962310


--------------------------------------------------------------------------------------------------------




--------------------------------------- Iteration      1(   3)  ---------------------------------------


     EDDAV:  cpu time    1.7894: real time    1.7937
       DOS:  cpu time    0.0021: real time    0.0021
    --------------------------------------------
      LOOP:  cpu time    1.7915: real time    1.7959

 eigenvalue-minimisations  :  5264
 total energy-change (2. order) :-0.3276747E+03  (-0.3175731E+03)
 number of electron      92.0000000 magnetization       0.0000000
 augmentation part       92.0000000 magnetization       0.0000000

 Free energy of the ion-electron system (eV)
  ---------------------------------------------------
  alpha Z        PSCENC =       906.21131108
  Ewald energy   TEWEN  =     -9706.50133840
  -Hartree energ DENC   =     -2789.90800795
  -exchange      EXHF   =         0.00000000
  -V(xc)+E(xc)   XCENC  =       454.64264860
  PAW double counting   =     10245.08530371   -10827.60657067
  entropy T*S    EENTRO =         0.00180414
  eigenvalues    EBANDS =      -501.63329435
  atomic energy  EATOM  =     12208.65233032
  Solvation  Ediel_sol  =         0.00000000
  ---------------------------------------------------
  free energy    TOTEN  =       -11.05581353 eV

  energy without entropy =      -11.05761766  energy(sigma->0) =      -11.05641491


--------------------------------------------------------------------------------------------------------




--------------------------------------- Iteration      1(   4)  ---------------------------------------


     EDDAV:  cpu time    2.2850: real time    2.2905
       DOS:  cpu time    0.0025: real time    0.0025
    --------------------------------------------
      LOOP:  cpu time    2.2875: real time    2.2931

 eigenvalue-minimisations  :  6800
 total energy-change (2. order) :-0.6958220E+02  (-0.6734673E+02)
 number of electron      92.0000000 magnetization       0.0000000
 augmentation part       92.0000000 magnetization       0.0000000

 Free energy of the ion-electron system (eV)
  ---------------------------------------------------
  alpha Z        PSCENC =       906.21131108
  Ewald energy   TEWEN  =     -9706.50133840
  -Hartree energ DENC   =     -2789.90800795
  -exchange      EXHF   =         0.00000000
  -V(xc)+E(xc)   XCENC  =       454.64264860
  PAW double counting   =     10245.08530371   -10827.60657067
  entropy T*S    EENTRO =         0.01120474
  eigenvalues    EBANDS =      -571.22489896
  atomic energy  EATOM  =     12208.65233032
  Solvation  Ediel_sol  =         0.00000000
  ---------------------------------------------------
  free energy    TOTEN  =       -80.63801753 eV

  energy without entropy =      -80.64922227  energy(sigma->0) =      -80.64175245


--------------------------------------------------------------------------------------------------------




--------------------------------------- Iteration      1(   5)  ---------------------------------------


     EDDAV:  cpu time    2.2718: real time    2.2773
       DOS:  cpu time    0.0026: real time    0.0026
    CHARGE:  cpu time    0.0908: real time    0.0910
    MIXING:  cpu time    0.0008: real time    0.0008
    --------------------------------------------
      LOOP:  cpu time    2.3660: real time    2.3717

 eigenvalue-minimisations  :  6880
 total energy-change (2. order) :-0.8423922E+01  (-0.7753173E+01)
 number of electron      92.0000123 magnetization      -0.0000000
 augmentation part       18.2131520 magnetization      -0.0000000

 Broyden mixing:
  rms(total) = 0.38051E+01    rms(broyden)= 0.38048E+01
  rms(prec ) = 0.60675E+01
  weight for this iteration     100.00

 Free energy of the ion-electron system (eV)
  ---------------------------------------------------
  alpha Z        PSCENC =       906.21131108
  Ewald energy   TEWEN  =     -9706.50133840
  -Hartree energ DENC   =     -2789.90800795
  -exchange      EXHF   =         0.00000000
  -V(xc)+E(xc)   XCENC  =       454.64264860
  PAW double counting   =     10245.08530371   -10827.60657067
  entropy T*S    EENTRO =        -0.01048746
  eigenvalues    EBANDS =      -579.62712873
  atomic energy  EATOM  =     12208.65233032
  Solvation  Ediel_sol  =         0.00000000
  ---------------------------------------------------
  free energy    TOTEN  =       -89.06193951 eV

  energy without entropy =      -89.05145205  energy(sigma->0) =      -89.05844369


--------------------------------------------------------------------------------------------------------




--------------------------------------- Iteration      1(   6)  ---------------------------------------


    POTLOK:  cpu time    0.0260: real time    0.0262
    SETDIJ:  cpu time    0.0095: real time    0.0095
     EDDAV:  cpu time    2.0965: real time    2.1015
       DOS:  cpu time    0.0023: real time    0.0023
    CHARGE:  cpu time    0.0827: real time    0.0829
    MIXING:  cpu time    0.0012: real time    0.0012
    --------------------------------------------
      LOOP:  cpu time    2.2182: real time    2.2237

 eigenvalue-minimisations  :  6112
 total energy-change (2. order) :-0.6432659E+02  (-0.8545731E+02)
 number of electron      92.0000150 magnetization       0.0000000
 augmentation part       44.6141019 magnetization       0.0000000

 Broyden mixing:
  rms(total) = 0.16283E+02    rms(broyden)= 0.16283E+02
  rms(prec ) = 0.22873E+02
  weight for this iteration     100.00

 eigenvalues of (default mixing * dielectric matrix)
  average eigenvalue GAMMA=   0.1326
  0.1326

 Free energy of the ion-electron system (eV)
  ---------------------------------------------------
  alpha Z        PSCENC =       906.21131108
  Ewald energy   TEWEN  =     -9706.50133840
  -Hartree energ DENC   =     -2540.65841457
  -exchange      EXHF   =         0.00000000
  -V(xc)+E(xc)   XCENC  =       448.05028973
  PAW double counting   =      9880.09294912   -10360.73388839
  entropy T*S    EENTRO =         0.00475516
  eigenvalues    EBANDS =      -988.50652399
  atomic energy  EATOM  =     12208.65233032
  Solvation  Ediel_sol  =         0.00000000
  ---------------------------------------------------
  free energy    TOTEN  =      -153.38852996 eV

  energy without entropy =     -153.39328511  energy(sigma->0) =     -153.39011501


--------------------------------------------------------------------------------------------------------




--------------------------------------- Iteration      1(   7)  ---------------------------------------


    POTLOK:  cpu time    0.0249: real time    0.0251
    SETDIJ:  cpu time    0.0086: real time    0.0086
     EDDAV:  cpu time    1.8655: real time    1.8699
       DOS:  cpu time    0.0021: real time    0.0021
    CHARGE:  cpu time    0.0863: real time    0.0865
    MIXING:  cpu time    0.0009: real time    0.0009
    --------------------------------------------
      LOOP:  cpu time    1.9882: real time    1.9930

 eigenvalue-minimisations  :  5456
 total energy-change (2. order) : 0.1075615E+03  (-0.8942651E+02)
 number of electron      92.0000107 magnetization       0.0000000
 augmentation part       23.4037727 magnetization       0.0000000

 Broyden mixing:
  rms(total) = 0.57243E+01    rms(broyden)= 0.57241E+01
  rms(prec ) = 0.58589E+01
  weight for this iteration     100.00

 eigenvalues of (default mixing * dielectric matrix)
  average eigenvalue GAMMA=   0.1566
  0.1566  0.1566

 Free energy of the ion-electron system (eV)
  ---------------------------------------------------
  alpha Z        PSCENC =       906.21131108
  Ewald energy   TEWEN  =     -9706.50133840
  -Hartree energ DENC   =     -2701.31880947
  -exchange      EXHF   =         0.00000000
  -V(xc)+E(xc)   XCENC  =       448.79333924
  PAW double counting   =     10299.88832622   -10880.92246185
  entropy T*S    EENTRO =        -0.00081725
  eigenvalues    EBANDS =      -620.62890449
  atomic energy  EATOM  =     12208.65233032
  Solvation  Ediel_sol  =         0.00000000
  ---------------------------------------------------
  free energy    TOTEN  =       -45.82702461 eV

  energy without entropy =      -45.82620736  energy(sigma->0) =      -45.82675219


--------------------------------------------------------------------------------------------------------




--------------------------------------- Iteration      1(   8)  ---------------------------------------


    POTLOK:  cpu time    0.0236: real time    0.0238
    SETDIJ:  cpu time    0.0086: real time    0.0087
     EDDAV:  cpu time    2.1539: real time    2.1590
       DOS:  cpu time    0.0024: real time    0.0025
    CHARGE:  cpu time    0.0784: real time    0.0785
    MIXING:  cpu time    0.0012: real time    0.0012
    --------------------------------------------
      LOOP:  cpu time    2.2682: real time    2.2737

 eigenvalue-minimisations  :  6544
 total energy-change (2. order) :-0.3522030E+02  (-0.3298518E+02)
 number of electron      92.0000120 magnetization      -0.0000000
 augmentation part       24.3492323 magnetization      -0.0000000

 Broyden mixing:
  rms(total) = 0.30603E+01    rms(broyden)= 0.30600E+01
  rms(prec ) = 0.32693E+01
  weight for this iteration     100.00

 eigenvalues of (default mixing * dielectric matrix)
  average eigenvalue GAMMA=   0.2714
  0.2938  0.2938  0.2264

 Free energy of the ion-electron system (eV)
  ---------------------------------------------------
  alpha Z        PSCENC =       906.21131108
  Ewald energy   TEWEN  =     -9706.50133840
  -Hartree energ DENC   =     -2701.65402779
  -exchange      EXHF   =         0.00000000
  -V(xc)+E(xc)   XCENC  =       451.15232284
  PAW double counting   =     10332.25779989   -10915.94983840
  entropy T*S    EENTRO =         0.01919384
  eigenvalues    EBANDS =      -655.23507971
  atomic energy  EATOM  =     12208.65233032
  Solvation  Ediel_sol  =         0.00000000
  ---------------------------------------------------
  free energy    TOTEN  =       -81.04732631 eV

  energy without entropy =      -81.06652016  energy(sigma->0) =      -81.05372426


--------------------------------------------------------------------------------------------------------




--------------------------------------- Iteration      1(   9)  ---------------------------------------


    POTLOK:  cpu time    0.0250: real time    0.0252
    SETDIJ:  cpu time    0.0095: real time    0.0095
     EDDAV:  cpu time    1.8154: real time    1.8197
       DOS:  cpu time    0.0025: real time    0.0025
    CHARGE:  cpu time    0.0815: real time    0.0817
    MIXING:  cpu time    0.0009: real time    0.0009
    --------------------------------------------
      LOOP:  cpu time    1.9348: real time    1.9395

 eigenvalue-minimisations  :  5704
 total energy-change (2. order) :-0.1701372E+01  (-0.2881533E+01)
 number of electron      92.0000115 magnetization      -0.0000000
 augmentation part       22.4129225 magnetization      -0.0000000

 Broyden mixing:
  rms(total) = 0.15242E+01    rms(broyden)= 0.15242E+01
  rms(prec ) = 0.17615E+01
  weight for this iteration     100.00

 eigenvalues of (default mixing * dielectric matrix)
  average eigenvalue GAMMA=   0.4411
  0.7576  0.2357  0.3856  0.3856

 Free energy of the ion-electron system (eV)
  ---------------------------------------------------
  alpha Z        PSCENC =       906.21131108
  Ewald energy   TEWEN  =     -9706.50133840
  -Hartree energ DENC   =     -2759.51569850
  -exchange      EXHF   =         0.00000000
  -V(xc)+E(xc)   XCENC  =       457.58244212
  PAW double counting   =     10422.13080609   -11029.39498478
  entropy T*S    EENTRO =         0.04243491
  eigenvalues    EBANDS =      -581.95600163
  atomic energy  EATOM  =     12208.65233032
  Solvation  Ediel_sol  =         0.00000000
  ---------------------------------------------------
  free energy    TOTEN  =       -82.74869880 eV

  energy without entropy =      -82.79113371  energy(sigma->0) =      -82.76284377


--------------------------------------------------------------------------------------------------------




--------------------------------------- Iteration      1(  10)  ---------------------------------------


    POTLOK:  cpu time    0.0225: real time    0.0226
    SETDIJ:  cpu time    0.0083: real time    0.0083
     EDDAV:  cpu time    2.2018: real time    2.2076
       DOS:  cpu time    0.0026: real time    0.0026
    CHARGE:  cpu time    0.0856: real time    0.0858
    MIXING:  cpu time    0.0011: real time    0.0011
    --------------------------------------------
      LOOP:  cpu time    2.3219: real time    2.3281

 eigenvalue-minimisations  :  7144
 total energy-change (2. order) :-0.2299269E+00  (-0.3305053E+00)
 number of electron      92.0000114 magnetization      -0.0000000
 augmentation part       22.5079729 magnetization      -0.0000000

 Broyden mixing:
  rms(total) = 0.12634E+01    rms(broyden)= 0.12634E+01
  rms(prec ) = 0.14105E+01
  weight for this iteration     100.00

 eigenvalues of (default mixing * dielectric matrix)
  average eigenvalue GAMMA=   0.5106
  0.8260  0.8260  0.2353  0.3329  0.3329

 Free energy of the ion-electron system (eV)
  ---------------------------------------------------
  alpha Z        PSCENC =       906.21131108
  Ewald energy   TEWEN  =     -9706.50133840
  -Hartree energ DENC   =     -2761.38328040
  -exchange      EXHF   =         0.00000000
  -V(xc)+E(xc)   XCENC  =       459.23777148
  PAW double counting   =     10452.03863973   -11066.31895520
  entropy T*S    EENTRO =         0.03555528
  eigenvalues    EBANDS =      -574.95065955
  atomic energy  EATOM  =     12208.65233032
  Solvation  Ediel_sol  =         0.00000000
  ---------------------------------------------------
  free energy    TOTEN  =       -82.97862567 eV

  energy without entropy =      -83.01418095  energy(sigma->0) =      -82.99047743


--------------------------------------------------------------------------------------------------------




--------------------------------------- Iteration      1(  11)  ---------------------------------------


    POTLOK:  cpu time    0.0250: real time    0.0251
    SETDIJ:  cpu time    0.0093: real time    0.0093
     EDDAV:  cpu time    2.1806: real time    2.1858
       DOS:  cpu time    0.0025: real time    0.0025
    CHARGE:  cpu time    0.0829: real time    0.0831
    MIXING:  cpu time    0.0011: real time    0.0011
    --------------------------------------------
      LOOP:  cpu time    2.3013: real time    2.3069

 eigenvalue-minimisations  :  6672
 total energy-change (2. order) :-0.3929380E-01  (-0.4606755E-01)
 number of electron      92.0000114 magnetization      -0.0000000
 augmentation part       22.7881971 magnetization      -0.0000000

 Broyden mixing:
  rms(total) = 0.10811E+01    rms(broyden)= 0.10811E+01
  rms(prec ) = 0.11537E+01
  weight for this iteration     100.00

 eigenvalues of (default mixing * dielectric matrix)
  average eigenvalue GAMMA=   0.7485
  1.4673  1.4673  0.2346  0.3577  0.3577  0.6067

 Free energy of the ion-electron system (eV)
  ---------------------------------------------------
  alpha Z        PSCENC =       906.21131108
  Ewald energy   TEWEN  =     -9706.50133840
  -Hartree energ DENC   =     -2758.36246638
  -exchange      EXHF   =         0.00000000
  -V(xc)+E(xc)   XCENC  =       460.24641621
  PAW double counting   =     10471.18076833   -11086.33288555
  entropy T*S    EENTRO =         0.03935720
  eigenvalues    EBANDS =      -578.15141227
  atomic energy  EATOM  =     12208.65233032
  Solvation  Ediel_sol  =         0.00000000
  ---------------------------------------------------
  free energy    TOTEN  =       -83.01791947 eV

  energy without entropy =      -83.05727667  energy(sigma->0) =      -83.03103854


--------------------------------------------------------------------------------------------------------




--------------------------------------- Iteration      1(  12)  ---------------------------------------


    POTLOK:  cpu time    0.0235: real time    0.0236
    SETDIJ:  cpu time    0.0087: real time    0.0088
     EDDAV:  cpu time    2.1947: real time    2.1999
       DOS:  cpu time    0.0024: real time    0.0024
    CHARGE:  cpu time    0.0784: real time    0.0786
    MIXING:  cpu time    0.0013: real time    0.0013
    --------------------------------------------
      LOOP:  cpu time    2.3090: real time    2.3146

 eigenvalue-minimisations  :  6576
 total energy-change (2. order) :-0.2001704E+00  (-0.6284380E-01)
 number of electron      92.0000113 magnetization      -0.0000000
 augmentation part       23.1718619 magnetization      -0.0000000

 Broyden mixing:
  rms(total) = 0.63744E+00    rms(broyden)= 0.63743E+00
  rms(prec ) = 0.66221E+00
  weight for this iteration     100.00

 eigenvalues of (default mixing * dielectric matrix)
  average eigenvalue GAMMA=   0.8981
  2.7066  1.3188  0.2346  0.3527  0.3527  0.6607  0.6607

 Free energy of the ion-electron system (eV)
  ---------------------------------------------------
  alpha Z        PSCENC =       906.21131108
  Ewald energy   TEWEN  =     -9706.50133840
  -Hartree energ DENC   =     -2757.73774320
  -exchange      EXHF   =         0.00000000
  -V(xc)+E(xc)   XCENC  =       462.98615824
  PAW double counting   =     10525.11508322   -11142.83316594
  entropy T*S    EENTRO =         0.03350945
  eigenvalues    EBANDS =      -579.14423461
  atomic energy  EATOM  =     12208.65233032
  Solvation  Ediel_sol  =         0.00000000
  ---------------------------------------------------
  free energy    TOTEN  =       -83.21808985 eV

  energy without entropy =      -83.25159930  energy(sigma->0) =      -83.22925967


--------------------------------------------------------------------------------------------------------




--------------------------------------- Iteration      1(  13)  ---------------------------------------


    POTLOK:  cpu time    0.0250: real time    0.0251
    SETDIJ:  cpu time    0.0094: real time    0.0095
     EDDAV:  cpu time    2.2374: real time    2.2427
       DOS:  cpu time    0.0025: real time    0.0025
    CHARGE:  cpu time    0.0797: real time    0.0798
    MIXING:  cpu time    0.0012: real time    0.0012
    --------------------------------------------
      LOOP:  cpu time    2.3552: real time    2.3609

 eigenvalue-minimisations  :  6768
 total energy-change (2. order) :-0.9648692E-01  (-0.2476820E-01)
 number of electron      92.0000113 magnetization      -0.0000000
 augmentation part       23.3271137 magnetization      -0.0000000

 Broyden mixing:
  rms(total) = 0.51333E+00    rms(broyden)= 0.51332E+00
  rms(prec ) = 0.57550E+00
  weight for this iteration     100.00

 eigenvalues of (default mixing * dielectric matrix)
  average eigenvalue GAMMA=   0.8918
  3.0076  1.2847  0.6985  0.6985  0.2346  0.3550  0.3550  0.5007

 Free energy of the ion-electron system (eV)
  ---------------------------------------------------
  alpha Z        PSCENC =       906.21131108
  Ewald energy   TEWEN  =     -9706.50133840
  -Hartree energ DENC   =     -2757.91753851
  -exchange      EXHF   =         0.00000000
  -V(xc)+E(xc)   XCENC  =       464.35180348
  PAW double counting   =     10535.49223973   -11152.53475010
  entropy T*S    EENTRO =         0.03191172
  eigenvalues    EBANDS =      -581.10054608
  atomic energy  EATOM  =     12208.65233032
  Solvation  Ediel_sol  =         0.00000000
  ---------------------------------------------------
  free energy    TOTEN  =       -83.31457677 eV

  energy without entropy =      -83.34648849  energy(sigma->0) =      -83.32521401


--------------------------------------------------------------------------------------------------------




--------------------------------------- Iteration      1(  14)  ---------------------------------------


    POTLOK:  cpu time    0.0227: real time    0.0228
    SETDIJ:  cpu time    0.0087: real time    0.0087
     EDDAV:  cpu time    2.1583: real time    2.1636
       DOS:  cpu time    0.0024: real time    0.0024
    CHARGE:  cpu time    0.0806: real time    0.0808
    MIXING:  cpu time    0.0016: real time    0.0016
    --------------------------------------------
      LOOP:  cpu time    2.2743: real time    2.2800

 eigenvalue-minimisations  :  6480
 total energy-change (2. order) :-0.1055869E-01  (-0.4160010E-02)
 number of electron      92.0000113 magnetization      -0.0000000
 augmentation part       23.3789932 magnetization      -0.0000000

 Broyden mixing:
  rms(total) = 0.46689E+00    rms(broyden)= 0.46689E+00
  rms(prec ) = 0.53860E+00
  weight for this iteration     100.00

 eigenvalues of (default mixing * dielectric matrix)
  average eigenvalue GAMMA=   0.9479
  3.1333  1.1593  0.9961  0.9961  0.2346  0.3543  0.3543  0.6514  0.6514

 Free energy of the ion-electron system (eV)
  ---------------------------------------------------
  alpha Z        PSCENC =       906.21131108
  Ewald energy   TEWEN  =     -9706.50133840
  -Hartree energ DENC   =     -2758.30616978
  -exchange      EXHF   =         0.00000000
  -V(xc)+E(xc)   XCENC  =       464.88599180
  PAW double counting   =     10541.66101190   -11157.74901176
  entropy T*S    EENTRO =         0.03152865
  eigenvalues    EBANDS =      -582.21078928
  atomic energy  EATOM  =     12208.65233032
  Solvation  Ediel_sol  =         0.00000000
  ---------------------------------------------------
  free energy    TOTEN  =       -83.32513546 eV

  energy without entropy =      -83.35666411  energy(sigma->0) =      -83.33564501


--------------------------------------------------------------------------------------------------------




--------------------------------------- Iteration      1(  15)  ---------------------------------------


    POTLOK:  cpu time    0.0250: real time    0.0252
    SETDIJ:  cpu time    0.0092: real time    0.0092
     EDDAV:  cpu time    2.1911: real time    2.1963
       DOS:  cpu time    0.0025: real time    0.0025
    CHARGE:  cpu time    0.0845: real time    0.0847
    MIXING:  cpu time    0.0017: real time    0.0017
    --------------------------------------------
      LOOP:  cpu time    2.3141: real time    2.3196

 eigenvalue-minimisations  :  6608
 total energy-change (2. order) : 0.1312525E-01  (-0.1367966E-02)
 number of electron      92.0000113 magnetization      -0.0000000
 augmentation part       23.4117592 magnetization      -0.0000000

 Broyden mixing:
  rms(total) = 0.38529E+00    rms(broyden)= 0.38529E+00
  rms(prec ) = 0.46332E+00
  weight for this iteration     100.00

 eigenvalues of (default mixing * dielectric matrix)
  average eigenvalue GAMMA=   1.0540
  3.4329  1.6755  1.6755  0.2346  0.3544  0.3544  0.8470  0.6887  0.6887  0.5881

 Free energy of the ion-electron system (eV)
  ---------------------------------------------------
  alpha Z        PSCENC =       906.21131108
  Ewald energy   TEWEN  =     -9706.50133840
  -Hartree energ DENC   =     -2759.48668398
  -exchange      EXHF   =         0.00000000
  -V(xc)+E(xc)   XCENC  =       465.54178572
  PAW double counting   =     10553.43365487   -11168.54487557
  entropy T*S    EENTRO =         0.03155638
  eigenvalues    EBANDS =      -582.64975063
  atomic energy  EATOM  =     12208.65233032
  Solvation  Ediel_sol  =         0.00000000
  ---------------------------------------------------
  free energy    TOTEN  =       -83.31201021 eV

  energy without entropy =      -83.34356660  energy(sigma->0) =      -83.32252901


--------------------------------------------------------------------------------------------------------




--------------------------------------- Iteration      1(  16)  ---------------------------------------


    POTLOK:  cpu time    0.0252: real time    0.0254
    SETDIJ:  cpu time    0.0094: real time    0.0095
     EDDAV:  cpu time    2.1990: real time    2.2044
       DOS:  cpu time    0.0025: real time    0.0025
    CHARGE:  cpu time    0.0831: real time    0.0833
    MIXING:  cpu time    0.0021: real time    0.0021
    --------------------------------------------
      LOOP:  cpu time    2.3213: real time    2.3271

 eigenvalue-minimisations  :  6728
 total energy-change (2. order) : 0.6497008E-01  (-0.5731396E-02)
 number of electron      92.0000114 magnetization      -0.0000000
 augmentation part       23.4550375 magnetization      -0.0000000

 Broyden mixing:
  rms(total) = 0.31666E+00    rms(broyden)= 0.31666E+00
  rms(prec ) = 0.36618E+00
  weight for this iteration     100.00

 eigenvalues of (default mixing * dielectric matrix)
  average eigenvalue GAMMA=   1.2266
  3.6269  2.5896  2.5896  0.8745  0.8745  0.2346  0.3544  0.3544  0.7042  0.7042
  0.5860

 Free energy of the ion-electron system (eV)
  ---------------------------------------------------
  alpha Z        PSCENC =       906.21131108
  Ewald energy   TEWEN  =     -9706.50133840
  -Hartree energ DENC   =     -2759.71330413
  -exchange      EXHF   =         0.00000000
  -V(xc)+E(xc)   XCENC  =       466.16966964
  PAW double counting   =     10575.26548625   -11189.31655361
  entropy T*S    EENTRO =         0.03298906
  eigenvalues    EBANDS =      -584.04763035
  atomic energy  EATOM  =     12208.65233032
  Solvation  Ediel_sol  =         0.00000000
  ---------------------------------------------------
  free energy    TOTEN  =       -83.24704014 eV

  energy without entropy =      -83.28002920  energy(sigma->0) =      -83.25803649


--------------------------------------------------------------------------------------------------------




--------------------------------------- Iteration      1(  17)  ---------------------------------------


    POTLOK:  cpu time    0.0254: real time    0.0256
    SETDIJ:  cpu time    0.0095: real time    0.0096
     EDDAV:  cpu time    2.1404: real time    2.1455
       DOS:  cpu time    0.0025: real time    0.0025
    CHARGE:  cpu time    0.0794: real time    0.0796
    MIXING:  cpu time    0.0020: real time    0.0020
    --------------------------------------------
      LOOP:  cpu time    2.2592: real time    2.2648

 eigenvalue-minimisations  :  6576
 total energy-change (2. order) : 0.1521272E-01  (-0.6832887E-02)
 number of electron      92.0000114 magnetization      -0.0000000
 augmentation part       23.4153924 magnetization      -0.0000000

 Broyden mixing:
  rms(total) = 0.21091E+00    rms(broyden)= 0.21091E+00
  rms(prec ) = 0.22723E+00
  weight for this iteration     100.00

 eigenvalues of (default mixing * dielectric matrix)
  average eigenvalue GAMMA=   1.2725
  3.4953  3.4953  2.5689  1.0344  1.0344  0.2346  0.3544  0.3544  0.7505  0.7505
  0.5989  0.5989

 Free energy of the ion-electron system (eV)
  ---------------------------------------------------
  alpha Z        PSCENC =       906.21131108
  Ewald energy   TEWEN  =     -9706.50133840
  -Hartree energ DENC   =     -2758.16423663
  -exchange      EXHF   =         0.00000000
  -V(xc)+E(xc)   XCENC  =       465.62539571
  PAW double counting   =     10580.69618453   -11195.26123757
  entropy T*S    EENTRO =         0.03532383
  eigenvalues    EBANDS =      -584.52556028
  atomic energy  EATOM  =     12208.65233032
  Solvation  Ediel_sol  =         0.00000000
  ---------------------------------------------------
  free energy    TOTEN  =       -83.23182742 eV

  energy without entropy =      -83.26715125  energy(sigma->0) =      -83.24360203


--------------------------------------------------------------------------------------------------------




--------------------------------------- Iteration      1(  18)  ---------------------------------------


    POTLOK:  cpu time    0.0249: real time    0.0251
    SETDIJ:  cpu time    0.0092: real time    0.0092
     EDDAV:  cpu time    2.1264: real time    2.1314
       DOS:  cpu time    0.0026: real time    0.0026
    CHARGE:  cpu time    0.0878: real time    0.0880
    MIXING:  cpu time    0.0020: real time    0.0020
    --------------------------------------------
      LOOP:  cpu time    2.2529: real time    2.2584

 eigenvalue-minimisations  :  6536
 total energy-change (2. order) :-0.8819759E-02  (-0.4246913E-02)
 number of electron      92.0000115 magnetization      -0.0000000
 augmentation part       23.3593702 magnetization      -0.0000000

 Broyden mixing:
  rms(total) = 0.90528E-01    rms(broyden)= 0.90522E-01
  rms(prec ) = 0.91849E-01
  weight for this iteration     100.00

 eigenvalues of (default mixing * dielectric matrix)
  average eigenvalue GAMMA=   1.2770
  3.7746  3.7746  2.2968  1.1403  1.1403  0.2346  0.3544  0.3544  0.8175  0.8175
  0.6522  0.6522  0.5922

 Free energy of the ion-electron system (eV)
  ---------------------------------------------------
  alpha Z        PSCENC =       906.21131108
  Ewald energy   TEWEN  =     -9706.50133840
  -Hartree energ DENC   =     -2756.84875313
  -exchange      EXHF   =         0.00000000
  -V(xc)+E(xc)   XCENC  =       464.89013787
  PAW double counting   =     10579.45228262   -11194.60059862
  entropy T*S    EENTRO =         0.03696660
  eigenvalues    EBANDS =      -584.53298552
  atomic energy  EATOM  =     12208.65233032
  Solvation  Ediel_sol  =         0.00000000
  ---------------------------------------------------
  free energy    TOTEN  =       -83.24064718 eV

  energy without entropy =      -83.27761377  energy(sigma->0) =      -83.25296938


--------------------------------------------------------------------------------------------------------




--------------------------------------- Iteration      1(  19)  ---------------------------------------


    POTLOK:  cpu time    0.0240: real time    0.0242
    SETDIJ:  cpu time    0.0089: real time    0.0089
     EDDAV:  cpu time    2.0063: real time    2.0111
       DOS:  cpu time    0.0024: real time    0.0024
    CHARGE:  cpu time    0.0802: real time    0.0804
    MIXING:  cpu time    0.0019: real time    0.0019
    --------------------------------------------
      LOOP:  cpu time    2.1238: real time    2.1289

 eigenvalue-minimisations  :  6784
 total energy-change (2. order) :-0.2359033E-02  (-0.6981949E-03)
 number of electron      92.0000115 magnetization      -0.0000000
 augmentation part       23.3326594 magnetization      -0.0000000

 Broyden mixing:
  rms(total) = 0.17773E-01    rms(broyden)= 0.17772E-01
  rms(prec ) = 0.19540E-01
  weight for this iteration     100.00

 eigenvalues of (default mixing * dielectric matrix)
  average eigenvalue GAMMA=   1.2706
  3.8719  3.8719  2.2335  1.4150  0.2346  0.3544  0.3544  0.8778  0.8778  0.8791
  0.8791  0.6829  0.6282  0.6282

 Free energy of the ion-electron system (eV)
  ---------------------------------------------------
  alpha Z        PSCENC =       906.21131108
  Ewald energy   TEWEN  =     -9706.50133840
  -Hartree energ DENC   =     -2756.44580516
  -exchange      EXHF   =         0.00000000
  -V(xc)+E(xc)   XCENC  =       464.53637807
  PAW double counting   =     10574.97170880   -11190.44150873
  entropy T*S    EENTRO =         0.03701494
  eigenvalues    EBANDS =      -584.26309713
  atomic energy  EATOM  =     12208.65233032
  Solvation  Ediel_sol  =         0.00000000
  ---------------------------------------------------
  free energy    TOTEN  =       -83.24300621 eV

  energy without entropy =      -83.28002115  energy(sigma->0) =      -83.25534452


--------------------------------------------------------------------------------------------------------




--------------------------------------- Iteration      1(  20)  ---------------------------------------


    POTLOK:  cpu time    0.0225: real time    0.0227
    SETDIJ:  cpu time    0.0083: real time    0.0083
     EDDAV:  cpu time    2.0892: real time    2.0942
       DOS:  cpu time    0.0026: real time    0.0026
    CHARGE:  cpu time    0.0827: real time    0.0829
    MIXING:  cpu time    0.0024: real time    0.0024
    --------------------------------------------
      LOOP:  cpu time    2.2078: real time    2.2131

 eigenvalue-minimisations  :  6472
 total energy-change (2. order) :-0.8219549E-04  (-0.1010101E-03)
 number of electron      92.0000115 magnetization      -0.0000000
 augmentation part       23.3359418 magnetization      -0.0000000

 Broyden mixing:
  rms(total) = 0.11153E-01    rms(broyden)= 0.11153E-01
  rms(prec ) = 0.13442E-01
  weight for this iteration     100.00

 eigenvalues of (default mixing * dielectric matrix)
  average eigenvalue GAMMA=   1.2586
  3.7870  3.7870  2.2427  1.6182  1.0135  1.0135  1.0255  0.2346  0.3544  0.3544
  0.7769  0.7769  0.6776  0.5935  0.6239

 Free energy of the ion-electron system (eV)
  ---------------------------------------------------
  alpha Z        PSCENC =       906.21131108
  Ewald energy   TEWEN  =     -9706.50133840
  -Hartree energ DENC   =     -2756.33392075
  -exchange      EXHF   =         0.00000000
  -V(xc)+E(xc)   XCENC  =       464.51438047
  PAW double counting   =     10572.89040990   -11188.38023118
  entropy T*S    EENTRO =         0.03690220
  eigenvalues    EBANDS =      -584.33293203
  atomic energy  EATOM  =     12208.65233032
  Solvation  Ediel_sol  =         0.00000000
  ---------------------------------------------------
  free energy    TOTEN  =       -83.24308840 eV

  energy without entropy =      -83.27999061  energy(sigma->0) =      -83.25538914


--------------------------------------------------------------------------------------------------------




--------------------------------------- Iteration      1(  21)  ---------------------------------------


    POTLOK:  cpu time    0.0245: real time    0.0247
    SETDIJ:  cpu time    0.0091: real time    0.0091
     EDDAV:  cpu time    2.2962: real time    2.3017
       DOS:  cpu time    0.0025: real time    0.0025
    CHARGE:  cpu time    0.0854: real time    0.0856
    MIXING:  cpu time    0.0025: real time    0.0025
    --------------------------------------------
      LOOP:  cpu time    2.4202: real time    2.4260

 eigenvalue-minimisations  :  6944
 total energy-change (2. order) : 0.8124926E-04  (-0.3556838E-04)
 number of electron      92.0000115 magnetization      -0.0000000
 augmentation part       23.3379381 magnetization      -0.0000000

 Broyden mixing:
  rms(total) = 0.97069E-02    rms(broyden)= 0.97065E-02
  rms(prec ) = 0.98992E-02
  weight for this iteration     100.00

 eigenvalues of (default mixing * dielectric matrix)
  average eigenvalue GAMMA=   1.3271
  3.8065  3.8065  2.4973  2.4973  1.2259  1.1030  1.1030  0.2346  0.3544  0.3544
  0.8261  0.8261  0.6829  0.6829  0.6160  0.6160

 Free energy of the ion-electron system (eV)
  ---------------------------------------------------
  alpha Z        PSCENC =       906.21131108
  Ewald energy   TEWEN  =     -9706.50133840
  -Hartree energ DENC   =     -2756.49349533
  -exchange      EXHF   =         0.00000000
  -V(xc)+E(xc)   XCENC  =       464.56077668
  PAW double counting   =     10571.34906715   -11186.83375884
  entropy T*S    EENTRO =         0.03677377
  eigenvalues    EBANDS =      -584.22467357
  atomic energy  EATOM  =     12208.65233032
  Solvation  Ediel_sol  =         0.00000000
  ---------------------------------------------------
  free energy    TOTEN  =       -83.24300716 eV

  energy without entropy =      -83.27978092  energy(sigma->0) =      -83.25526508


--------------------------------------------------------------------------------------------------------




--------------------------------------- Iteration      1(  22)  ---------------------------------------


    POTLOK:  cpu time    0.0253: real time    0.0255
    SETDIJ:  cpu time    0.0095: real time    0.0095
     EDDAV:  cpu time    2.1798: real time    2.1849
       DOS:  cpu time    0.0025: real time    0.0025
    CHARGE:  cpu time    0.0827: real time    0.0829
    MIXING:  cpu time    0.0025: real time    0.0025
    --------------------------------------------
      LOOP:  cpu time    2.3023: real time    2.3079

 eigenvalue-minimisations  :  6432
 total energy-change (2. order) :-0.2299092E-04  (-0.1427071E-04)
 number of electron      92.0000115 magnetization      -0.0000000
 augmentation part       23.3320922 magnetization      -0.0000000

 Broyden mixing:
  rms(total) = 0.22392E-02    rms(broyden)= 0.22387E-02
  rms(prec ) = 0.25473E-02
  weight for this iteration     100.00

 eigenvalues of (default mixing * dielectric matrix)
  average eigenvalue GAMMA=   1.2786
  3.8011  3.8011  2.4823  2.4823  1.1188  1.1188  0.9675  0.9675  0.2346  0.3544
  0.3544  0.6952  0.6952  0.7201  0.7201  0.6118  0.6118

 Free energy of the ion-electron system (eV)
  ---------------------------------------------------
  alpha Z        PSCENC =       906.21131108
  Ewald energy   TEWEN  =     -9706.50133840
  -Hartree energ DENC   =     -2756.46984865
  -exchange      EXHF   =         0.00000000
  -V(xc)+E(xc)   XCENC  =       464.51441951
  PAW double counting   =     10569.13250364   -11184.70653909
  entropy T*S    EENTRO =         0.03679919
  eigenvalues    EBANDS =      -584.11266774
  atomic energy  EATOM  =     12208.65233032
  Solvation  Ediel_sol  =         0.00000000
  ---------------------------------------------------
  free energy    TOTEN  =       -83.24303015 eV

  energy without entropy =      -83.27982933  energy(sigma->0) =      -83.25529654


--------------------------------------------------------------------------------------------------------




--------------------------------------- Iteration      1(  23)  ---------------------------------------


    POTLOK:  cpu time    0.0234: real time    0.0235
    SETDIJ:  cpu time    0.0094: real time    0.0095
     EDDAV:  cpu time    2.0212: real time    2.0260
       DOS:  cpu time    0.0023: real time    0.0023
    CHARGE:  cpu time    0.0833: real time    0.0835
    MIXING:  cpu time    0.0029: real time    0.0029
    --------------------------------------------
      LOOP:  cpu time    2.1425: real time    2.1477

 eigenvalue-minimisations  :  5880
 total energy-change (2. order) :-0.1034345E-05  (-0.2263806E-05)
 number of electron      92.0000115 magnetization       0.0000000
 augmentation part       23.3336759 magnetization       0.0000000

 Broyden mixing:
  rms(total) = 0.17210E-02    rms(broyden)= 0.17209E-02
  rms(prec ) = 0.18914E-02
  weight for this iteration     100.00

 eigenvalues of (default mixing * dielectric matrix)
  average eigenvalue GAMMA=   1.2551
  3.7560  3.7560  2.4623  2.4623  1.1714  1.1714  0.9802  0.9802  0.2346  0.3544
  0.3544  0.8072  0.8072  0.7162  0.7162  0.5979  0.6317  0.6317

 Free energy of the ion-electron system (eV)
  ---------------------------------------------------
  alpha Z        PSCENC =       906.21131108
  Ewald energy   TEWEN  =     -9706.50133840
  -Hartree energ DENC   =     -2756.43483951
  -exchange      EXHF   =         0.00000000
  -V(xc)+E(xc)   XCENC  =       464.51525489
  PAW double counting   =     10569.65167592   -11185.19404565
  entropy T*S    EENTRO =         0.03679870
  eigenvalues    EBANDS =      -584.18017854
  atomic energy  EATOM  =     12208.65233032
  Solvation  Ediel_sol  =         0.00000000
  ---------------------------------------------------
  free energy    TOTEN  =       -83.24303118 eV

  energy without entropy =      -83.27982988  energy(sigma->0) =      -83.25529741


--------------------------------------------------------------------------------------------------------




--------------------------------------- Iteration      1(  24)  ---------------------------------------


    POTLOK:  cpu time    0.0242: real time    0.0244
    SETDIJ:  cpu time    0.0085: real time    0.0085
     EDDAV:  cpu time    1.3027: real time    1.3058
       DOS:  cpu time    0.0026: real time    0.0026
    --------------------------------------------
      LOOP:  cpu time    1.3380: real time    1.3413

 eigenvalue-minimisations  :  3288
 total energy-change (2. order) :-0.8674724E-06  (-0.3004587E-06)
 number of electron      92.0000115 magnetization       0.0000000
 augmentation part       23.3336759 magnetization       0.0000000

 Free energy of the ion-electron system (eV)
  ---------------------------------------------------
  alpha Z        PSCENC =       906.21131108
  Ewald energy   TEWEN  =     -9706.50133840
  -Hartree energ DENC   =     -2756.44718743
  -exchange      EXHF   =         0.00000000
  -V(xc)+E(xc)   XCENC  =       464.52356940
  PAW double counting   =     10569.76660249   -11185.28617898
  entropy T*S    EENTRO =         0.03678389
  eigenvalues    EBANDS =      -584.19892441
  atomic energy  EATOM  =     12208.65233032
  Solvation  Ediel_sol  =         0.00000000
  ---------------------------------------------------
  free energy    TOTEN  =       -83.24303205 eV

  energy without entropy =      -83.27981594  energy(sigma->0) =      -83.25529335


--------------------------------------------------------------------------------------------------------




 average (electrostatic) potential at core
  the test charge radii are     1.1829  0.7215
  (the norm of the test charge is              1.0000)
       1 -37.4122       2 -37.4122       3 -37.4122       4 -37.4122       5 -71.1841
       6 -71.1841       7 -71.1841       8 -71.1841
 
 
 
 E-fermi :   4.8407     XC(G=0): -11.0328     alpha+bet :-12.2018


 spin component 1

 k-point     1 :       0.1250    0.1250    0.1250
  band No.  band energies     occupation 
      1     -36.2829      1.00000
      2     -36.2211      1.00000
      3     -33.2213      1.00000
      4     -33.1421      1.00000
      5     -15.9189      1.00000
      6     -15.8927      1.00000
      7     -15.4819      1.00000
      8     -15.1436      1.00000
      9     -15.1115      1.00000
     10     -14.9190      1.00000
     11     -14.0736      1.00000
     12     -13.9852      1.00000
     13     -13.6887      1.00000
     14     -13.5607      1.00000
     15     -13.0402      1.00000
     16     -12.6359      1.00000
     17     -12.5490      1.00000
     18     -12.3057      1.00000
     19     -11.9187      1.00000
     20     -11.8486      1.00000
     21      -0.3499      1.00000
     22      -0.2974      1.00000
     23       0.2956      1.00000
     24       0.3169      1.00000
     25       0.5451      1.00000
     26       0.6967      1.00000
     27       0.7572      1.00000
     28       0.7727      1.00000
     29       0.9023      1.00000
     30       0.9476      1.00000
     31       1.0217      1.00000
     32       1.0500      1.00000
     33       4.3744      1.00000
     34       4.3989      1.00000
     35       4.5152      1.00002
     36       4.5213      1.00003
     37       4.5812      1.00075
     38       4.5953      1.00142
     39       4.6141      1.00308
     40       4.6337      1.00634
     41       4.6707      1.01855
     42       4.6797      1.02258
     43       4.6990      1.03113
     44       4.7604      0.99092
     45       4.7854      0.89803
     46       4.8044      0.78638
     47       5.0978     -0.00084
     48       6.1734     -0.00000
     49       6.3898     -0.00000
     50       6.7513     -0.00000
     51       7.1139     -0.00000
     52       7.4931     -0.00000
     53       7.8254      0.00000
     54       8.2438      0.00000
     55       8.4840      0.00000
     56       8.9819      0.00000

 k-point     2 :       0.3750    0.1250    0.1250
  band No.  band energies     occupation 
      1     -36.2393      1.00000
      2     -36.2136      1.00000
      3     -33.1654      1.00000
      4     -33.1323      1.00000
      5     -15.9773      1.00000
      6     -15.9262      1.00000
      7     -15.4480      1.00000
      8     -15.3577      1.00000
      9     -15.1077      1.00000
     10     -15.0816      1.00000
     11     -14.2330      1.00000
     12     -14.1380      1.00000
     13     -13.7327      1.00000
     14     -13.7071      1.00000
     15     -12.8976      1.00000
     16     -12.8431      1.00000
     17     -12.6123      1.00000
     18     -12.5442      1.00000
     19     -11.9745      1.00000
     20     -11.8803      1.00000
     21      -0.4163      1.00000
     22      -0.2985      1.00000
     23       0.2751      1.00000
     24       0.3282      1.00000
     25       0.6834      1.00000
     26       0.6950      1.00000
     27       0.7594      1.00000
     28       0.7661      1.00000
     29       0.9732      1.00000
     30       0.9817      1.00000
     31       1.0057      1.00000
     32       1.0755      1.00000
     33       4.2986      1.00000
     34       4.4073      1.00000
     35       4.5121      1.00002
     36       4.5360      1.00007
     37       4.5444      1.00011
     38       4.5625      1.00030
     39       4.5787      1.00067
     40       4.6142      1.00310
     41       4.6232      1.00435
     42       4.6264      1.00490
     43       4.6351      1.00664
     44       4.6595      1.01394
     45       4.7459      1.01898
     46       4.7708      0.95959
     47       4.9664     -0.03531
     48       5.1431     -0.00008
     49       6.8165     -0.00000
     50       7.3536     -0.00000
     51       7.8672      0.00000
     52       8.1132      0.00000
     53       8.6464      0.00000
     54       8.8976      0.00000
     55       9.0357      0.00000
     56       9.0948      0.00000

 k-point     3 :      -0.3750    0.1250    0.1250
  band No.  band energies     occupation 
      1     -36.2393      1.00000
      2     -36.2136      1.00000
      3     -33.1654      1.00000
      4     -33.1323      1.00000
      5     -15.9773      1.00000
      6     -15.9262      1.00000
      7     -15.4480      1.00000
      8     -15.3577      1.00000
      9     -15.1076      1.00000
     10     -15.0816      1.00000
     11     -14.2330      1.00000
     12     -14.1380      1.00000
     13     -13.7327      1.00000
     14     -13.7071      1.00000
     15     -12.8976      1.00000
     16     -12.8431      1.00000
     17     -12.6123      1.00000
     18     -12.5442      1.00000
     19     -11.9745      1.00000
     20     -11.8803      1.00000
     21      -0.4163      1.00000
     22      -0.2985      1.00000
     23       0.2751      1.00000
     24       0.3283      1.00000
     25       0.6834      1.00000
     26       0.6950      1.00000
     27       0.7594      1.00000
     28       0.7661      1.00000
     29       0.9733      1.00000
     30       0.9817      1.00000
     31       1.0057      1.00000
     32       1.0755      1.00000
     33       4.2986      1.00000
     34       4.4073      1.00000
     35       4.5121      1.00002
     36       4.5360      1.00007
     37       4.5444      1.00011
     38       4.5625      1.00030
     39       4.5787      1.00067
     40       4.6142      1.00310
     41       4.6232      1.00435
     42       4.6264      1.00490
[...]
  0.000   0.000   0.002  -0.000   0.000   0.001   0.000  -0.000
  0.000   0.000   0.000  -0.003  -0.000  -0.000  -0.001   0.000
  0.000  -0.000   0.000   0.000   0.002  -0.000  -0.000   0.001
 -0.000  -0.000  -0.003   0.000   0.000  -0.001  -0.000  -0.000
  0.000  -0.000   0.000  -0.000   0.000  -0.000  -0.000  -0.000
 pseudopotential strength for first ion, spin component:           2
-15.733   0.731  -0.001   0.001  -0.000   0.000  -0.000  -0.000
  0.731  -3.410   0.001  -0.001   0.000  -0.000   0.000  -0.000
 -0.001   0.001 -17.546  -0.001  -0.000   7.754   0.001   0.000
  0.001  -0.001  -0.001 -17.546   0.000   0.001   7.753  -0.000
 -0.000   0.000  -0.000   0.000 -17.546   0.000  -0.000   7.754
  0.000  -0.000   7.754   0.001   0.000   5.171  -0.001  -0.000
 -0.000   0.000   0.001   7.753  -0.000  -0.001   5.172   0.000
 -0.000  -0.000   0.000  -0.000   7.754  -0.000   0.000   5.171
 -0.000  -0.000  -0.000   0.000  -0.000  -0.000   0.000   0.000
 -0.000  -0.000   0.000  -0.000   0.000  -0.000   0.000   0.000
  0.000   0.000   0.000   0.001   0.000   0.000   0.000   0.000
 -0.000   0.000   0.000   0.000   0.000   0.000  -0.000  -0.000
  0.000   0.000   0.001  -0.000   0.000   0.000  -0.000  -0.000
  0.000   0.000   0.000  -0.000   0.000   0.000  -0.000  -0.000
  0.001   0.000  -0.001   0.000  -0.000   0.000  -0.000  -0.000
 -0.000  -0.000  -0.000  -0.001  -0.000  -0.000  -0.000  -0.000
 -0.000  -0.000  -0.000  -0.000  -0.000  -0.000   0.000   0.000
 -0.000  -0.000  -0.001   0.000  -0.000  -0.000   0.000   0.000
 -0.001   0.000   0.000  -0.021  -0.000  -0.000   0.012   0.000
 -0.000  -0.000   0.000   0.000  -0.027  -0.000   0.000   0.015
 -0.001   0.000   0.012  -0.000   0.000  -0.006   0.000  -0.000
 -0.001   0.000   0.001  -0.019  -0.000  -0.001   0.010   0.000
 -0.000  -0.000   0.000   0.000   0.012  -0.000  -0.000  -0.006
  0.001  -0.000  -0.026   0.000   0.000   0.014  -0.000  -0.000
 -0.000  -0.000  -0.000  -0.000   0.000  -0.000   0.000  -0.000
 -0.001   0.000   0.000  -0.021  -0.000  -0.000   0.012   0.000
 -0.000  -0.000   0.000   0.000  -0.026  -0.000   0.000   0.015
 -0.001   0.000   0.011  -0.000   0.000  -0.006   0.000  -0.000
 -0.001   0.000   0.001  -0.018  -0.000  -0.001   0.010   0.000
 -0.000  -0.000   0.000   0.000   0.011  -0.000  -0.000  -0.006
  0.001  -0.000  -0.025   0.000   0.000   0.013  -0.000  -0.000
 -0.000  -0.000  -0.000  -0.000   0.000  -0.000   0.000  -0.000
 total augmentation occupancy for first ion, spin component:           1
  1.993  -0.037   0.000  -0.000  -0.000   0.000  -0.000  -0.000  -0.000   0.000  -0.000  -0.000   0.000  -0.000   0.000  -0.000
 -0.037   0.606  -0.000   0.000   0.000  -0.000   0.000   0.000  -0.000   0.000  -0.000  -0.000   0.000   0.000   0.000  -0.000
  0.000  -0.000   2.012  -0.000  -0.000  -0.019  -0.000  -0.000   0.000   0.000  -0.000  -0.000   0.000   0.000   0.000  -0.000
 -0.000   0.000  -0.000   2.013   0.000  -0.000  -0.019  -0.000   0.000  -0.000   0.000  -0.000  -0.000   0.000  -0.000   0.000
 -0.000   0.000  -0.000   0.000   2.012  -0.000  -0.000  -0.019  -0.000  -0.000  -0.000   0.000  -0.000  -0.000  -0.000  -0.000
  0.000  -0.000  -0.019  -0.000  -0.000   0.020  -0.000   0.000   0.000   0.000   0.000   0.000   0.000   0.000   0.000   0.000
 -0.000   0.000  -0.000  -0.019  -0.000  -0.000   0.020   0.000  -0.000   0.000   0.000  -0.000   0.000  -0.000   0.000   0.000
 -0.000   0.000  -0.000  -0.000  -0.019   0.000   0.000   0.020  -0.000  -0.000  -0.000   0.000  -0.000  -0.000  -0.000  -0.000
 -0.000  -0.000   0.000   0.000  -0.000   0.000  -0.000  -0.000   0.230   0.000   0.000  -0.082  -0.000   0.063   0.000   0.000
  0.000   0.000   0.000  -0.000  -0.000   0.000   0.000  -0.000   0.000   0.287   0.001   0.000  -0.083   0.000   0.084   0.000
 -0.000  -0.000  -0.000   0.000  -0.000   0.000   0.000  -0.000   0.000   0.001   0.170  -0.000   0.001   0.000   0.000   0.041
 -0.000  -0.000  -0.000  -0.000   0.000   0.000  -0.000   0.000  -0.082   0.000  -0.000   0.288  -0.000  -0.031   0.000  -0.000
  0.000   0.000   0.000  -0.000  -0.000   0.000   0.000  -0.000  -0.000  -0.083   0.001  -0.000   0.228  -0.000  -0.031   0.000
 -0.000   0.000   0.000   0.000  -0.000   0.000  -0.000  -0.000   0.063   0.000   0.000  -0.031  -0.000   0.018   0.000   0.000
  0.000   0.000   0.000  -0.000  -0.000   0.000   0.000  -0.000   0.000   0.084   0.000   0.000  -0.031   0.000   0.026   0.000
 -0.000  -0.000  -0.000   0.000  -0.000   0.000   0.000  -0.000   0.000   0.000   0.041  -0.000   0.000   0.000   0.000   0.010
 -0.000   0.000  -0.000  -0.000   0.000   0.000  -0.000   0.000  -0.031   0.000  -0.000   0.085  -0.000  -0.011   0.000  -0.000
 -0.000   0.000   0.000  -0.000  -0.000   0.000   0.000  -0.000  -0.000  -0.031   0.000  -0.000   0.062  -0.000  -0.011   0.000
 -0.000  -0.000   0.001  -0.119   0.000  -0.001   0.082   0.000  -0.000   0.004   0.001   0.000   0.004  -0.000   0.001   0.000
  0.000  -0.000   0.000   0.000  -0.146  -0.000  -0.000   0.100   0.000  -0.000  -0.000  -0.002  -0.000   0.000  -0.000  -0.000
 -0.000  -0.001   0.065   0.000  -0.000  -0.045   0.000  -0.000   0.000   0.002  -0.001   0.000   0.001   0.000   0.000  -0.000
 -0.000  -0.000   0.000  -0.107  -0.000  -0.000   0.074   0.000   0.000  -0.000  -0.007  -0.000  -0.001  -0.000   0.000  -0.001
  0.000  -0.000  -0.000   0.000   0.065  -0.000  -0.000  -0.045  -0.002   0.000  -0.000  -0.002  -0.000  -0.000   0.000  -0.000
  0.000  -0.000  -0.146   0.001   0.000   0.100  -0.001   0.000   0.000  -0.002   0.001   0.000  -0.002   0.000  -0.000   0.000
  0.000  -0.000  -0.000  -0.000   0.000   0.000   0.000  -0.000  -0.002   0.000   0.000  -0.000   0.000  -0.000   0.000   0.000
  0.000   0.000  -0.000   0.121  -0.000   0.000  -0.075  -0.000  -0.000  -0.001   0.000  -0.000  -0.002   0.000  -0.000   0.000
 -0.000  -0.000  -0.000  -0.000   0.148   0.000   0.000  -0.092   0.000  -0.000  -0.000   0.001   0.000   0.000  -0.000  -0.000
  0.000   0.001  -0.066  -0.000   0.000   0.041   0.000   0.000  -0.000  -0.001  -0.000  -0.000  -0.001  -0.000  -0.000  -0.000
  0.000   0.000  -0.000   0.109   0.000   0.000  -0.068  -0.000  -0.000   0.000   0.004  -0.000   0.001  -0.000   0.000   0.001
 -0.000  -0.000   0.000  -0.000  -0.066   0.000   0.000   0.041   0.002  -0.000   0.000   0.001   0.000   0.000  -0.000   0.000
 -0.000  -0.000   0.149  -0.000  -0.000  -0.092   0.000  -0.000   0.000   0.002   0.001  -0.000   0.002   0.000   0.000   0.000
 -0.000  -0.000   0.000   0.000  -0.000  -0.000  -0.000   0.000   0.002  -0.000  -0.000   0.001   0.000   0.000  -0.000  -0.000
 total augmentation occupancy for first ion, spin component:           2
 -0.042  -0.159   0.000  -0.000  -0.000  -0.000   0.000   0.000  -0.000  -0.000   0.000  -0.000  -0.000  -0.000  -0.000   0.000
 -0.159   0.130   0.001  -0.001  -0.000  -0.001   0.001   0.000  -0.000   0.002  -0.003  -0.000   0.004  -0.000   0.000  -0.001
  0.000   0.001  -0.008  -0.000  -0.000  -0.044   0.000   0.000  -0.000  -0.001  -0.002  -0.000  -0.001  -0.000  -0.000  -0.000
 -0.000  -0.001  -0.000  -0.008  -0.000   0.000  -0.044  -0.000   0.000  -0.000  -0.002   0.000  -0.000   0.000  -0.000  -0.000
 -0.000  -0.000  -0.000  -0.000  -0.007   0.000  -0.000  -0.044   0.000   0.000   0.000  -0.000   0.000   0.000   0.000   0.000
 -0.000  -0.001  -0.044   0.000   0.000   0.003   0.000  -0.000   0.000   0.001   0.002   0.000   0.001   0.000   0.000   0.000
  0.000   0.001   0.000  -0.044  -0.000   0.000   0.003   0.000  -0.000   0.000   0.002  -0.000   0.000  -0.000   0.000   0.000
  0.000   0.000   0.000  -0.000  -0.044  -0.000   0.000   0.003  -0.000  -0.000  -0.000   0.000  -0.000  -0.000  -0.000  -0.000
 -0.000  -0.000  -0.000   0.000   0.000   0.000  -0.000  -0.000   0.044  -0.000   0.000  -0.002  -0.000   0.011  -0.000   0.000
 -0.000   0.002  -0.001  -0.000   0.000   0.001   0.000  -0.000  -0.000   0.041   0.001  -0.000  -0.005  -0.000   0.011   0.000
  0.000  -0.003  -0.002  -0.002   0.000   0.002   0.002  -0.000   0.000   0.001   0.035  -0.000  -0.000   0.000   0.000   0.008
 -0.000  -0.000  -0.000   0.000  -0.000   0.000  -0.000   0.000  -0.002  -0.000  -0.000   0.045  -0.000  -0.002  -0.000  -0.000
 -0.000   0.004  -0.001  -0.000   0.000   0.001   0.000  -0.000  -0.000  -0.005  -0.000  -0.000   0.040  -0.000  -0.002  -0.000
 -0.000  -0.000  -0.000   0.000   0.000   0.000  -0.000  -0.000   0.011  -0.000   0.000  -0.002  -0.000   0.003   0.000   0.000
 -0.000   0.000  -0.000  -0.000   0.000   0.000   0.000  -0.000  -0.000   0.011   0.000  -0.000  -0.002   0.000   0.003   0.000
  0.000  -0.001  -0.000  -0.000   0.000   0.000   0.000  -0.000   0.000   0.000   0.008  -0.000  -0.000   0.000   0.000   0.002
 -0.000  -0.000  -0.000   0.000  -0.000   0.000  -0.000   0.000  -0.002  -0.000  -0.000   0.012  -0.000  -0.001  -0.000  -0.000
 -0.000   0.001  -0.000  -0.000   0.000   0.000   0.000  -0.000  -0.000  -0.002  -0.000  -0.000   0.010  -0.000  -0.001  -0.000
  0.000  -0.004   0.001  -0.013   0.000  -0.002   0.024  -0.000  -0.000   0.005  -0.001  -0.000   0.007  -0.000   0.001   0.000
 -0.000   0.000   0.000   0.000  -0.016  -0.000  -0.000   0.029  -0.004   0.000  -0.000  -0.008  -0.000  -0.000  -0.000  -0.000
 -0.000  -0.008   0.006  -0.000  -0.000  -0.012  -0.001   0.000   0.000   0.003   0.004   0.000   0.005   0.000   0.000   0.001
  0.000  -0.003   0.001  -0.011  -0.000  -0.000   0.023   0.000  -0.000  -0.004  -0.022  -0.000  -0.006  -0.000  -0.001  -0.004
 -0.000   0.000  -0.000   0.000   0.007   0.000  -0.000  -0.013  -0.013   0.000   0.000  -0.011  -0.000  -0.002   0.000   0.000
 -0.000   0.000  -0.015   0.002   0.000   0.029  -0.002  -0.000   0.000  -0.008  -0.008   0.000  -0.012   0.000  -0.001  -0.001
 -0.000   0.000  -0.000  -0.000   0.000   0.000   0.000  -0.001  -0.013   0.000  -0.000  -0.004  -0.000  -0.002   0.000  -0.000
 -0.000   0.004  -0.001  -0.002  -0.000   0.002  -0.011   0.000   0.000  -0.003   0.003   0.000  -0.005  -0.000  -0.001   0.000
  0.000  -0.000  -0.000  -0.000  -0.002   0.000   0.000  -0.012   0.005  -0.000   0.000   0.008   0.000   0.001  -0.000   0.000
 -0.000   0.009   0.002   0.000   0.000   0.005   0.001  -0.000  -0.000  -0.003  -0.007  -0.000  -0.005  -0.000  -0.000  -0.001
 -0.000   0.004  -0.001  -0.001  -0.000   0.000  -0.011   0.000   0.000   0.005   0.022  -0.000   0.006   0.000   0.001   0.004
  0.000  -0.000  -0.000   0.000   0.001  -0.000   0.000   0.005   0.015  -0.000  -0.000   0.012   0.000   0.003  -0.000  -0.000
  0.000  -0.000  -0.003  -0.002  -0.000  -0.013   0.002   0.000  -0.000   0.009   0.012  -0.000   0.014  -0.000   0.002   0.002
  0.000  -0.000  -0.000   0.000  -0.001  -0.000  -0.000   0.001   0.014   0.000   0.000   0.005   0.000   0.003   0.000   0.000


------------------------ aborting loop because EDIFF is reached ----------------------------------------


 


 total charge     
 
# of ion       s       p       d       f       tot
--------------------------------------------------
    1        2.083   5.888   0.613   6.723  15.307
    2        2.083   5.888   0.613   6.723  15.307
    3        2.083   5.888   0.613   6.723  15.307
    4        2.083   5.888   0.613   6.723  15.307
    5        1.558   3.407   0.000   0.000   4.965
    6        1.558   3.407   0.000   0.000   4.965
    7        1.558   3.407   0.000   0.000   4.965
    8        1.558   3.407   0.000   0.000   4.965
--------------------------------------------------
tot         14.564  37.181   2.450  26.893  81.088

 


 magnetization (x)
 
# of ion       s       p       d       f       tot
--------------------------------------------------
    1       -0.006  -0.010   0.109   6.618   6.711
    2       -0.006  -0.010   0.109   6.618   6.711
    3        0.006   0.010  -0.109  -6.618  -6.711
    4        0.006   0.010  -0.109  -6.618  -6.711
    5       -0.002  -0.033   0.000   0.000  -0.034
    6       -0.002  -0.033   0.000   0.000  -0.034
    7        0.002   0.033   0.000   0.000   0.034
    8        0.002   0.033   0.000   0.000   0.034
--------------------------------------------------
tot          0.000   0.000  -0.000  -0.000   0.000

 
    CHARGE:  cpu time    0.0834: real time    0.0836
    FORLOC:  cpu time    0.0015: real time    0.0015
    FORNL :  cpu time    0.8428: real time    0.8448
    STRESS:  cpu time    0.8057: real time    0.8076
    FORCOR:  cpu time    0.0250: real time    0.0251
    FORHAR:  cpu time    0.0036: real time    0.0036
    MIXING:  cpu time    0.0031: real time    0.0031
    OFIELD:  cpu time    0.0000: real time    0.0000

  FORCE on cell =-STRESS in cart. coord.  units (eV):
  Direction    XX          YY          ZZ          XY          YZ          ZX
  --------------------------------------------------------------------------------------
  Alpha Z   906.21131   906.21131   906.21131
  Ewald   -3235.50495 -3235.50223 -3235.50576     0.00702     0.00503    -0.00490
  Hartree   918.74814   918.95681   918.86028     0.00464     0.13674     0.00120
  E(xc)    -488.35147  -488.35946  -488.36653     0.00000     0.01000     0.00004
  Local     845.68500   845.16534   845.31922    -0.01117    -0.21820     0.00030
  n-local  -452.87429  -453.21659  -452.84447     0.00024    -0.01813     0.00065
  augment   192.84589   192.86349   192.90284    -0.00019    -0.05557     0.00068
  Kinetic  1312.74885  1313.59819  1313.37540    -0.00058    -0.04004    -0.00032
  Fock        0.00000     0.00000     0.00000     0.00000     0.00000     0.00000
  -------------------------------------------------------------------------------------
  Total      -0.49153    -0.23538    -0.09548    -0.00112    -0.19784    -0.00080
  in kB      -6.00461    -2.87539    -1.16635    -0.01371    -2.41689    -0.00971
  external pressure =       -3.35 kB  Pullay stress =        0.00 kB


 VOLUME and BASIS-vectors are now :
 -----------------------------------------------------------------------------
  energy-cutoff  :      500.00
  volume of cell :      131.15
      direct lattice vectors                 reciprocal lattice vectors
     3.592645600  0.000000000  0.000000000     0.278346409 -0.000005520 -0.000004710
     0.000131900  4.148395800  2.933334000     0.000000000  0.160705608  0.113635041
     0.000017000 -4.148324800  5.866668000     0.000000000 -0.080352804  0.113636986

  length of vectors
     3.592645600  5.080712163  7.185150803     0.278346409  0.196822801  0.139175924


 FORCES acting on ions
    electron-ion (+dipol)            ewald-force                    non-local-force                 convergence-correction
 -----------------------------------------------------------------------------------------------
   -.287E-05 0.373E-01 -.527E-01   0.283E-04 -.187E-04 0.182E-04   0.326E-06 -.796E-01 0.113E+00   -.174E-07 -.301E-03 0.426E-03
   -.296E-05 -.372E-01 0.527E-01   0.283E-04 -.187E-04 0.182E-04   -.326E-06 0.796E-01 -.113E+00   -.196E-07 0.301E-03 -.426E-03
   -.287E-05 0.373E-01 -.527E-01   0.283E-04 -.187E-04 0.182E-04   0.326E-06 -.796E-01 0.113E+00   -.174E-07 -.301E-03 0.426E-03
   -.296E-05 -.372E-01 0.527E-01   0.283E-04 -.187E-04 0.182E-04   -.326E-06 0.796E-01 -.113E+00   -.196E-07 0.301E-03 -.426E-03
   -.169E-03 0.169E-01 -.239E-01   -.283E-04 0.187E-04 -.182E-04   0.971E-07 -.237E-01 0.335E-01   0.200E-07 0.386E-04 -.546E-04
   -.168E-03 -.167E-01 0.237E-01   -.283E-04 0.187E-04 -.182E-04   -.971E-07 0.237E-01 -.335E-01   0.203E-07 -.386E-04 0.546E-04
   -.169E-03 0.169E-01 -.239E-01   -.283E-04 0.187E-04 -.182E-04   0.971E-07 -.237E-01 0.335E-01   0.200E-07 0.386E-04 -.546E-04
   -.168E-03 -.167E-01 0.237E-01   -.283E-04 0.187E-04 -.182E-04   -.971E-07 0.237E-01 -.335E-01   0.203E-07 -.386E-04 0.546E-04
 -----------------------------------------------------------------------------------------------
   -.686E-03 0.452E-03 -.440E-03   0.932E-14 0.204E-13 -.240E-13   -.135E-20 -.694E-17 0.625E-16   0.657E-08 -.432E-08 0.406E-08
 
 
 POSITION                                       TOTAL-FORCE (eV/Angst)
 -----------------------------------------------------------------------------------
      0.00000      0.00000      0.00000         0.000000     -0.042618      0.060272
      1.79639      1.03712      2.93333        -0.000000      0.042618     -0.060272
      0.00001     -2.07416      2.93333         0.000000     -0.042618      0.060272
      1.79640     -1.03705      5.86667        -0.000000      0.042618     -0.060272
      0.00007      2.07420      1.46667         0.000000     -0.006816      0.009640
      1.79646      3.11131      4.40000        -0.000000      0.006816     -0.009640
      0.00007      0.00004      4.40000         0.000000     -0.006816      0.009640
      1.79647      1.03715      7.33334        -0.000000      0.006816     -0.009640
 -----------------------------------------------------------------------------------
    total drift:                               -0.000686      0.000452     -0.000440


--------------------------------------------------------------------------------------------------------



  FREE ENERGIE OF THE ION-ELECTRON SYSTEM (eV)
  ---------------------------------------------------
  free  energy   TOTEN  =       -83.24303205 eV

  energy  without entropy=      -83.27981594  energy(sigma->0) =      -83.25529335
 


--------------------------------------------------------------------------------------------------------


    POTLOK:  cpu time    0.0348: real time    0.0349


--------------------------------------------------------------------------------------------------------


     LOOP+:  cpu time   53.0705: real time   53.2092
    4ORBIT:  cpu time    0.0000: real time    0.0000
 


 total charge     
 
# of ion       s       p       d       f       tot
--------------------------------------------------
    1        2.083   5.888   0.613   6.723  15.307
    2        2.083   5.888   0.613   6.723  15.307
    3        2.083   5.888   0.613   6.723  15.307
    4        2.083   5.888   0.613   6.723  15.307
    5        1.558   3.407   0.000   0.000   4.965
    6        1.558   3.407   0.000   0.000   4.965
    7        1.558   3.407   0.000   0.000   4.965
    8        1.558   3.407   0.000   0.000   4.965
--------------------------------------------------
tot         14.564  37.181   2.450  26.893  81.088

 


 magnetization (x)
 
# of ion       s       p       d       f       tot
--------------------------------------------------
    1       -0.006  -0.010   0.109   6.618   6.711
    2       -0.006  -0.010   0.109   6.618   6.711
    3        0.006   0.010  -0.109  -6.618  -6.711
    4        0.006   0.010  -0.109  -6.618  -6.711
    5       -0.002  -0.033   0.000   0.000  -0.034
    6       -0.002  -0.033   0.000   0.000  -0.034
    7        0.002   0.033   0.000   0.000   0.034
    8        0.002   0.033   0.000   0.000   0.034
--------------------------------------------------
tot          0.000   0.000  -0.000  -0.000   0.000

 

 total amount of memory used by VASP MPI-rank0    52887. kBytes
=======================================================================

   base      :      30000. kBytes
   nonl-proj :       6938. kBytes
   fftplans  :        944. kBytes
   grid      :       2280. kBytes
   one-center:        196. kBytes
   wavefun   :      12529. kBytes
 
  
  
 General timing and accounting informations for this job:
 ========================================================
  
                  Total CPU time used (sec):       54.880
                            User time (sec):       54.585
                          System time (sec):        0.295
                         Elapsed time (sec):       55.854
  
                   Maximum memory used (kb):       86680.
                   Average memory used (kb):           0.
  
                          Minor page faults:        23418
                          Major page faults:            0
                 Voluntary context switches:         1435
