 vasp.5.4.4.18Apr17-6-g9f103f2a35 (build Apr 28 2018 00:24:27) complex          
  
 executed on             LinuxIFC date 2021.03.25  01:51:13
 running on    8 total cores
 distrk:  each k-point on    8 cores,    1 groups
 distr:  one band on NCORES_PER_BAND=   4 cores,    2 groups


--------------------------------------------------------------------------------------------------------


 INCAR:
 POTCAR:    PAW_PBE Eu 23Dec2003                  
 POTCAR:    PAW_PBE O 08Apr2002                   
 POTCAR:    PAW_PBE Eu 23Dec2003                  
   SHA256 =  ed303d27e7c5191953f9b15539336e6f36d9037c1d2e92e80c13d733697cb93d Eu
   COPYR  = (c) Copyright 23Dec2003 Georg Kresse                                
   COPYR  = This file is part of the software VASP. Any use, copying, and all ot
   COPYR  = If you do not have a valid VASP license, you may not use, copy or di
   VRHFIN =Eu : [core=Kr4d]                                                     
   LEXCH  = PE                                                                  
   EATOM  =  2619.8085 eV,  192.5505 Ry                                         
                                                                                
   TITEL  = PAW_PBE Eu 23Dec2003                                                
   LULTRA =        F    use ultrasoft PP ?                                      
   IUNSCR =        1    unscreen: 0-lin 1-nonlin 2-no                           
   RPACOR =    2.300    partial core radius                                     
   POMASS =  151.965; ZVAL   =   17.000    mass and valenz                      
   RCORE  =    2.800    outmost cutoff radius                                   
   RWIGS  =    2.800; RWIGS  =    1.482    wigner-seitz radius (au A)           
   ENMAX  =  249.668; ENMIN  =  187.251 eV                                      
   RCLOC  =    2.308    cutoff for local pot                                    
   LCOR   =        T    correct aug charges                                     
   LPAW   =        T    paw PP                                                  
   EAUG   =  549.628                                                            
   DEXC   =    0.000                                                            
   RMAX   =    2.870    core radius for proj-oper                               
   RAUG   =    1.300    factor for augmentation sphere                          
   RDEP   =    2.887    radius for radial grids                                 
   RDEPT  =    2.221    core radius for aug-charge                              
                                                                                
   Atomic configuration                                                         
   14 entries                                                                   
     n  l   j            E        occ.                                          
     1  0  0.50    -48354.7667   2.0000                                         
     2  0  0.50     -7939.6472   2.0000                                         
     2  1  1.50     -7072.6637   6.0000                                         
     3  0  0.50     -1747.1875   2.0000                                         
     3  1  1.50     -1477.5221   6.0000                                         
     3  2  2.50     -1117.4686  10.0000                                         
     4  0  0.50      -346.8682   2.0000                                         
     4  1  1.50      -258.1962   6.0000                                         
     4  2  2.50      -134.7724  10.0000                                         
     5  0  0.50       -44.6510   2.0000                                         
     6  0  0.50        -3.6227   2.0000                                         
     5  1  1.50       -23.7639   6.0000                                         
     5  2  2.50        -1.3130   0.0000                                         
     4  3  2.50        -2.7310   7.0000                                         
   Description                                                                  
     l       E           TYP  RCUT    TYP  RCUT                                 
     0    -44.6510453     23  2.400                                             
     0     -3.6226685     23  2.400                                             
     1    -23.7638687     23  2.400                                             
     1     27.2116520     23  2.400                                             
     2     -1.3129622     23  2.500                                             
     2     13.6058260     23  2.500                                             
     3     -2.7309948     23  2.800                                             
     3     -3.4014565     23  2.800                                             
  local pseudopotential read in
  partial core-charges read in
  partial kinetic energy density read in
  atomic valenz-charges read in
  non local Contribution for L=           0  read in
    real space projection operators read in
  non local Contribution for L=           0  read in
    real space projection operators read in
  non local Contribution for L=           1  read in
    real space projection operators read in
  non local Contribution for L=           1  read in
    real space projection operators read in
  non local Contribution for L=           2  read in
    real space projection operators read in
  non local Contribution for L=           2  read in
    real space projection operators read in
  non local Contribution for L=           3  read in
    real space projection operators read in
  non local Contribution for L=           3  read in
    real space projection operators read in
    PAW grid and wavefunctions read in
 
   number of l-projection  operators is LMAX  =           8
   number of lm-projection operators is LMMAX =          32
 
 POTCAR:    PAW_PBE O 08Apr2002                   
   SHA256 =  818f92134a0a090dccd8ba1447fa70422a3b330e708bb4f08108d8ae51209ddf O/
   COPYR  = (c) Copyright 08Apr2002 Georg Kresse                                
   COPYR  = This file is part of the software VASP. Any use, copying, and all ot
   COPYR  = If you do not have a valid VASP license, you may not use, copy or di
   VRHFIN =O: s2p4                                                              
   LEXCH  = PE                                                                  
   EATOM  =   432.3788 eV,   31.7789 Ry                                         
                                                                                
   TITEL  = PAW_PBE O 08Apr2002                                                 
   LULTRA =        F    use ultrasoft PP ?                                      
   IUNSCR =        1    unscreen: 0-lin 1-nonlin 2-no                           
   RPACOR =    1.200    partial core radius                                     
   POMASS =   16.000; ZVAL   =    6.000    mass and valenz                      
   RCORE  =    1.520    outmost cutoff radius                                   
   RWIGS  =    1.550; RWIGS  =    0.820    wigner-seitz radius (au A)           
   ENMAX  =  400.000; ENMIN  =  300.000 eV                                      
   ICORE  =        2    local potential                                         
   LCOR   =        T    correct aug charges                                     
   LPAW   =        T    paw PP                                                  
   EAUG   =  605.392                                                            
   DEXC   =    0.000                                                            
   RMAX   =    1.553    core radius for proj-oper                               
   RAUG   =    1.300    factor for augmentation sphere                          
   RDEP   =    1.550    radius for radial grids                                 
   RDEPT  =    1.329    core radius for aug-charge                              
                                                                                
   Atomic configuration                                                         
    4 entries                                                                   
     n  l   j            E        occ.                                          
     1  0  0.50      -514.6923   2.0000                                         
     2  0  0.50       -23.9615   2.0000                                         
     2  1  0.50        -9.0305   4.0000                                         
     3  2  1.50        -9.5241   0.0000                                         
   Description                                                                  
     l       E           TYP  RCUT    TYP  RCUT                                 
     0    -23.9615318     23  1.200                                             
     0     -9.5240782     23  1.200                                             
     1     -9.0304911     23  1.520                                             
     1      8.1634956     23  1.520                                             
     2     -9.5240782      7  1.500                                             
  local pseudopotential read in
  partial core-charges read in
  partial kinetic energy density read in
  kinetic energy density of atom read in
  atomic valenz-charges read in
  non local Contribution for L=           0  read in
    real space projection operators read in
  non local Contribution for L=           0  read in
    real space projection operators read in
  non local Contribution for L=           1  read in
    real space projection operators read in
  non local Contribution for L=           1  read in
    real space projection operators read in
    PAW grid and wavefunctions read in
 
   number of l-projection  operators is LMAX  =           4
   number of lm-projection operators is LMMAX =           8
 
  PAW_PBE Eu 23Dec2003                  :
 energy of atom  1       EATOM=-2619.8085
 kinetic energy error for atom=    0.0019 (will be added to EATOM!!)
  PAW_PBE O 08Apr2002                   :
 energy of atom  2       EATOM= -432.3788
 kinetic energy error for atom=    0.0224 (will be added to EATOM!!)
 
 
 POSCAR: Eu1 O1 str #: 9                         
  positions in direct lattice
  No initial velocities read in
 exchange correlation table for  LEXCH =        8
   RHO(1)=    0.500       N(1)  =     2000
   RHO(2)=  100.500       N(2)  =     4000
 


--------------------------------------------------------------------------------------------------------


 ion  position               nearest neighbor table
   1  0.000  0.000  0.000-   5 2.54   5 2.54   6 2.54   8 2.54   8 2.54   6 2.54
   2  0.500  0.500  0.250-   6 2.54   6 2.54   7 2.54   5 2.54   5 2.54   7 2.54
   3  0.000  0.000  0.500-   7 2.54   7 2.54   8 2.54   6 2.54   6 2.54   8 2.54
   4  0.500  0.500  0.750-   8 2.54   8 2.54   5 2.54   7 2.54   7 2.54   5 2.54
   5  0.000  0.500  0.000-   1 2.54   1 2.54   4 2.54   2 2.54   2 2.54   4 2.54
   6  0.500  1.000  0.250-   2 2.54   2 2.54   1 2.54   3 2.54   3 2.54   1 2.54
   7  0.000  0.500  0.500-   3 2.54   3 2.54   2 2.54   4 2.54   4 2.54   2 2.54
   8  0.500  1.000  0.750-   4 2.54   4 2.54   3 2.54   1 2.54   1 2.54   3 2.54
 
  LATTYP: Found a simple monoclinic cell.
 ALAT       =     6.2226751670
 B/A-ratio  =     1.1546723251
 C/A-ratio  =     1.4142187552
 COS(beta)  =    -0.9428119261
  
  Lattice vectors:
  
 A1 = (  -3.5927775000,  -4.1483958000,  -2.9333340000)
 A2 = (  -0.0000170000,   4.1483248000,  -5.8666680000)
 A3 = (   7.1854231000,   4.1483958000,   2.9333340000)


Analysis of symmetry for initial positions (statically):
=====================================================================
 Subroutine PRICEL returns following result:
 
  LATTYP: Found a trigonal (rhomboedric) cell.
 ALAT       =     3.5926456000
 COS(alpha) =     0.5000180940
  
  Lattice vectors:
  
 A1 = (   3.5926456000,  -0.0000000000,   0.0000000000)
 A2 = (   1.7963845000,   3.1112791000,   0.0000000000)
 A3 = (   1.7963930000,   1.0371167000,   2.9333340000)
 
   4 primitive cells build up your supercell.
 

 Routine SETGRP: Setting up the symmetry group for a 
 simple monoclinic supercell.


 Subroutine GETGRP returns: Found  4 space group operations
 (whereof  4 operations were pure point group operations)
 out of a pool of  4 trial point group operations.


The static configuration has the point symmetry C_2h.


Analysis of symmetry for dynamics (positions and initial velocities):
=====================================================================
 Subroutine PRICEL returns following result:
 
  LATTYP: Found a trigonal (rhomboedric) cell.
 ALAT       =     3.5926456000
 COS(alpha) =     0.5000180940
  
  Lattice vectors:
  
 A1 = (   3.5926456000,  -0.0000000000,   0.0000000000)
 A2 = (   1.7963845000,   3.1112791000,   0.0000000000)
 A3 = (   1.7963930000,   1.0371167000,   2.9333340000)
 
   4 primitive cells build up your supercell.
 

 Routine SETGRP: Setting up the symmetry group for a 
 simple monoclinic supercell.


 Subroutine GETGRP returns: Found  4 space group operations
 (whereof  4 operations were pure point group operations)
 out of a pool of  4 trial point group operations.


The dynamic configuration has the point symmetry C_2h.


Analysis of structural, dynamic, and magnetic symmetry:
=====================================================================
 Subroutine PRICEL returns following result:
 
  LATTYP: Found a simple monoclinic cell.
 ALAT       =     6.2226751670
 B/A-ratio  =     0.5773361626
 C/A-ratio  =     1.4142187552
 COS(beta)  =    -0.9428119261
  
  Lattice vectors:
  
 A1 = (  -3.5927775000,  -4.1483958000,  -2.9333340000)
 A2 = (  -0.0000085000,   2.0741624000,  -2.9333340000)
 A3 = (   7.1854231000,   4.1483958000,   2.9333340000)
 
   2 primitive cells build up your supercell.
 

 Routine SETGRP: Setting up the symmetry group for a 
 simple monoclinic supercell.


 Subroutine GETGRP returns: Found  4 space group operations
 (whereof  2 operations were pure point group operations)
 out of a pool of  4 trial point group operations.


The magnetic configuration has the point symmetry C_2 .
 The point group associated with its full space group is C_2h.


 Subroutine INISYM returns: Found  4 space group operations
 (whereof  2 operations are pure point group operations),
 and found     2 'primitive' translations

 
 

Automatic generation of k-mesh.
 generate k-points for:    4    3    2
Space group operators:
 irot       det(A)        alpha          n_x          n_y          n_z        tau_x        tau_y        tau_z
    1     1.000000     0.000001     1.000000     0.000000     0.000000     0.000000     0.000000     0.000000
    2     1.000000   180.000000     0.000000    -0.577347     0.816499     0.000000     0.000000     0.000000
    3    -1.000000     0.000001     1.000000     0.000000     0.000000    -0.500000    -0.500000    -0.250000
    4    -1.000000   180.000000     0.000000    -0.577347     0.816499    -0.500000    -0.500000    -0.250000
 
 Subroutine IBZKPT returns following result:
 ===========================================
 
 Found     14 irreducible k-points:
 
 Following reciprocal coordinates:
            Coordinates               Weight
  0.000000  0.000000  0.000000      1.000000
  0.250000 -0.000000  0.000000      2.000000
  0.500000 -0.000000  0.000000      1.000000
  0.000000  0.333333 -0.000000      2.000000
  0.250000  0.333333  0.000000      2.000000
  0.500000  0.333333  0.000000      2.000000
 -0.250000  0.333333 -0.000000      2.000000
  0.000000 -0.000000  0.500000      1.000000
  0.250000 -0.000000  0.500000      2.000000
  0.500000 -0.000000  0.500000      1.000000
  0.000000  0.333333  0.500000      2.000000
  0.250000  0.333333  0.500000      2.000000
  0.500000  0.333333  0.500000      2.000000
 -0.250000  0.333333  0.500000      2.000000
 
 Following cartesian coordinates:
            Coordinates               Weight
  0.000000  0.000000  0.000000      1.000000
  0.069587 -0.000001 -0.000001      2.000000
  0.139173 -0.000003 -0.000002      1.000000
  0.000000  0.053569  0.037878      2.000000
  0.069587  0.053567  0.037877      2.000000
  0.139173  0.053566  0.037876      2.000000
 -0.069587  0.053570  0.037880      2.000000
  0.000000 -0.040176  0.056818      1.000000
  0.069587 -0.040178  0.056817      2.000000
  0.139173 -0.040179  0.056816      1.000000
  0.000000  0.013392  0.094697      2.000000
  0.069587  0.013391  0.094696      2.000000
  0.139173  0.013389  0.094694      2.000000
 -0.069587  0.013394  0.094698      2.000000
 


--------------------------------------------------------------------------------------------------------




 Dimension of arrays:
   k-points           NKPTS =     14   k-points in BZ     NKDIM =     14   number of bands    NBANDS=     56
   number of dos      NEDOS =    301   number of ions     NIONS =      8
   non local maximal  LDIM  =      8   non local SUM 2l+1 LMDIM =     32
   total plane-waves  NPLWV =  22400
   max r-space proj   IRMAX =      1   max aug-charges    IRDMAX=   9962
   dimension x,y,z NGX =    20 NGY =   28 NGZ =   40
   dimension x,y,z NGXF=    40 NGYF=   56 NGZF=   80
   support grid    NGXF=    40 NGYF=   56 NGZF=   80
   ions per type =               4   4
   NGX,Y,Z   is equivalent  to a cutoff of   9.25,  9.16,  9.25 a.u.
   NGXF,Y,Z  is equivalent  to a cutoff of  18.51, 18.32, 18.51 a.u.

 SYSTEM =  "EuO"                                   
 POSCAR =  Eu1 O1 str #: 9                         

 Startparameter for this run:
   NWRITE =      2    write-flag & timer
   PREC   = normal    normal or accurate (medium, high low for compatibility)
   ISTART =      0    job   : 0-new  1-cont  2-samecut
   ICHARG =      2    charge: 1-file 2-atom 10-const
   ISPIN  =      2    spin polarized calculation?
   LNONCOLLINEAR =      F non collinear calculations
   LSORBIT =      F    spin-orbit coupling
   INIWAV =      1    electr: 0-lowe 1-rand  2-diag
   LASPH  =      F    aspherical Exc in radial PAW
   METAGGA=      F    non-selfconsistent MetaGGA calc.

 Electronic Relaxation 1
   ENCUT  =  500.0 eV  36.75 Ry    6.06 a.u.   6.55  9.26 13.10*2*pi/ulx,y,z
   ENINI  =  500.0     initial cutoff
   ENAUG  =  605.4 eV  augmentation charge cutoff
   NELM   =     60;   NELMIN=  2; NELMDL= -5     # of ELM steps 
   EDIFF  = 0.1E-05   stopping-criterion for ELM
   LREAL  =      F    real-space projection
   NLSPLINE    = F    spline interpolate recip. space projectors
   LCOMPAT=      F    compatible to vasp.4.4
   GGA_COMPAT  = T    GGA compatible to vasp.4.4-vasp.4.6
   LMAXPAW     = -100 max onsite density
   LMAXMIX     =    2 max onsite mixed and CHGCAR
   VOSKOWN=      0    Vosko Wilk Nusair interpolation
   ROPT   =    0.00000   0.00000
 Ionic relaxation
   EDIFFG = 0.1E-04   stopping-criterion for IOM
   NSW    =      0    number of steps for IOM
   NBLOCK =      1;   KBLOCK =      1    inner block; outer block 
   IBRION =     -1    ionic relax: 0-MD 1-quasi-New 2-CG
   NFREE  =      1    steps in history (QN), initial steepest desc. (CG)
   ISIF   =      2    stress and relaxation
   IWAVPR =     10    prediction:  0-non 1-charg 2-wave 3-comb
   ISYM   =      2    0-nonsym 1-usesym 2-fastsym
   LCORR  =      T    Harris-Foulkes like correction to forces

   POTIM  = 0.5000    time-step for ionic-motion
   TEIN   =    0.0    initial temperature
   TEBEG  =    0.0;   TEEND  =   0.0 temperature during run
   SMASS  =  -3.00    Nose mass-parameter (am)
   estimated Nose-frequenzy (Omega)   =  0.10E-29 period in steps =****** mass=  -0.295E-27a.u.
   SCALEE = 1.0000    scale energy and forces
   NPACO  =    256;   APACO  = 16.0  distance and # of slots for P.C.
   PSTRESS=    0.0 pullay stress

  Mass of Ions in am
   POMASS = 151.97 16.00
  Ionic Valenz
   ZVAL   =  17.00  6.00
  Atomic Wigner-Seitz radii
   RWIGS  =  -1.00 -1.00
  virtual crystal weights 
   VCA    =   1.00  1.00
   NELECT =      92.0000    total number of electrons
   NUPDOWN=      -1.0000    fix difference up-down

 DOS related values:
   EMIN   =  10.00;   EMAX   =-10.00  energy-range for DOS
   EFERMI =   0.00
   ISMEAR =     1;   SIGMA  =   0.10  broadening in eV -4-tet -1-fermi 0-gaus

 Electronic relaxation 2 (details)
   IALGO  =     38    algorithm
   LDIAG  =      T    sub-space diagonalisation (order eigenvalues)
   LSUBROT=      F    optimize rotation matrix (better conditioning)
   TURBO    =      0    0=normal 1=particle mesh
   IRESTART =      0    0=no restart 2=restart with 2 vectors
   NREBOOT  =      0    no. of reboots
   NMIN     =      0    reboot dimension
   EREF     =   0.00    reference energy to select bands
   IMIX   =      4    mixing-type and parameters
     AMIX     =   0.40;   BMIX     =  1.00
     AMIX_MAG =   1.60;   BMIX_MAG =  1.00
     AMIN     =   0.10
     WC   =   100.;   INIMIX=   1;  MIXPRE=   1;  MAXMIX= -45

 Intra band minimization:
   WEIMIN = 0.0000     energy-eigenvalue tresh-hold
   EBREAK =  0.45E-08  absolut break condition
   DEPER  =   0.30     relativ break condition  

   TIME   =   0.40     timestep for ELM

  volume/ion in A,a.u.               =      16.39       110.63
  Fermi-wavevector in a.u.,A,eV,Ry     =   1.454607  2.748810 28.788335  2.115883
  Thomas-Fermi vector in A             =   2.571738
 
 Write flags
   LWAVE        =      F    write WAVECAR
   LDOWNSAMPLE  =      F    k-point downsampling of WAVECAR
   LCHARG       =      F    write CHGCAR
   LVTOT        =      F    write LOCPOT, total local potential
   LVHAR        =      F    write LOCPOT, Hartree potential only
   LELF         =      F    write electronic localiz. function (ELF)
   LORBIT       =     11    0 simple, 1 ext, 2 COOP (PROOUT), +10 PAW based schemes


 Dipole corrections
   LMONO  =      F    monopole corrections only (constant potential shift)
   LDIPOL =      F    correct potential (dipole corrections)
   IDIPOL =      0    1-x, 2-y, 3-z, 4-all directions 
   EPSILON=  1.0000000 bulk dielectric constant

 Exchange correlation treatment:
   GGA     =    --    GGA type
   LEXCH   =     8    internal setting for exchange type
   VOSKOWN=      0    Vosko Wilk Nusair interpolation
   LHFCALC =     F    Hartree Fock is set to
   LHFONE  =     F    Hartree Fock one center treatment
   AEXX    =    0.0000 exact exchange contribution

 Linear response parameters
   LEPSILON=     F    determine dielectric tensor
   LRPA    =     F    only Hartree local field effects (RPA)
   LNABLA  =     F    use nabla operator in PAW spheres
   LVEL    =     F    velocity operator in full k-point grid
   LINTERFAST=   F  fast interpolation
   KINTER  =     0    interpolate to denser k-point grid
   CSHIFT  =0.1000    complex shift for real part using Kramers Kronig
   OMEGAMAX=  -1.0    maximum frequency
   DEG_THRESHOLD= 0.2000000E-02 threshold for treating states as degnerate
   RTIME   =   -0.100 relaxation time in fs
  (WPLASMAI=    0.000 imaginary part of plasma frequency in eV, 0.658/RTIME)
   DFIELD  = 0.0000000 0.0000000 0.0000000 field for delta impulse in time
 
 Orbital magnetization related:
   ORBITALMAG=     F  switch on orbital magnetization
   LCHIMAG   =     F  perturbation theory with respect to B field
   DQ        =  0.001000  dq finite difference perturbation B field
   LLRAUG    =     F  two centre corrections for induced B field



--------------------------------------------------------------------------------------------------------


 Static calculation
 charge density and potential will be updated during run
 spin polarized calculation
 Variant of blocked Davidson
 Davidson routine will perform the subspace rotation
 perform sub-space diagonalisation
    after iterative eigenvector-optimisation
 modified Broyden-mixing scheme, WC =      100.0
 initial mixing is a Kerker type mixing with AMIX =  0.4000 and BMIX =      1.0000
 Hartree-type preconditioning will be used
 using additional bands           10
 reciprocal scheme for non local part
 use partial core corrections
 calculate Harris-corrections to forces 
   (improved forces if not selfconsistent)
 use gradient corrections 
 use of overlap-Matrix (Vanderbilt PP)
 Methfessel and Paxton  Order N= 1 SIGMA  =   0.10


--------------------------------------------------------------------------------------------------------


  energy-cutoff  :      500.00
  volume of cell :      131.15
      direct lattice vectors                 reciprocal lattice vectors
     3.592645600  0.000000000  0.000000000     0.278346409 -0.000005520 -0.000004710
     0.000131900  4.148395800  2.933334000     0.000000000  0.160705608  0.113635041
     0.000017000 -4.148324800  5.866668000     0.000000000 -0.080352804  0.113636986

  length of vectors
     3.592645600  5.080712163  7.185150803     0.278346409  0.196822801  0.139175924


 
 k-points in units of 2pi/SCALE and weight: read from INCAR                         
   0.00000000  0.00000000  0.00000000       0.042
   0.06958660 -0.00000138 -0.00000118       0.083
   0.13917320 -0.00000276 -0.00000235       0.042
   0.00000000  0.05356854  0.03787835       0.083
   0.06958660  0.05356716  0.03787717       0.083
   0.13917320  0.05356578  0.03787599       0.083
  -0.06958660  0.05356992  0.03787952       0.083
   0.00000000 -0.04017640  0.05681849       0.042
   0.06958660 -0.04017778  0.05681732       0.083
   0.13917320 -0.04017916  0.05681614       0.042
   0.00000000  0.01339213  0.09469684       0.083
   0.06958660  0.01339075  0.09469566       0.083
   0.13917320  0.01338937  0.09469449       0.083
  -0.06958660  0.01339351  0.09469802       0.083
 
 k-points in reciprocal lattice and weights: read from INCAR                         
   0.00000000  0.00000000  0.00000000       0.042
   0.25000000 -0.00000000  0.00000000       0.083
   0.50000000 -0.00000000  0.00000000       0.042
   0.00000000  0.33333333 -0.00000000       0.083
   0.25000000  0.33333333  0.00000000       0.083
   0.50000000  0.33333333  0.00000000       0.083
  -0.25000000  0.33333333 -0.00000000       0.083
   0.00000000 -0.00000000  0.50000000       0.042
   0.25000000 -0.00000000  0.50000000       0.083
   0.50000000 -0.00000000  0.50000000       0.042
   0.00000000  0.33333333  0.50000000       0.083
   0.25000000  0.33333333  0.50000000       0.083
   0.50000000  0.33333333  0.50000000       0.083
  -0.25000000  0.33333333  0.50000000       0.083
 
 position of ions in fractional coordinates (direct lattice) 
   0.00000000  0.00000000  0.00000000
   0.50000000  0.50000000  0.25000000
   0.00000000  0.00000000  0.50000000
   0.50000000  0.50000000  0.75000000
   0.00000004  0.50000000  0.00000002
   0.50000004  1.00000000  0.25000002
   0.00000004  0.50000000  0.50000002
   0.50000004  1.00000000  0.75000002
 
 position of ions in cartesian coordinates  (Angst):
   0.00000000  0.00000000  0.00000000
   1.79639300  1.03711670  2.93333400
   0.00000850 -2.07416240  2.93333400
   1.79640150 -1.03704570  5.86666800
   0.00006610  2.07419780  1.46666710
   1.79645910  3.11131450  4.40000110
   0.00007460  0.00003540  4.40000110
   1.79646760  1.03715210  7.33333510
 


--------------------------------------------------------------------------------------------------------


 k-point  1 :   0.0000 0.0000 0.0000  plane waves:    3349
 k-point  2 :   0.2500-0.0000 0.0000  plane waves:    3333
 k-point  3 :   0.5000-0.0000 0.0000  plane waves:    3286
 k-point  4 :   0.0000 0.3333-0.0000  plane waves:    3348
 k-point  5 :   0.2500 0.3333 0.0000  plane waves:    3331
 k-point  6 :   0.5000 0.3333 0.0000  plane waves:    3322
 k-point  7 :  -0.2500 0.3333-0.0000  plane waves:    3331
 k-point  8 :   0.0000-0.0000 0.5000  plane waves:    3322
 k-point  9 :   0.2500-0.0000 0.5000  plane waves:    3362
 k-point 10 :   0.5000-0.0000 0.5000  plane waves:    3344
 k-point 11 :   0.0000 0.3333 0.5000  plane waves:    3326
 k-point 12 :   0.2500 0.3333 0.5000  plane waves:    3332
 k-point 13 :   0.5000 0.3333 0.5000  plane waves:    3336
 k-point 14 :  -0.2500 0.3333 0.5000  plane waves:    3332

 maximum and minimum number of plane-waves per node :       852      812

 maximum number of plane-waves:      3362
 maximum index in each direction: 
   IXMAX=    6   IYMAX=    9   IZMAX=   13
   IXMIN=   -7   IYMIN=   -9   IZMIN=  -13


 parallel 3D FFT for wavefunctions:
    minimum data exchange during FFTs selected (reduces bandwidth)
 parallel 3D FFT for charge:
    minimum data exchange during FFTs selected (reduces bandwidth)


 total amount of memory used by VASP MPI-rank0    50826. kBytes
=======================================================================

   base      :      30000. kBytes
   nonl-proj :       6216. kBytes
   fftplans  :        945. kBytes
   grid      :       2280. kBytes
   one-center:        196. kBytes
   wavefun   :      11189. kBytes
 
     INWAV:  cpu time    0.0000: real time    0.0001
 Broyden mixing: mesh for mixing (old mesh)
   NGX = 13   NGY = 19   NGZ = 27
  (NGX  = 40   NGY  = 56   NGZ  = 80)
  gives a total of   6669 points

 initial charge density was supplied:
 charge density of overlapping atoms calculated
 number of electron      92.0000000 magnetization       0.0000000
 keeping initial charge density in first step


--------------------------------------------------------------------------------------------------------


 Maximum index for augmentation-charges         1239 (set IRDMAX)


--------------------------------------------------------------------------------------------------------


 First call to EWALD:  gamma=   0.349
 Maximum number of real-space cells 4x 3x 2
 Maximum number of reciprocal cells 2x 3x 4

    FEWALD:  cpu time    0.0013: real time    0.0013


--------------------------------------- Iteration      1(   1)  ---------------------------------------


    POTLOK:  cpu time    0.0326: real time    0.0402
    SETDIJ:  cpu time    0.0096: real time    0.0097
     EDDAV:  cpu time    1.3058: real time    1.3209
       DOS:  cpu time    0.0018: real time    0.0018
    --------------------------------------------
      LOOP:  cpu time    1.3498: real time    1.3726

 eigenvalue-minimisations  :  3656
 total energy-change (2. order) : 0.1251303E+04  (-0.3059004E+04)
 number of electron      92.0000000 magnetization       0.0000000
 augmentation part       92.0000000 magnetization       0.0000000

 Free energy of the ion-electron system (eV)
  ---------------------------------------------------
  alpha Z        PSCENC =       906.21131108
  Ewald energy   TEWEN  =     -9706.50133840
  -Hartree energ DENC   =     -2789.90800795
  -exchange      EXHF   =         0.00000000
  -V(xc)+E(xc)   XCENC  =       454.64264860
  PAW double counting   =     10245.08530371   -10827.60657067
  entropy T*S    EENTRO =         0.00250148
  eigenvalues    EBANDS =       760.72443005
  atomic energy  EATOM  =     12208.65233032
  Solvation  Ediel_sol  =         0.00000000
  ---------------------------------------------------
  free energy    TOTEN  =      1251.30260821 eV

  energy without entropy =     1251.30010674  energy(sigma->0) =     1251.30177439


--------------------------------------------------------------------------------------------------------




--------------------------------------- Iteration      1(   2)  ---------------------------------------


     EDDAV:  cpu time    1.4686: real time    1.4731
       DOS:  cpu time    0.0021: real time    0.0021
    --------------------------------------------
      LOOP:  cpu time    1.4708: real time    1.4753

 eigenvalue-minimisations  :  4208
 total energy-change (2. order) :-0.9194024E+03  (-0.8347228E+03)
 number of electron      92.0000000 magnetization       0.0000000
 augmentation part       92.0000000 magnetization       0.0000000

 Free energy of the ion-electron system (eV)
  ---------------------------------------------------
  alpha Z        PSCENC =       906.21131108
  Ewald energy   TEWEN  =     -9706.50133840
  -Hartree energ DENC   =     -2789.90800795
  -exchange      EXHF   =         0.00000000
  -V(xc)+E(xc)   XCENC  =       454.64264860
  PAW double counting   =     10245.08530371   -10827.60657067
  entropy T*S    EENTRO =         0.00316981
  eigenvalues    EBANDS =      -158.67862375
  atomic energy  EATOM  =     12208.65233032
  Solvation  Ediel_sol  =         0.00000000
  ---------------------------------------------------
  free energy    TOTEN  =       331.90022274 eV

  energy without entropy =      331.89705293  energy(sigma->0) =      331.89916614


--------------------------------------------------------------------------------------------------------




--------------------------------------- Iteration      1(   3)  ---------------------------------------


     EDDAV:  cpu time    1.5512: real time    1.5550
       DOS:  cpu time    0.0018: real time    0.0018
    --------------------------------------------
      LOOP:  cpu time    1.5530: real time    1.5568

 eigenvalue-minimisations  :  4512
 total energy-change (2. order) :-0.3364964E+03  (-0.3255492E+03)
 number of electron      92.0000000 magnetization       0.0000000
 augmentation part       92.0000000 magnetization       0.0000000

 Free energy of the ion-electron system (eV)
  ---------------------------------------------------
  alpha Z        PSCENC =       906.21131108
  Ewald energy   TEWEN  =     -9706.50133840
  -Hartree energ DENC   =     -2789.90800795
  -exchange      EXHF   =         0.00000000
  -V(xc)+E(xc)   XCENC  =       454.64264860
  PAW double counting   =     10245.08530371   -10827.60657067
  entropy T*S    EENTRO =        -0.00243858
  eigenvalues    EBANDS =      -495.16944289
  atomic energy  EATOM  =     12208.65233032
  Solvation  Ediel_sol  =         0.00000000
  ---------------------------------------------------
  free energy    TOTEN  =        -4.59620478 eV

  energy without entropy =       -4.59376620  energy(sigma->0) =       -4.59539192


--------------------------------------------------------------------------------------------------------




--------------------------------------- Iteration      1(   4)  ---------------------------------------


     EDDAV:  cpu time    1.9189: real time    1.9235
       DOS:  cpu time    0.0024: real time    0.0024
    --------------------------------------------
      LOOP:  cpu time    1.9213: real time    1.9259

 eigenvalue-minimisations  :  5888
 total energy-change (2. order) :-0.7482004E+02  (-0.7243811E+02)
 number of electron      92.0000000 magnetization       0.0000000
 augmentation part       92.0000000 magnetization       0.0000000

 Free energy of the ion-electron system (eV)
  ---------------------------------------------------
  alpha Z        PSCENC =       906.21131108
  Ewald energy   TEWEN  =     -9706.50133840
  -Hartree energ DENC   =     -2789.90800795
  -exchange      EXHF   =         0.00000000
  -V(xc)+E(xc)   XCENC  =       454.64264860
  PAW double counting   =     10245.08530371   -10827.60657067
  entropy T*S    EENTRO =         0.00883295
  eigenvalues    EBANDS =      -570.00075461
  atomic energy  EATOM  =     12208.65233032
  Solvation  Ediel_sol  =         0.00000000
  ---------------------------------------------------
  free energy    TOTEN  =       -79.41624498 eV

  energy without entropy =      -79.42507793  energy(sigma->0) =      -79.41918930


--------------------------------------------------------------------------------------------------------




--------------------------------------- Iteration      1(   5)  ---------------------------------------


     EDDAV:  cpu time    1.9639: real time    1.9687
       DOS:  cpu time    0.0023: real time    0.0023
    CHARGE:  cpu time    0.0843: real time    0.0845
    MIXING:  cpu time    0.0007: real time    0.0007
    --------------------------------------------
      LOOP:  cpu time    2.0512: real time    2.0562

 eigenvalue-minimisations  :  5960
 total energy-change (2. order) :-0.9467120E+01  (-0.8714574E+01)
 number of electron      92.0000120 magnetization      -0.0000000
 augmentation part       18.2324163 magnetization      -0.0000000

 Broyden mixing:
  rms(total) = 0.38260E+01    rms(broyden)= 0.38257E+01
  rms(prec ) = 0.60999E+01
  weight for this iteration     100.00

 Free energy of the ion-electron system (eV)
  ---------------------------------------------------
  alpha Z        PSCENC =       906.21131108
  Ewald energy   TEWEN  =     -9706.50133840
  -Hartree energ DENC   =     -2789.90800795
  -exchange      EXHF   =         0.00000000
  -V(xc)+E(xc)   XCENC  =       454.64264860
  PAW double counting   =     10245.08530371   -10827.60657067
  entropy T*S    EENTRO =        -0.01543722
  eigenvalues    EBANDS =      -579.44360398
  atomic energy  EATOM  =     12208.65233032
  Solvation  Ediel_sol  =         0.00000000
  ---------------------------------------------------
  free energy    TOTEN  =       -88.88336452 eV

  energy without entropy =      -88.86792730  energy(sigma->0) =      -88.87821878


--------------------------------------------------------------------------------------------------------




--------------------------------------- Iteration      1(   6)  ---------------------------------------


    POTLOK:  cpu time    0.0251: real time    0.0252
    SETDIJ:  cpu time    0.0092: real time    0.0092
     EDDAV:  cpu time    1.7711: real time    1.7753
       DOS:  cpu time    0.0021: real time    0.0021
    CHARGE:  cpu time    0.0755: real time    0.0757
    MIXING:  cpu time    0.0009: real time    0.0009
    --------------------------------------------
      LOOP:  cpu time    1.8838: real time    1.8884

 eigenvalue-minimisations  :  5280
 total energy-change (2. order) :-0.6660527E+02  (-0.8675202E+02)
 number of electron      92.0000145 magnetization      -0.0000000
 augmentation part       44.7175303 magnetization      -0.0000000

 Broyden mixing:
  rms(total) = 0.16350E+02    rms(broyden)= 0.16349E+02
  rms(prec ) = 0.22950E+02
  weight for this iteration     100.00

 eigenvalues of (default mixing * dielectric matrix)
  average eigenvalue GAMMA=   0.1322
  0.1322

 Free energy of the ion-electron system (eV)
  ---------------------------------------------------
  alpha Z        PSCENC =       906.21131108
  Ewald energy   TEWEN  =     -9706.50133840
  -Hartree energ DENC   =     -2538.94329847
  -exchange      EXHF   =         0.00000000
  -V(xc)+E(xc)   XCENC  =       447.93161719
  PAW double counting   =      9871.71068188   -10352.43121583
  entropy T*S    EENTRO =         0.00500880
  eigenvalues    EBANDS =      -992.12373082
  atomic energy  EATOM  =     12208.65233032
  Solvation  Ediel_sol  =         0.00000000
  ---------------------------------------------------
  free energy    TOTEN  =      -155.48863425 eV

  energy without entropy =     -155.49364305  energy(sigma->0) =     -155.49030385


--------------------------------------------------------------------------------------------------------




--------------------------------------- Iteration      1(   7)  ---------------------------------------


    POTLOK:  cpu time    0.0257: real time    0.0258
    SETDIJ:  cpu time    0.0091: real time    0.0091
     EDDAV:  cpu time    1.6422: real time    1.6461
       DOS:  cpu time    0.0019: real time    0.0019
    CHARGE:  cpu time    0.0779: real time    0.0781
    MIXING:  cpu time    0.0009: real time    0.0009
    --------------------------------------------
      LOOP:  cpu time    1.7577: real time    1.7620

 eigenvalue-minimisations  :  4808
 total energy-change (2. order) : 0.1088556E+03  (-0.8852796E+02)
 number of electron      92.0000105 magnetization      -0.0000000
 augmentation part       23.3438297 magnetization      -0.0000000

 Broyden mixing:
  rms(total) = 0.58908E+01    rms(broyden)= 0.58905E+01
  rms(prec ) = 0.60187E+01
  weight for this iteration     100.00

 eigenvalues of (default mixing * dielectric matrix)
  average eigenvalue GAMMA=   0.1532
  0.1532  0.1532

 Free energy of the ion-electron system (eV)
  ---------------------------------------------------
  alpha Z        PSCENC =       906.21131108
  Ewald energy   TEWEN  =     -9706.50133840
  -Hartree energ DENC   =     -2700.05212482
  -exchange      EXHF   =         0.00000000
  -V(xc)+E(xc)   XCENC  =       448.74372523
  PAW double counting   =     10294.07573670   -10875.56273963
  entropy T*S    EENTRO =        -0.00064174
  eigenvalues    EBANDS =      -622.19927585
  atomic energy  EATOM  =     12208.65233032
  Solvation  Ediel_sol  =         0.00000000
  ---------------------------------------------------
  free energy    TOTEN  =       -46.63301710 eV

  energy without entropy =      -46.63237536  energy(sigma->0) =      -46.63280319


--------------------------------------------------------------------------------------------------------




--------------------------------------- Iteration      1(   8)  ---------------------------------------


    POTLOK:  cpu time    0.0252: real time    0.0253
    SETDIJ:  cpu time    0.0090: real time    0.0091
     EDDAV:  cpu time    1.8764: real time    1.8809
       DOS:  cpu time    0.0022: real time    0.0022
    CHARGE:  cpu time    0.0740: real time    0.0742
    MIXING:  cpu time    0.0009: real time    0.0009
    --------------------------------------------
      LOOP:  cpu time    1.9878: real time    1.9926

 eigenvalue-minimisations  :  5672
 total energy-change (2. order) :-0.3438991E+02  (-0.3209791E+02)
 number of electron      92.0000120 magnetization       0.0000000
 augmentation part       24.2598990 magnetization       0.0000000

 Broyden mixing:
  rms(total) = 0.30719E+01    rms(broyden)= 0.30715E+01
  rms(prec ) = 0.32777E+01
  weight for this iteration     100.00

 eigenvalues of (default mixing * dielectric matrix)
  average eigenvalue GAMMA=   0.2644
  0.2819  0.2819  0.2295

 Free energy of the ion-electron system (eV)
  ---------------------------------------------------
  alpha Z        PSCENC =       906.21131108
  Ewald energy   TEWEN  =     -9706.50133840
  -Hartree energ DENC   =     -2700.23225443
  -exchange      EXHF   =         0.00000000
  -V(xc)+E(xc)   XCENC  =       450.99168272
  PAW double counting   =     10328.21302905   -10912.07129484
  entropy T*S    EENTRO =         0.01568731
  eigenvalues    EBANDS =      -656.30208412
  atomic energy  EATOM  =     12208.65233032
  Solvation  Ediel_sol  =         0.00000000
  ---------------------------------------------------
  free energy    TOTEN  =       -81.02293133 eV

  energy without entropy =      -81.03861864  energy(sigma->0) =      -81.02816043


--------------------------------------------------------------------------------------------------------




--------------------------------------- Iteration      1(   9)  ---------------------------------------


    POTLOK:  cpu time    0.0247: real time    0.0249
    SETDIJ:  cpu time    0.0089: real time    0.0090
     EDDAV:  cpu time    1.6861: real time    1.6901
       DOS:  cpu time    0.0024: real time    0.0024
    CHARGE:  cpu time    0.0707: real time    0.0709
    MIXING:  cpu time    0.0010: real time    0.0010
    --------------------------------------------
      LOOP:  cpu time    1.7939: real time    1.7982

 eigenvalue-minimisations  :  4984
 total energy-change (2. order) :-0.1602978E+01  (-0.2603809E+01)
 number of electron      92.0000115 magnetization      -0.0000000
 augmentation part       22.4696077 magnetization      -0.0000000

 Broyden mixing:
  rms(total) = 0.15710E+01    rms(broyden)= 0.15710E+01
  rms(prec ) = 0.17779E+01
  weight for this iteration     100.00

 eigenvalues of (default mixing * dielectric matrix)
  average eigenvalue GAMMA=   0.4337
  0.6485  0.5485  0.2689  0.2689

 Free energy of the ion-electron system (eV)
  ---------------------------------------------------
  alpha Z        PSCENC =       906.21131108
  Ewald energy   TEWEN  =     -9706.50133840
  -Hartree energ DENC   =     -2757.62808237
  -exchange      EXHF   =         0.00000000
  -V(xc)+E(xc)   XCENC  =       457.49947964
  PAW double counting   =     10416.76093120   -11023.91259027
  entropy T*S    EENTRO =         0.02578324
  eigenvalues    EBANDS =      -583.73373334
  atomic energy  EATOM  =     12208.65233032
  Solvation  Ediel_sol  =         0.00000000
  ---------------------------------------------------
  free energy    TOTEN  =       -82.62590890 eV

  energy without entropy =      -82.65169214  energy(sigma->0) =      -82.63450331


--------------------------------------------------------------------------------------------------------




--------------------------------------- Iteration      1(  10)  ---------------------------------------


    POTLOK:  cpu time    0.0246: real time    0.0247
    SETDIJ:  cpu time    0.0089: real time    0.0089
     EDDAV:  cpu time    2.0418: real time    2.0467
       DOS:  cpu time    0.0023: real time    0.0023
    CHARGE:  cpu time    0.0753: real time    0.0755
    MIXING:  cpu time    0.0011: real time    0.0011
    --------------------------------------------
      LOOP:  cpu time    2.1540: real time    2.1592

 eigenvalue-minimisations  :  6224
 total energy-change (2. order) :-0.3420605E+00  (-0.3408620E+00)
 number of electron      92.0000113 magnetization      -0.0000000
 augmentation part       22.4419586 magnetization      -0.0000000

 Broyden mixing:
  rms(total) = 0.12790E+01    rms(broyden)= 0.12790E+01
  rms(prec ) = 0.14281E+01
  weight for this iteration     100.00

 eigenvalues of (default mixing * dielectric matrix)
  average eigenvalue GAMMA=   0.4969
  0.8010  0.8010  0.2698  0.3063  0.3063

 Free energy of the ion-electron system (eV)
  ---------------------------------------------------
  alpha Z        PSCENC =       906.21131108
  Ewald energy   TEWEN  =     -9706.50133840
  -Hartree energ DENC   =     -2762.31680350
  -exchange      EXHF   =         0.00000000
  -V(xc)+E(xc)   XCENC  =       459.26003899
  PAW double counting   =     10450.79089152   -11064.59306271
  entropy T*S    EENTRO =         0.01805256
  eigenvalues    EBANDS =      -574.48938929
  atomic energy  EATOM  =     12208.65233032
  Solvation  Ediel_sol  =         0.00000000
  ---------------------------------------------------
  free energy    TOTEN  =       -82.96796943 eV

  energy without entropy =      -82.98602199  energy(sigma->0) =      -82.97398695


--------------------------------------------------------------------------------------------------------




--------------------------------------- Iteration      1(  11)  ---------------------------------------


    POTLOK:  cpu time    0.0244: real time    0.0246
    SETDIJ:  cpu time    0.0090: real time    0.0090
     EDDAV:  cpu time    1.8875: real time    1.8920
       DOS:  cpu time    0.0023: real time    0.0023
    CHARGE:  cpu time    0.0740: real time    0.0742
    MIXING:  cpu time    0.0012: real time    0.0012
    --------------------------------------------
      LOOP:  cpu time    1.9985: real time    2.0033

 eigenvalue-minimisations  :  5776
 total energy-change (2. order) : 0.3280206E-02  (-0.4680301E-01)
 number of electron      92.0000114 magnetization       0.0000000
 augmentation part       22.8613972 magnetization       0.0000000

 Broyden mixing:
  rms(total) = 0.11480E+01    rms(broyden)= 0.11480E+01
  rms(prec ) = 0.12121E+01
  weight for this iteration     100.00

 eigenvalues of (default mixing * dielectric matrix)
  average eigenvalue GAMMA=   0.6994
  1.3554  1.3554  0.2851  0.2851  0.4576  0.4576

 Free energy of the ion-electron system (eV)
  ---------------------------------------------------
  alpha Z        PSCENC =       906.21131108
  Ewald energy   TEWEN  =     -9706.50133840
  -Hartree energ DENC   =     -2758.62354856
  -exchange      EXHF   =         0.00000000
  -V(xc)+E(xc)   XCENC  =       460.14448079
  PAW double counting   =     10468.95213643   -11083.08880547
  entropy T*S    EENTRO =         0.01450810
  eigenvalues    EBANDS =      -578.72576352
  atomic energy  EATOM  =     12208.65233032
  Solvation  Ediel_sol  =         0.00000000
  ---------------------------------------------------
  free energy    TOTEN  =       -82.96468922 eV

  energy without entropy =      -82.97919733  energy(sigma->0) =      -82.96952526


--------------------------------------------------------------------------------------------------------




--------------------------------------- Iteration      1(  12)  ---------------------------------------


    POTLOK:  cpu time    0.0250: real time    0.0251
    SETDIJ:  cpu time    0.0089: real time    0.0089
     EDDAV:  cpu time    1.9218: real time    1.9264
       DOS:  cpu time    0.0023: real time    0.0023
    CHARGE:  cpu time    0.0771: real time    0.0773
    MIXING:  cpu time    0.0012: real time    0.0012
    --------------------------------------------
      LOOP:  cpu time    2.0362: real time    2.0412

 eigenvalue-minimisations  :  5848
 total energy-change (2. order) :-0.2642085E+00  (-0.5728599E-01)
 number of electron      92.0000113 magnetization       0.0000000
 augmentation part       23.1222921 magnetization       0.0000000

 Broyden mixing:
  rms(total) = 0.66214E+00    rms(broyden)= 0.66213E+00
  rms(prec ) = 0.69005E+00
  weight for this iteration     100.00

 eigenvalues of (default mixing * dielectric matrix)
  average eigenvalue GAMMA=   0.9004
  2.8395  1.2433  0.2898  0.2898  0.3781  0.6311  0.6311

 Free energy of the ion-electron system (eV)
  ---------------------------------------------------
  alpha Z        PSCENC =       906.21131108
  Ewald energy   TEWEN  =     -9706.50133840
  -Hartree energ DENC   =     -2761.06929629
  -exchange      EXHF   =         0.00000000
  -V(xc)+E(xc)   XCENC  =       463.16017234
  PAW double counting   =     10522.52850653   -11141.04071719
  entropy T*S    EENTRO =         0.01776118
  eigenvalues    EBANDS =      -575.18762734
  atomic energy  EATOM  =     12208.65233032
  Solvation  Ediel_sol  =         0.00000000
  ---------------------------------------------------
  free energy    TOTEN  =       -83.22889777 eV

  energy without entropy =      -83.24665895  energy(sigma->0) =      -83.23481816


--------------------------------------------------------------------------------------------------------




--------------------------------------- Iteration      1(  13)  ---------------------------------------


    POTLOK:  cpu time    0.0243: real time    0.0244
    SETDIJ:  cpu time    0.0090: real time    0.0090
     EDDAV:  cpu time    1.8740: real time    1.8785
       DOS:  cpu time    0.0023: real time    0.0023
    CHARGE:  cpu time    0.0711: real time    0.0712
    MIXING:  cpu time    0.0015: real time    0.0016
    --------------------------------------------
      LOOP:  cpu time    1.9823: real time    1.9870

 eigenvalue-minimisations  :  5656
 total energy-change (2. order) :-0.8021783E-01  (-0.2410829E-01)
 number of electron      92.0000113 magnetization       0.0000000
 augmentation part       23.2989872 magnetization       0.0000000

 Broyden mixing:
  rms(total) = 0.53020E+00    rms(broyden)= 0.53020E+00
  rms(prec ) = 0.58579E+00
  weight for this iteration     100.00

 eigenvalues of (default mixing * dielectric matrix)
  average eigenvalue GAMMA=   0.8592
  3.0470  1.1914  0.6358  0.6358  0.2844  0.2844  0.3972  0.3972

 Free energy of the ion-electron system (eV)
  ---------------------------------------------------
  alpha Z        PSCENC =       906.21131108
  Ewald energy   TEWEN  =     -9706.50133840
  -Hartree energ DENC   =     -2760.20123083
  -exchange      EXHF   =         0.00000000
  -V(xc)+E(xc)   XCENC  =       464.60517865
  PAW double counting   =     10534.84777044   -11152.99197403
  entropy T*S    EENTRO =         0.01610367
  eigenvalues    EBANDS =      -577.94726651
  atomic energy  EATOM  =     12208.65233032
  Solvation  Ediel_sol  =         0.00000000
  ---------------------------------------------------
  free energy    TOTEN  =       -83.30911560 eV

  energy without entropy =      -83.32521927  energy(sigma->0) =      -83.31448349


--------------------------------------------------------------------------------------------------------




--------------------------------------- Iteration      1(  14)  ---------------------------------------


    POTLOK:  cpu time    0.0245: real time    0.0247
    SETDIJ:  cpu time    0.0091: real time    0.0091
     EDDAV:  cpu time    1.8687: real time    1.8731
       DOS:  cpu time    0.0023: real time    0.0023
    CHARGE:  cpu time    0.0744: real time    0.0746
    MIXING:  cpu time    0.0014: real time    0.0014
    --------------------------------------------
      LOOP:  cpu time    1.9804: real time    1.9852

 eigenvalue-minimisations  :  5616
 total energy-change (2. order) :-0.1331633E-01  (-0.5768247E-02)
 number of electron      92.0000113 magnetization       0.0000000
 augmentation part       23.3537515 magnetization       0.0000000

 Broyden mixing:
  rms(total) = 0.50266E+00    rms(broyden)= 0.50266E+00
  rms(prec ) = 0.56751E+00
  weight for this iteration     100.00

 eigenvalues of (default mixing * dielectric matrix)
  average eigenvalue GAMMA=   0.8731
  3.1579  1.1368  0.6912  0.6912  0.6099  0.6099  0.2885  0.2885  0.3845

 Free energy of the ion-electron system (eV)
  ---------------------------------------------------
  alpha Z        PSCENC =       906.21131108
  Ewald energy   TEWEN  =     -9706.50133840
  -Hartree energ DENC   =     -2759.96327962
  -exchange      EXHF   =         0.00000000
  -V(xc)+E(xc)   XCENC  =       465.00794825
  PAW double counting   =     10539.84763480   -11157.00765170
  entropy T*S    EENTRO =         0.01626250
  eigenvalues    EBANDS =      -579.58564915
  atomic energy  EATOM  =     12208.65233032
  Solvation  Ediel_sol  =         0.00000000
  ---------------------------------------------------
  free energy    TOTEN  =       -83.32243193 eV

  energy without entropy =      -83.33869443  energy(sigma->0) =      -83.32785277


--------------------------------------------------------------------------------------------------------




--------------------------------------- Iteration      1(  15)  ---------------------------------------


    POTLOK:  cpu time    0.0242: real time    0.0244
    SETDIJ:  cpu time    0.0088: real time    0.0089
     EDDAV:  cpu time    1.9707: real time    1.9754
       DOS:  cpu time    0.0022: real time    0.0022
    CHARGE:  cpu time    0.0735: real time    0.0737
    MIXING:  cpu time    0.0016: real time    0.0016
    --------------------------------------------
      LOOP:  cpu time    2.0811: real time    2.0861

 eigenvalue-minimisations  :  6000
 total energy-change (2. order) : 0.4451298E-03  (-0.8966590E-03)
 number of electron      92.0000113 magnetization       0.0000000
 augmentation part       23.3716560 magnetization       0.0000000

 Broyden mixing:
  rms(total) = 0.46380E+00    rms(broyden)= 0.46380E+00
  rms(prec ) = 0.53438E+00
  weight for this iteration     100.00

 eigenvalues of (default mixing * dielectric matrix)
  average eigenvalue GAMMA=   0.9004
  3.3134  0.9557  0.9557  1.0095  0.6603  0.6603  0.2874  0.2874  0.4196  0.4549

 Free energy of the ion-electron system (eV)
  ---------------------------------------------------
  alpha Z        PSCENC =       906.21131108
  Ewald energy   TEWEN  =     -9706.50133840
  -Hartree energ DENC   =     -2760.14032656
  -exchange      EXHF   =         0.00000000
  -V(xc)+E(xc)   XCENC  =       465.24507491
  PAW double counting   =     10544.58953369   -11161.18400222
  entropy T*S    EENTRO =         0.01695567
  eigenvalues    EBANDS =      -580.21152529
  atomic energy  EATOM  =     12208.65233032
  Solvation  Ediel_sol  =         0.00000000
  ---------------------------------------------------
  free energy    TOTEN  =       -83.32198680 eV

  energy without entropy =      -83.33894247  energy(sigma->0) =      -83.32763869


--------------------------------------------------------------------------------------------------------




--------------------------------------- Iteration      1(  16)  ---------------------------------------


    POTLOK:  cpu time    0.0242: real time    0.0243
    SETDIJ:  cpu time    0.0090: real time    0.0091
     EDDAV:  cpu time    1.6609: real time    1.6654
       DOS:  cpu time    0.0023: real time    0.0023
    CHARGE:  cpu time    0.0713: real time    0.0715
    MIXING:  cpu time    0.0016: real time    0.0016
    --------------------------------------------
      LOOP:  cpu time    1.7694: real time    1.7743

 eigenvalue-minimisations  :  4952
 total energy-change (2. order) : 0.2931871E-01  (-0.2352898E-02)
 number of electron      92.0000113 magnetization       0.0000000
 augmentation part       23.4452809 magnetization       0.0000000

 Broyden mixing:
  rms(total) = 0.37466E+00    rms(broyden)= 0.37466E+00
  rms(prec ) = 0.44567E+00
  weight for this iteration     100.00

 eigenvalues of (default mixing * dielectric matrix)
  average eigenvalue GAMMA=   1.1033
  3.6785  1.9847  1.9847  0.7808  0.7808  0.8242  0.2877  0.2877  0.3987  0.6047
  0.5235

 Free energy of the ion-electron system (eV)
  ---------------------------------------------------
  alpha Z        PSCENC =       906.21131108
  Ewald energy   TEWEN  =     -9706.50133840
  -Hartree energ DENC   =     -2759.54386397
  -exchange      EXHF   =         0.00000000
  -V(xc)+E(xc)   XCENC  =       465.75695442
  PAW double counting   =     10558.45889490   -11173.32024112
  entropy T*S    EENTRO =         0.01866703
  eigenvalues    EBANDS =      -583.02538235
  atomic energy  EATOM  =     12208.65233032
  Solvation  Ediel_sol  =         0.00000000
  ---------------------------------------------------
  free energy    TOTEN  =       -83.29266810 eV

  energy without entropy =      -83.31133513  energy(sigma->0) =      -83.29889044


--------------------------------------------------------------------------------------------------------




--------------------------------------- Iteration      1(  17)  ---------------------------------------


    POTLOK:  cpu time    0.0245: real time    0.0246
    SETDIJ:  cpu time    0.0089: real time    0.0089
     EDDAV:  cpu time    1.8599: real time    1.8643
       DOS:  cpu time    0.0024: real time    0.0024
    CHARGE:  cpu time    0.0724: real time    0.0726
    MIXING:  cpu time    0.0017: real time    0.0017
    --------------------------------------------
      LOOP:  cpu time    1.9697: real time    1.9745

 eigenvalue-minimisations  :  5768
 total energy-change (2. order) : 0.5913362E-01  (-0.7256782E-02)
 number of electron      92.0000114 magnetization       0.0000000
 augmentation part       23.5049582 magnetization       0.0000000

 Broyden mixing:
  rms(total) = 0.31966E+00    rms(broyden)= 0.31965E+00
  rms(prec ) = 0.36103E+00
  weight for this iteration     100.00

 eigenvalues of (default mixing * dielectric matrix)
  average eigenvalue GAMMA=   1.1924
  4.0203  2.4747  2.4747  0.8749  0.8749  0.7664  0.7664  0.2877  0.2877  0.3981
  0.5414  0.5414

 Free energy of the ion-electron system (eV)
  ---------------------------------------------------
  alpha Z        PSCENC =       906.21131108
  Ewald energy   TEWEN  =     -9706.50133840
  -Hartree energ DENC   =     -2758.85405190
  -exchange      EXHF   =         0.00000000
  -V(xc)+E(xc)   XCENC  =       466.22589254
  PAW double counting   =     10579.91744343   -11193.23959721
  entropy T*S    EENTRO =         0.01966365
  eigenvalues    EBANDS =      -585.66518798
  atomic energy  EATOM  =     12208.65233032
  Solvation  Ediel_sol  =         0.00000000
  ---------------------------------------------------
  free energy    TOTEN  =       -83.23353447 eV

  energy without entropy =      -83.25319812  energy(sigma->0) =      -83.24008902


--------------------------------------------------------------------------------------------------------




--------------------------------------- Iteration      1(  18)  ---------------------------------------


    POTLOK:  cpu time    0.0238: real time    0.0240
    SETDIJ:  cpu time    0.0090: real time    0.0091
     EDDAV:  cpu time    1.7692: real time    1.7735
       DOS:  cpu time    0.0024: real time    0.0024
    CHARGE:  cpu time    0.0758: real time    0.0760
    MIXING:  cpu time    0.0021: real time    0.0022
    --------------------------------------------
      LOOP:  cpu time    1.8825: real time    1.8870

 eigenvalue-minimisations  :  5352
 total energy-change (2. order) :-0.2091001E-02  (-0.3193455E-02)
 number of electron      92.0000114 magnetization       0.0000000
 augmentation part       23.4426979 magnetization       0.0000000

 Broyden mixing:
  rms(total) = 0.21030E+00    rms(broyden)= 0.21030E+00
  rms(prec ) = 0.23446E+00
  weight for this iteration     100.00

 eigenvalues of (default mixing * dielectric matrix)
  average eigenvalue GAMMA=   1.1834
  3.4878  2.8999  2.8999  0.8561  0.8561  0.8077  0.8077  0.2877  0.2877  0.3987
  0.6372  0.6372  0.5202

 Free energy of the ion-electron system (eV)
  ---------------------------------------------------
  alpha Z        PSCENC =       906.21131108
  Ewald energy   TEWEN  =     -9706.50133840
  -Hartree energ DENC   =     -2758.52396901
  -exchange      EXHF   =         0.00000000
  -V(xc)+E(xc)   XCENC  =       465.66878426
  PAW double counting   =     10579.27819653   -11194.04167493
  entropy T*S    EENTRO =         0.02044729
  eigenvalues    EBANDS =      -583.99971261
  atomic energy  EATOM  =     12208.65233032
  Solvation  Ediel_sol  =         0.00000000
  ---------------------------------------------------
  free energy    TOTEN  =       -83.23562547 eV

  energy without entropy =      -83.25607277  energy(sigma->0) =      -83.24244124


--------------------------------------------------------------------------------------------------------




--------------------------------------- Iteration      1(  19)  ---------------------------------------


    POTLOK:  cpu time    0.0246: real time    0.0248
    SETDIJ:  cpu time    0.0092: real time    0.0092
     EDDAV:  cpu time    1.8604: real time    1.8648
       DOS:  cpu time    0.0022: real time    0.0022
    CHARGE:  cpu time    0.0704: real time    0.0705
    MIXING:  cpu time    0.0020: real time    0.0020
    --------------------------------------------
      LOOP:  cpu time    1.9687: real time    1.9735

 eigenvalue-minimisations  :  5680
 total energy-change (2. order) :-0.9238499E-04  (-0.2459130E-02)
 number of electron      92.0000114 magnetization      -0.0000000
 augmentation part       23.4033420 magnetization      -0.0000000

 Broyden mixing:
  rms(total) = 0.11479E+00    rms(broyden)= 0.11479E+00
  rms(prec ) = 0.12381E+00
  weight for this iteration     100.00

 eigenvalues of (default mixing * dielectric matrix)
  average eigenvalue GAMMA=   1.2236
  3.6755  3.6755  2.4789  1.0855  1.0855  0.8181  0.8181  0.2877  0.2877  0.3985
  0.7162  0.7162  0.5436  0.5436

 Free energy of the ion-electron system (eV)
  ---------------------------------------------------
  alpha Z        PSCENC =       906.21131108
  Ewald energy   TEWEN  =     -9706.50133840
  -Hartree energ DENC   =     -2757.76431497
  -exchange      EXHF   =         0.00000000
  -V(xc)+E(xc)   XCENC  =       465.16069722
  PAW double counting   =     10576.99328964   -11192.46417454
  entropy T*S    EENTRO =         0.02046732
  eigenvalues    EBANDS =      -583.54398553
  atomic energy  EATOM  =     12208.65233032
  Solvation  Ediel_sol  =         0.00000000
  ---------------------------------------------------
  free energy    TOTEN  =       -83.23571786 eV

  energy without entropy =      -83.25618518  energy(sigma->0) =      -83.24254030


--------------------------------------------------------------------------------------------------------




--------------------------------------- Iteration      1(  20)  ---------------------------------------


    POTLOK:  cpu time    0.0244: real time    0.0245
    SETDIJ:  cpu time    0.0088: real time    0.0089
     EDDAV:  cpu time    1.9601: real time    1.9649
       DOS:  cpu time    0.0022: real time    0.0022
    CHARGE:  cpu time    0.0742: real time    0.0744
    MIXING:  cpu time    0.0021: real time    0.0021
    --------------------------------------------
      LOOP:  cpu time    2.0719: real time    2.0770

 eigenvalue-minimisations  :  6008
 total energy-change (2. order) :-0.2803130E-02  (-0.1096159E-02)
 number of electron      92.0000114 magnetization      -0.0000000
 augmentation part       23.3721092 magnetization      -0.0000000

 Broyden mixing:
  rms(total) = 0.49617E-01    rms(broyden)= 0.49615E-01
  rms(prec ) = 0.50629E-01
  weight for this iteration     100.00

 eigenvalues of (default mixing * dielectric matrix)
  average eigenvalue GAMMA=   1.2316
  3.9555  3.9555  2.4133  1.1238  0.9624  0.9624  0.8218  0.8218  0.2877  0.2877
  0.7589  0.3985  0.6089  0.5409  0.5747

 Free energy of the ion-electron system (eV)
  ---------------------------------------------------
  alpha Z        PSCENC =       906.21131108
  Ewald energy   TEWEN  =     -9706.50133840
  -Hartree energ DENC   =     -2757.38947628
  -exchange      EXHF   =         0.00000000
  -V(xc)+E(xc)   XCENC  =       464.78924693
  PAW double counting   =     10575.22204441   -11191.04973479
  entropy T*S    EENTRO =         0.02027779
  eigenvalues    EBANDS =      -583.19318206
  atomic energy  EATOM  =     12208.65233032
  Solvation  Ediel_sol  =         0.00000000
  ---------------------------------------------------
  free energy    TOTEN  =       -83.23852099 eV

  energy without entropy =      -83.25879878  energy(sigma->0) =      -83.24528025


--------------------------------------------------------------------------------------------------------




--------------------------------------- Iteration      1(  21)  ---------------------------------------


    POTLOK:  cpu time    0.0241: real time    0.0243
    SETDIJ:  cpu time    0.0089: real time    0.0090
     EDDAV:  cpu time    1.8410: real time    1.8454
       DOS:  cpu time    0.0027: real time    0.0027
    CHARGE:  cpu time    0.0720: real time    0.0722
    MIXING:  cpu time    0.0022: real time    0.0022
    --------------------------------------------
      LOOP:  cpu time    1.9510: real time    1.9557

 eigenvalue-minimisations  :  5824
 total energy-change (2. order) :-0.7226549E-03  (-0.2552272E-03)
 number of electron      92.0000114 magnetization      -0.0000000
 augmentation part       23.3510398 magnetization      -0.0000000

 Broyden mixing:
  rms(total) = 0.52199E-02    rms(broyden)= 0.52184E-02
  rms(prec ) = 0.62309E-02
  weight for this iteration     100.00

 eigenvalues of (default mixing * dielectric matrix)
  average eigenvalue GAMMA=   1.2583
  4.0087  4.0087  2.1396  2.1396  0.8389  0.8389  0.9800  0.9800  0.2877  0.2877
  0.7462  0.7462  0.3985  0.5954  0.5954  0.5414

 Free energy of the ion-electron system (eV)
  ---------------------------------------------------
  alpha Z        PSCENC =       906.21131108
  Ewald energy   TEWEN  =     -9706.50133840
  -Hartree energ DENC   =     -2757.16680170
  -exchange      EXHF   =         0.00000000
  -V(xc)+E(xc)   XCENC  =       464.57111879
  PAW double counting   =     10572.29413694   -11188.45303518
  entropy T*S    EENTRO =         0.02007550
  eigenvalues    EBANDS =      -582.86704099
  atomic energy  EATOM  =     12208.65233032
  Solvation  Ediel_sol  =         0.00000000
  ---------------------------------------------------
  free energy    TOTEN  =       -83.23924364 eV

  energy without entropy =      -83.25931914  energy(sigma->0) =      -83.24593548


--------------------------------------------------------------------------------------------------------




--------------------------------------- Iteration      1(  22)  ---------------------------------------


    POTLOK:  cpu time    0.0231: real time    0.0233
    SETDIJ:  cpu time    0.0085: real time    0.0085
     EDDAV:  cpu time    1.6509: real time    1.6548
       DOS:  cpu time    0.0022: real time    0.0022
    CHARGE:  cpu time    0.0717: real time    0.0719
    MIXING:  cpu time    0.0025: real time    0.0025
    --------------------------------------------
      LOOP:  cpu time    1.7590: real time    1.7632

 eigenvalue-minimisations  :  5552
 total energy-change (2. order) :-0.6333682E-04  (-0.5903864E-04)
 number of electron      92.0000114 magnetization      -0.0000000
 augmentation part       23.3563579 magnetization      -0.0000000

 Broyden mixing:
  rms(total) = 0.97606E-02    rms(broyden)= 0.97604E-02
  rms(prec ) = 0.11380E-01
  weight for this iteration     100.00

 eigenvalues of (default mixing * dielectric matrix)
  average eigenvalue GAMMA=   1.2571
  3.8497  3.8497  2.4406  2.4406  1.0974  0.9044  0.9044  0.8222  0.8222  0.2877
  0.2877  0.3985  0.7667  0.7002  0.7002  0.5490  0.5490

 Free energy of the ion-electron system (eV)
  ---------------------------------------------------
  alpha Z        PSCENC =       906.21131108
  Ewald energy   TEWEN  =     -9706.50133840
  -Hartree energ DENC   =     -2757.04791483
  -exchange      EXHF   =         0.00000000
  -V(xc)+E(xc)   XCENC  =       464.53721004
  PAW double counting   =     10571.20196588   -11187.25399446
  entropy T*S    EENTRO =         0.02011999
  eigenvalues    EBANDS =      -583.05899659
  atomic energy  EATOM  =     12208.65233032
  Solvation  Ediel_sol  =         0.00000000
  ---------------------------------------------------
  free energy    TOTEN  =       -83.23930698 eV

  energy without entropy =      -83.25942697  energy(sigma->0) =      -83.24601364


--------------------------------------------------------------------------------------------------------




--------------------------------------- Iteration      1(  23)  ---------------------------------------


    POTLOK:  cpu time    0.0229: real time    0.0230
    SETDIJ:  cpu time    0.0085: real time    0.0085
     EDDAV:  cpu time    1.7595: real time    1.7637
       DOS:  cpu time    0.0023: real time    0.0023
    CHARGE:  cpu time    0.0717: real time    0.0719
    MIXING:  cpu time    0.0025: real time    0.0025
    --------------------------------------------
      LOOP:  cpu time    1.8673: real time    1.8719

 eigenvalue-minimisations  :  5976
 total energy-change (2. order) : 0.2387531E-04  (-0.1713519E-04)
 number of electron      92.0000114 magnetization       0.0000000
 augmentation part       23.3566536 magnetization       0.0000000

 Broyden mixing:
  rms(total) = 0.34964E-02    rms(broyden)= 0.34960E-02
  rms(prec ) = 0.38999E-02
  weight for this iteration     100.00

 eigenvalues of (default mixing * dielectric matrix)
  average eigenvalue GAMMA=   1.2600
  3.8926  3.8926  2.5154  2.5154  1.2560  1.2560  0.8283  0.8283  0.2877  0.2877
  0.3985  0.7210  0.7210  0.7805  0.6965  0.6965  0.5530  0.5530

 Free energy of the ion-electron system (eV)
  ---------------------------------------------------
  alpha Z        PSCENC =       906.21131108
  Ewald energy   TEWEN  =     -9706.50133840
  -Hartree energ DENC   =     -2757.21853938
  -exchange      EXHF   =         0.00000000
  -V(xc)+E(xc)   XCENC  =       464.58367348
  PAW double counting   =     10570.89869812   -11186.96624722
  entropy T*S    EENTRO =         0.02001884
  eigenvalues    EBANDS =      -582.91918995
  atomic energy  EATOM  =     12208.65233032
  Solvation  Ediel_sol  =         0.00000000
  ---------------------------------------------------
  free energy    TOTEN  =       -83.23928311 eV

  energy without entropy =      -83.25930195  energy(sigma->0) =      -83.24595605


--------------------------------------------------------------------------------------------------------




--------------------------------------- Iteration      1(  24)  ---------------------------------------


    POTLOK:  cpu time    0.0229: real time    0.0231
    SETDIJ:  cpu time    0.0085: real time    0.0085
     EDDAV:  cpu time    1.4854: real time    1.4889
       DOS:  cpu time    0.0023: real time    0.0023
    CHARGE:  cpu time    0.0718: real time    0.0720
    MIXING:  cpu time    0.0026: real time    0.0026
    --------------------------------------------
      LOOP:  cpu time    1.5935: real time    1.5973

 eigenvalue-minimisations  :  4928
 total energy-change (2. order) : 0.8274037E-07  (-0.5467079E-05)
 number of electron      92.0000114 magnetization      -0.0000000
 augmentation part       23.3540646 magnetization      -0.0000000

 Broyden mixing:
  rms(total) = 0.15096E-02    rms(broyden)= 0.15091E-02
  rms(prec ) = 0.16801E-02
  weight for this iteration     100.00

 eigenvalues of (default mixing * dielectric matrix)
  average eigenvalue GAMMA=   1.2435
  3.8921  3.8921  2.8059  2.2474  1.3033  1.3033  0.8357  0.8357  0.8448  0.8448
  0.7185  0.7185  0.2877  0.2877  0.3985  0.6913  0.6125  0.5532  0.5532

 Free energy of the ion-electron system (eV)
  ---------------------------------------------------
  alpha Z        PSCENC =       906.21131108
  Ewald energy   TEWEN  =     -9706.50133840
  -Hartree energ DENC   =     -2757.27278300
  -exchange      EXHF   =         0.00000000
  -V(xc)+E(xc)   XCENC  =       464.58490000
  PAW double counting   =     10570.34343835   -11186.47211310
  entropy T*S    EENTRO =         0.01995903
  eigenvalues    EBANDS =      -582.80498729
  atomic energy  EATOM  =     12208.65233032
  Solvation  Ediel_sol  =         0.00000000
  ---------------------------------------------------
  free energy    TOTEN  =       -83.23928302 eV

  energy without entropy =      -83.25924205  energy(sigma->0) =      -83.24593603


--------------------------------------------------------------------------------------------------------




--------------------------------------- Iteration      1(  25)  ---------------------------------------


    POTLOK:  cpu time    0.0229: real time    0.0231
    SETDIJ:  cpu time    0.0085: real time    0.0085
     EDDAV:  cpu time    1.1612: real time    1.1639
       DOS:  cpu time    0.0021: real time    0.0021
    --------------------------------------------
      LOOP:  cpu time    1.1947: real time    1.1976

 eigenvalue-minimisations  :  3592
 total energy-change (2. order) : 0.2666093E-07  (-0.4680765E-06)
 number of electron      92.0000114 magnetization       0.0000000
 augmentation part       23.3540646 magnetization       0.0000000

 Free energy of the ion-electron system (eV)
  ---------------------------------------------------
  alpha Z        PSCENC =       906.21131108
  Ewald energy   TEWEN  =     -9706.50133840
  -Hartree energ DENC   =     -2757.23719551
  -exchange      EXHF   =         0.00000000
  -V(xc)+E(xc)   XCENC  =       464.58147921
  PAW double counting   =     10570.19110674   -11186.32242574
  entropy T*S    EENTRO =         0.01997536
  eigenvalues    EBANDS =      -582.83452606
  atomic energy  EATOM  =     12208.65233032
  Solvation  Ediel_sol  =         0.00000000
  ---------------------------------------------------
  free energy    TOTEN  =       -83.23928300 eV

  energy without entropy =      -83.25925835  energy(sigma->0) =      -83.24594145


--------------------------------------------------------------------------------------------------------




 average (electrostatic) potential at core
  the test charge radii are     1.1829  0.7215
  (the norm of the test charge is              1.0000)
       1 -37.3901       2 -37.3901       3 -37.3901       4 -37.3901       5 -71.1672
       6 -71.1672       7 -71.1672       8 -71.1672
 
 
 
 E-fermi :   4.8744     XC(G=0): -11.0306     alpha+bet :-12.2018


 spin component 1

 k-point     1 :       0.0000    0.0000    0.0000
  band No.  band energies     occupation 
      1     -36.2812      1.00000
      2     -36.2087      1.00000
      3     -33.2222      1.00000
      4     -33.1297      1.00000
      5     -15.9403      1.00000
      6     -15.8901      1.00000
      7     -15.4715      1.00000
      8     -14.9599      1.00000
      9     -14.9557      1.00000
     10     -14.7529      1.00000
     11     -13.9348      1.00000
     12     -13.8460      1.00000
     13     -13.8233      1.00000
     14     -13.6330      1.00000
     15     -13.2598      1.00000
     16     -12.6732      1.00000
     17     -12.6587      1.00000
     18     -12.4448      1.00000
     19     -11.8073      1.00000
     20     -11.7278      1.00000
     21      -0.5171      1.00000
     22      -0.5154      1.00000
     23       0.1365      1.00000
     24       0.1372      1.00000
     25       0.8555      1.00000
     26       0.8878      1.00000
     27       1.1233      1.00000
     28       1.1252      1.00000
     29       1.1366      1.00000
     30       1.1401      1.00000
     31       1.1938      1.00000
     32       1.1942      1.00000
     33       4.1316      1.00000
     34       4.4265      1.00000
     35       4.5388      1.00001
     36       4.5405      1.00001
     37       4.6094      1.00058
     38       4.6204      1.00096
     39       4.6465      1.00293
     40       4.6753      1.00823
     41       4.6861      1.01144
     42       4.7470      1.03511
     43       4.7485      1.03529
     44       4.8404      0.77037
     45       4.8427      0.75438
     46       4.8542      0.66750
     47       4.8846      0.41475
     48       5.3463     -0.00000
     49       6.9136     -0.00000
     50       7.1474     -0.00000
     51       7.1513     -0.00000
     52       7.2716     -0.00000
     53       7.6266      0.00000
     54       8.2790      0.00000
     55       8.3375      0.00000
     56       8.8740      0.00000

 k-point     2 :       0.2500   -0.0000    0.0000
  band No.  band energies     occupation 
      1     -36.2526      1.00000
      2     -36.2012      1.00000
      3     -33.1858      1.00000
      4     -33.1199      1.00000
      5     -15.6774      1.00000
      6     -15.6759      1.00000
      7     -15.5009      1.00000
      8     -15.4370      1.00000
      9     -15.3544      1.00000
     10     -14.9881      1.00000
     11     -13.9180      1.00000
     12     -13.9118      1.00000
     13     -13.8409      1.00000
     14     -13.6811      1.00000
     15     -13.1542      1.00000
     16     -12.7274      1.00000
     17     -12.3564      1.00000
     18     -12.3443      1.00000
     19     -12.1764      1.00000
     20     -12.0650      1.00000
     21       0.1165      1.00000
     22       0.2762      1.00000
     23       0.3280      1.00000
     24       0.3444      1.00000
     25       0.5702      1.00000
     26       0.6300      1.00000
     27       0.6356      1.00000
     28       0.6739      1.00000
     29       0.9178      1.00000
     30       0.9739      1.00000
     31       1.0789      1.00000
     32       1.1057      1.00000
     33       4.3903      1.00000
     34       4.4830      1.00000
     35       4.5179      1.00000
     36       4.5557      1.00003
     37       4.6073      1.00052
     38       4.6150      1.00075
     39       4.6180      1.00086
     40       4.6593      1.00475
     41       4.6606      1.00499
     42       4.6737      1.00781
     43       4.6839      1.01072
     44       4.7244      1.02764
     45       4.8093      0.94152
     46       4.8110      0.93473
     47       5.4859     -0.00000
     48       5.4905     -0.00000
     49       5.9232     -0.00000
     50       6.8885     -0.00000
     51       6.9119     -0.00000
     52       7.8264      0.00000
     53       8.4112      0.00000
     54       8.7497      0.00000
     55       8.7648      0.00000
     56       8.7982      0.00000

 k-point     3 :       0.5000   -0.0000    0.0000
[...]
  0.000   0.000   0.001   0.000   0.000   0.001  -0.000  -0.000
  0.000   0.000  -0.000  -0.003  -0.000   0.000  -0.000   0.000
  0.000  -0.000   0.000   0.000   0.000  -0.000  -0.000   0.001
 -0.000  -0.000  -0.004   0.001   0.000  -0.001  -0.001  -0.000
  0.000  -0.000   0.000  -0.000   0.001  -0.000  -0.000  -0.001
 pseudopotential strength for first ion, spin component:           2
-15.736   0.737  -0.000   0.001  -0.000   0.000  -0.000  -0.000
  0.737  -3.414   0.000  -0.000   0.000  -0.000   0.000  -0.000
 -0.000   0.000 -17.543   0.001  -0.000   7.750  -0.002   0.000
  0.001  -0.000   0.001 -17.544   0.000  -0.002   7.752  -0.000
 -0.000   0.000  -0.000   0.000 -17.541   0.000  -0.000   7.747
  0.000  -0.000   7.750  -0.002   0.000   5.175   0.002  -0.000
 -0.000   0.000  -0.002   7.752  -0.000   0.002   5.174   0.000
 -0.000  -0.000   0.000  -0.000   7.747  -0.000   0.000   5.178
 -0.000  -0.000  -0.000   0.000  -0.000   0.000  -0.000   0.000
  0.001   0.000   0.000   0.000   0.000  -0.000   0.000  -0.000
 -0.001  -0.000   0.000   0.000   0.000   0.000   0.000  -0.000
  0.000   0.000   0.000   0.000   0.000  -0.000  -0.000  -0.000
  0.000   0.000   0.000  -0.000   0.000   0.000  -0.000  -0.000
  0.000   0.000   0.000  -0.000   0.000   0.000   0.000  -0.000
 -0.002  -0.000  -0.000  -0.000  -0.000   0.000  -0.000   0.000
  0.001   0.000  -0.000  -0.001  -0.000  -0.000  -0.000   0.000
 -0.000  -0.000  -0.000  -0.000  -0.000   0.000   0.000   0.000
 -0.001  -0.001  -0.001   0.000  -0.000  -0.000   0.000   0.000
 -0.001   0.000   0.002  -0.022  -0.000  -0.001   0.012   0.000
 -0.000   0.000   0.000   0.000  -0.026  -0.000   0.000   0.015
 -0.001   0.000   0.011   0.001   0.000  -0.006  -0.001  -0.000
 -0.001   0.000   0.000  -0.021  -0.000  -0.000   0.012   0.000
 -0.000   0.000   0.000   0.000   0.010  -0.000  -0.000  -0.005
  0.001  -0.000  -0.027   0.002   0.000   0.015  -0.002  -0.000
 -0.000   0.000  -0.000  -0.000   0.002  -0.000   0.000  -0.002
 -0.001   0.000   0.002  -0.021  -0.000  -0.001   0.012   0.000
 -0.000   0.000   0.000   0.000  -0.025  -0.000   0.000   0.014
 -0.001   0.000   0.010   0.001   0.000  -0.005  -0.001  -0.000
 -0.001   0.000   0.000  -0.020  -0.000  -0.000   0.011   0.000
 -0.000   0.000   0.000   0.000   0.010  -0.000  -0.000  -0.005
  0.001  -0.000  -0.026   0.002   0.000   0.015  -0.002  -0.000
 -0.000   0.000  -0.000  -0.000   0.002  -0.000   0.000  -0.002
 total augmentation occupancy for first ion, spin component:           1
  1.993  -0.036   0.000  -0.000  -0.000   0.000  -0.000  -0.000  -0.000   0.000   0.000  -0.000  -0.000  -0.000   0.000  -0.000
 -0.036   0.601   0.000  -0.000  -0.000  -0.000   0.000   0.000  -0.000  -0.001  -0.001  -0.000   0.001   0.000  -0.000  -0.000
  0.000   0.000   2.013   0.000  -0.000  -0.019   0.000  -0.000   0.000  -0.000  -0.000  -0.000  -0.000   0.000   0.000  -0.000
 -0.000  -0.000   0.000   2.013   0.000   0.000  -0.019  -0.000   0.000  -0.000  -0.000  -0.000  -0.000   0.000  -0.000   0.000
 -0.000  -0.000  -0.000   0.000   2.013  -0.000  -0.000  -0.019  -0.000  -0.000  -0.000   0.000  -0.000  -0.000  -0.000  -0.000
  0.000  -0.000  -0.019   0.000  -0.000   0.020   0.000   0.000   0.000   0.000   0.001  -0.000   0.000   0.000   0.000   0.000
 -0.000   0.000   0.000  -0.019  -0.000   0.000   0.020   0.000  -0.000   0.000   0.000  -0.000   0.000  -0.000   0.000   0.000
 -0.000   0.000  -0.000  -0.000  -0.019   0.000   0.000   0.020  -0.000  -0.000  -0.000   0.000  -0.000  -0.000  -0.000  -0.000
 -0.000  -0.000   0.000   0.000  -0.000   0.000  -0.000  -0.000   0.228   0.000   0.000  -0.083  -0.000   0.063   0.000   0.000
  0.000  -0.001  -0.000  -0.000  -0.000   0.000   0.000  -0.000   0.000   0.286  -0.001   0.000  -0.082   0.000   0.084  -0.000
  0.000  -0.001  -0.000  -0.000  -0.000   0.001   0.000  -0.000   0.000  -0.001   0.168  -0.000  -0.001   0.000  -0.000   0.041
 -0.000  -0.000  -0.000  -0.000   0.000  -0.000  -0.000   0.000  -0.083   0.000  -0.000   0.287  -0.000  -0.031   0.000  -0.000
 -0.000   0.001  -0.000  -0.000  -0.000   0.000   0.000  -0.000  -0.000  -0.082  -0.001  -0.000   0.228  -0.000  -0.031  -0.000
 -0.000   0.000   0.000   0.000  -0.000   0.000  -0.000  -0.000   0.063   0.000   0.000  -0.031  -0.000   0.018   0.000   0.000
  0.000  -0.000   0.000  -0.000  -0.000   0.000   0.000  -0.000   0.000   0.084  -0.000   0.000  -0.031   0.000   0.026  -0.000
 -0.000  -0.000  -0.000   0.000  -0.000   0.000   0.000  -0.000   0.000  -0.000   0.041  -0.000  -0.000   0.000  -0.000   0.010
 -0.000   0.000  -0.000  -0.000   0.000  -0.000  -0.000   0.000  -0.031   0.000  -0.000   0.084  -0.000  -0.011   0.000  -0.000
  0.000   0.000   0.000  -0.000  -0.000   0.000   0.000  -0.000  -0.000  -0.031  -0.000  -0.000   0.063  -0.000  -0.011  -0.000
 -0.000  -0.000   0.002  -0.120   0.000  -0.001   0.082   0.000   0.000   0.006   0.003   0.000   0.008  -0.000   0.001   0.001
  0.000   0.000   0.000   0.000  -0.147  -0.000  -0.000   0.101   0.001  -0.000  -0.000  -0.002  -0.000   0.000  -0.000  -0.000
  0.000  -0.001   0.065   0.001  -0.000  -0.045   0.000  -0.000  -0.000   0.001  -0.003  -0.000   0.001  -0.000   0.000  -0.001
 -0.000  -0.000   0.000  -0.108  -0.000  -0.001   0.074   0.000   0.000   0.001  -0.007  -0.000   0.002  -0.000   0.000  -0.001
  0.000   0.000  -0.000   0.000   0.065  -0.000  -0.000  -0.045  -0.001   0.000  -0.000  -0.000  -0.000  -0.000   0.000  -0.000
  0.000  -0.000  -0.147   0.002   0.000   0.100  -0.001   0.000  -0.000  -0.001   0.006  -0.000  -0.001  -0.000  -0.000   0.001
  0.000   0.000  -0.000  -0.000   0.001   0.000   0.000  -0.000  -0.001   0.000   0.000   0.000   0.000  -0.000   0.000   0.000
  0.000   0.000  -0.001   0.122  -0.000   0.000  -0.076  -0.000  -0.000  -0.002  -0.000  -0.000  -0.003   0.000  -0.000  -0.000
 -0.000  -0.000  -0.000  -0.000   0.149   0.000   0.000  -0.092   0.000  -0.000   0.000   0.001   0.000   0.000  -0.000   0.000
  0.000   0.001  -0.066  -0.001   0.000   0.041   0.000   0.000   0.000  -0.000   0.000   0.000  -0.001   0.000  -0.000   0.000
  0.000   0.000   0.000   0.110   0.000   0.000  -0.068  -0.000  -0.000  -0.000   0.004  -0.000  -0.000  -0.000  -0.000   0.001
 -0.000  -0.000   0.000  -0.000  -0.066   0.000   0.000   0.041   0.002  -0.000   0.000   0.001   0.000   0.000  -0.000   0.000
 -0.000  -0.000   0.150  -0.001  -0.000  -0.093   0.001  -0.000   0.000   0.001  -0.001   0.000   0.002   0.000   0.000  -0.000
 -0.000  -0.000   0.000   0.000  -0.001  -0.000  -0.000   0.000   0.002  -0.000  -0.000   0.001  -0.000   0.000  -0.000  -0.000
 total augmentation occupancy for first ion, spin component:           2
 -0.042  -0.160   0.000  -0.000  -0.000  -0.000   0.000   0.000  -0.000   0.000   0.000  -0.000  -0.000  -0.000  -0.000   0.000
 -0.160   0.129   0.001  -0.001  -0.000  -0.001   0.001   0.000  -0.000   0.001  -0.003  -0.000   0.004  -0.000   0.000  -0.001
  0.000   0.001  -0.008  -0.000  -0.000  -0.044   0.000   0.000  -0.000  -0.001  -0.002  -0.000  -0.001  -0.000  -0.000  -0.000
 -0.000  -0.001  -0.000  -0.008  -0.000   0.000  -0.044  -0.000   0.000  -0.000  -0.002   0.000  -0.000  -0.000  -0.000  -0.000
 -0.000  -0.000  -0.000  -0.000  -0.007   0.000  -0.000  -0.044   0.000  -0.000  -0.000  -0.000  -0.000   0.000  -0.000  -0.000
 -0.000  -0.001  -0.044   0.000   0.000   0.003   0.000  -0.000   0.000   0.001   0.002   0.000   0.001   0.000   0.000   0.000
  0.000   0.001   0.000  -0.044  -0.000   0.000   0.003   0.000  -0.000   0.000   0.002  -0.000   0.000  -0.000   0.000   0.000
  0.000   0.000   0.000  -0.000  -0.044  -0.000   0.000   0.003  -0.000  -0.000  -0.000   0.000  -0.000  -0.000  -0.000  -0.000
 -0.000  -0.000  -0.000   0.000   0.000   0.000  -0.000  -0.000   0.044  -0.000   0.000  -0.002  -0.000   0.011   0.000   0.000
  0.000   0.001  -0.001  -0.000  -0.000   0.001   0.000  -0.000  -0.000   0.039   0.001  -0.000  -0.006   0.000   0.011   0.000
  0.000  -0.003  -0.002  -0.002  -0.000   0.002   0.002  -0.000   0.000   0.001   0.033   0.000  -0.001   0.000   0.000   0.008
 -0.000  -0.000  -0.000   0.000  -0.000   0.000  -0.000   0.000  -0.002  -0.000   0.000   0.045  -0.000  -0.002  -0.000  -0.000
 -0.000   0.004  -0.001  -0.000  -0.000   0.001   0.000  -0.000  -0.000  -0.006  -0.001  -0.000   0.038  -0.000  -0.003  -0.000
 -0.000  -0.000  -0.000  -0.000   0.000   0.000  -0.000  -0.000   0.011   0.000   0.000  -0.002  -0.000   0.003   0.000   0.000
 -0.000   0.000  -0.000  -0.000  -0.000   0.000   0.000  -0.000   0.000   0.011   0.000  -0.000  -0.003   0.000   0.003   0.000
  0.000  -0.001  -0.000  -0.000  -0.000   0.000   0.000  -0.000   0.000   0.000   0.008  -0.000  -0.000   0.000   0.000   0.002
 -0.000  -0.000   0.000   0.000  -0.000   0.000  -0.000   0.000  -0.002  -0.000  -0.000   0.012  -0.000  -0.001   0.000  -0.000
 -0.000   0.001  -0.000  -0.000  -0.000   0.000   0.000  -0.000  -0.000  -0.003  -0.000  -0.000   0.010  -0.000  -0.001  -0.000
  0.000  -0.003   0.001  -0.012   0.000  -0.002   0.024  -0.000   0.000   0.007   0.001  -0.000   0.011  -0.000   0.001   0.000
 -0.000   0.000   0.000   0.000  -0.015  -0.000  -0.000   0.029  -0.003  -0.000  -0.000  -0.006  -0.000  -0.000  -0.000  -0.000
  0.000  -0.008   0.006  -0.001  -0.000  -0.012  -0.000   0.000  -0.000   0.003   0.002   0.000   0.005  -0.000   0.000   0.000
  0.000  -0.003   0.002  -0.011  -0.000  -0.001   0.023   0.000   0.000  -0.003  -0.022  -0.000  -0.003   0.000  -0.000  -0.004
 -0.000   0.000  -0.000   0.000   0.006  -0.000  -0.000  -0.012  -0.010   0.000   0.000  -0.009  -0.000  -0.002   0.000   0.000
 -0.000  -0.000  -0.014   0.002   0.000   0.029  -0.003  -0.000   0.000  -0.007  -0.003  -0.000  -0.010   0.000  -0.001  -0.000
 -0.000   0.000  -0.000   0.000   0.001   0.000   0.000  -0.001  -0.010   0.000  -0.000  -0.003  -0.000  -0.002   0.000   0.000
 -0.000   0.004  -0.001  -0.002  -0.000   0.002  -0.011   0.000  -0.000  -0.003   0.002   0.000  -0.006   0.000  -0.001   0.000
  0.000  -0.000  -0.000  -0.000  -0.002   0.000   0.000  -0.012   0.005  -0.000   0.000   0.007   0.000   0.001  -0.000   0.000
 -0.000   0.009   0.002   0.001   0.000   0.004   0.001  -0.000  -0.000  -0.002  -0.005  -0.000  -0.005  -0.000  -0.000  -0.001
 -0.000   0.004  -0.001  -0.002   0.000   0.001  -0.010  -0.000  -0.000   0.005   0.022   0.000   0.006  -0.000   0.001   0.004
  0.000  -0.000   0.000  -0.000   0.002   0.000   0.000   0.005   0.013  -0.000  -0.000   0.011   0.000   0.002  -0.000  -0.000
  0.000  -0.000  -0.004  -0.001  -0.000  -0.013   0.002   0.000  -0.000   0.008   0.010   0.000   0.013  -0.000   0.001   0.001
  0.000  -0.000   0.000  -0.000  -0.001  -0.000  -0.000   0.001   0.013  -0.000   0.000   0.005   0.000   0.002  -0.000   0.000


------------------------ aborting loop because EDIFF is reached ----------------------------------------


 


 total charge     
 
# of ion       s       p       d       f       tot
--------------------------------------------------
    1        2.083   5.889   0.609   6.727  15.307
    2        2.083   5.889   0.609   6.727  15.307
    3        2.083   5.889   0.609   6.727  15.307
    4        2.083   5.889   0.609   6.727  15.307
    5        1.557   3.409   0.000   0.000   4.966
    6        1.557   3.409   0.000   0.000   4.966
    7        1.557   3.409   0.000   0.000   4.966
    8        1.557   3.409   0.000   0.000   4.966
--------------------------------------------------
tot         14.560  37.189   2.436  26.908  81.092

 


 magnetization (x)
 
# of ion       s       p       d       f       tot
--------------------------------------------------
    1       -0.006  -0.010   0.105   6.622   6.710
    2       -0.006  -0.010   0.105   6.622   6.710
    3        0.006   0.010  -0.105  -6.622  -6.710
    4        0.006   0.010  -0.105  -6.622  -6.710
    5       -0.002  -0.031   0.000   0.000  -0.033
    6       -0.002  -0.031   0.000   0.000  -0.033
    7        0.002   0.031   0.000   0.000   0.033
    8        0.002   0.031   0.000   0.000   0.033
--------------------------------------------------
tot         -0.000   0.000  -0.000   0.000  -0.000

 
    CHARGE:  cpu time    0.0722: real time    0.0724
    FORLOC:  cpu time    0.0014: real time    0.0014
    FORNL :  cpu time    0.7348: real time    0.7365
    STRESS:  cpu time    0.7031: real time    0.7047
    FORCOR:  cpu time    0.0255: real time    0.0255
    FORHAR:  cpu time    0.0035: real time    0.0035
    MIXING:  cpu time    0.0028: real time    0.0028
    OFIELD:  cpu time    0.0000: real time    0.0000

  FORCE on cell =-STRESS in cart. coord.  units (eV):
  Direction    XX          YY          ZZ          XY          YZ          ZX
  --------------------------------------------------------------------------------------
  Alpha Z   906.21131   906.21131   906.21131
  Ewald   -3235.50495 -3235.50223 -3235.50576     0.00702     0.00503    -0.00490
  Hartree   919.40707   918.90985   918.88530     0.00463     0.03495     0.00119
  E(xc)    -488.41052  -488.43194  -488.43428     0.00000     0.00331     0.00004
  Local     844.71524   845.66294   845.79342    -0.01111    -0.18509     0.00034
  n-local  -452.79163  -452.88681  -452.84274     0.00027    -0.06238     0.00072
  augment   193.13386   192.91231   192.84521    -0.00023     0.09497     0.00065
  Kinetic  1312.87093  1312.85331  1312.91261    -0.00048    -0.08388    -0.00039
  Fock        0.00000     0.00000     0.00000     0.00000     0.00000     0.00000
  -------------------------------------------------------------------------------------
  Total      -0.36868    -0.27134    -0.13484    -0.00103    -0.19304    -0.00073
  in kB      -4.50387    -3.31477    -1.64721    -0.01254    -2.35823    -0.00887
  external pressure =       -3.16 kB  Pullay stress =        0.00 kB


 VOLUME and BASIS-vectors are now :
 -----------------------------------------------------------------------------
  energy-cutoff  :      500.00
  volume of cell :      131.15
      direct lattice vectors                 reciprocal lattice vectors
     3.592645600  0.000000000  0.000000000     0.278346409 -0.000005520 -0.000004710
     0.000131900  4.148395800  2.933334000     0.000000000  0.160705608  0.113635041
     0.000017000 -4.148324800  5.866668000     0.000000000 -0.080352804  0.113636986

  length of vectors
     3.592645600  5.080712163  7.185150803     0.278346409  0.196822801  0.139175924


 FORCES acting on ions
    electron-ion (+dipol)            ewald-force                    non-local-force                 convergence-correction
 -----------------------------------------------------------------------------------------------
   -.249E-05 -.117E-01 0.166E-01   0.283E-04 -.187E-04 0.182E-04   0.121E-06 -.294E-01 0.416E-01   -.710E-08 -.125E-02 0.177E-02
   -.335E-05 0.117E-01 -.166E-01   0.283E-04 -.187E-04 0.182E-04   -.121E-06 0.294E-01 -.416E-01   -.138E-07 0.125E-02 -.177E-02
   -.249E-05 -.117E-01 0.166E-01   0.283E-04 -.187E-04 0.182E-04   0.121E-06 -.294E-01 0.416E-01   -.710E-08 -.125E-02 0.177E-02
   -.335E-05 0.117E-01 -.166E-01   0.283E-04 -.187E-04 0.182E-04   -.121E-06 0.294E-01 -.416E-01   -.138E-07 0.125E-02 -.177E-02
   -.169E-03 0.481E-02 -.676E-02   -.283E-04 0.187E-04 -.182E-04   0.762E-07 -.186E-01 0.263E-01   0.599E-08 -.189E-03 0.267E-03
   -.168E-03 -.459E-02 0.654E-02   -.283E-04 0.187E-04 -.182E-04   -.762E-07 0.186E-01 -.263E-01   0.762E-08 0.189E-03 -.267E-03
   -.169E-03 0.481E-02 -.676E-02   -.283E-04 0.187E-04 -.182E-04   0.762E-07 -.186E-01 0.263E-01   0.599E-08 -.189E-03 0.267E-03
   -.168E-03 -.459E-02 0.654E-02   -.283E-04 0.187E-04 -.182E-04   -.762E-07 0.186E-01 -.263E-01   0.762E-08 0.189E-03 -.267E-03
 -----------------------------------------------------------------------------------------------
   -.686E-03 0.452E-03 -.440E-03   0.932E-14 0.204E-13 -.240E-13   -.754E-21 -.173E-16 0.347E-16   -.146E-07 0.966E-08 -.930E-08
 
 
 POSITION                                       TOTAL-FORCE (eV/Angst)
 -----------------------------------------------------------------------------------
      0.00000      0.00000      0.00000         0.000000     -0.042421      0.059993
      1.79639      1.03712      2.93333        -0.000000      0.042421     -0.059993
      0.00001     -2.07416      2.93333         0.000000     -0.042421      0.059993
      1.79640     -1.03705      5.86667        -0.000000      0.042421     -0.059993
      0.00007      2.07420      1.46667         0.000000     -0.014083      0.019917
      1.79646      3.11131      4.40000        -0.000000      0.014083     -0.019917
      0.00007      0.00004      4.40000         0.000000     -0.014083      0.019917
      1.79647      1.03715      7.33334        -0.000000      0.014083     -0.019917
 -----------------------------------------------------------------------------------
    total drift:                               -0.000686      0.000452     -0.000440


--------------------------------------------------------------------------------------------------------



  FREE ENERGIE OF THE ION-ELECTRON SYSTEM (eV)
  ---------------------------------------------------
  free  energy   TOTEN  =       -83.23928300 eV

  energy  without entropy=      -83.25925835  energy(sigma->0) =      -83.24594145
 


--------------------------------------------------------------------------------------------------------


    POTLOK:  cpu time    0.0331: real time    0.0331


--------------------------------------------------------------------------------------------------------


     LOOP+:  cpu time   47.6223: real time   47.7637
    4ORBIT:  cpu time    0.0000: real time    0.0000
 


 total charge     
 
# of ion       s       p       d       f       tot
--------------------------------------------------
    1        2.083   5.889   0.609   6.727  15.307
    2        2.083   5.889   0.609   6.727  15.307
    3        2.083   5.889   0.609   6.727  15.307
    4        2.083   5.889   0.609   6.727  15.307
    5        1.557   3.409   0.000   0.000   4.966
    6        1.557   3.409   0.000   0.000   4.966
    7        1.557   3.409   0.000   0.000   4.966
    8        1.557   3.409   0.000   0.000   4.966
--------------------------------------------------
tot         14.560  37.189   2.436  26.908  81.092

 


 magnetization (x)
 
# of ion       s       p       d       f       tot
--------------------------------------------------
    1       -0.006  -0.010   0.105   6.622   6.710
    2       -0.006  -0.010   0.105   6.622   6.710
    3        0.006   0.010  -0.105  -6.622  -6.710
    4        0.006   0.010  -0.105  -6.622  -6.710
    5       -0.002  -0.031   0.000   0.000  -0.033
    6       -0.002  -0.031   0.000   0.000  -0.033
    7        0.002   0.031   0.000   0.000   0.033
    8        0.002   0.031   0.000   0.000   0.033
--------------------------------------------------
tot         -0.000   0.000  -0.000   0.000  -0.000

 

 total amount of memory used by VASP MPI-rank0    50826. kBytes
=======================================================================

   base      :      30000. kBytes
   nonl-proj :       6216. kBytes
   fftplans  :        945. kBytes
   grid      :       2280. kBytes
   one-center:        196. kBytes
   wavefun   :      11189. kBytes
 
  
  
 General timing and accounting informations for this job:
 ========================================================
  
                  Total CPU time used (sec):       49.228
                            User time (sec):       48.966
                          System time (sec):        0.262
                         Elapsed time (sec):       49.978
  
                   Maximum memory used (kb):       81820.
                   Average memory used (kb):           0.
  
                          Minor page faults:        23349
                          Major page faults:            0
                 Voluntary context switches:         1464
