=========================================
SLURM_JOB_ID = 63457036
SLURM_JOB_NODELIST = lnode14
SLURM_GPUS = 
SLURM_CPUS_ON_NODE = 8
SLURM_JOB_PARTITION = lenovo
SLURM_TASK_PID = 1206384
CUDA_VISIBLE_DEVICES = 
==========================================
 running on    8 total cores
 distrk:  each k-point on    8 cores,    1 groups
 distr:  one band on    4 cores,    2 groups
 using from now: INCAR     
 vasp.5.4.4.18Apr17-6-g9f103f2a35 (build Apr 28 2018 00:24:27) complex          
  
 POSCAR found type information on POSCAR  Eu S 
 POSCAR found :  2 types and       2 ions
 scaLAPACK will be used

 ----------------------------------------------------------------------------- 
|                                                                             |
|  ADVICE TO THIS USER RUNNING 'VASP/VAMP'   (HEAR YOUR MASTER'S VOICE ...):  |
|                                                                             |
|      You have a (more or less) 'small supercell' and for smaller cells      |
|      it is recommended  to use the reciprocal-space projection scheme!      |
|      The real space optimization is not  efficient for small cells and it   |
|      is also less accurate ...                                              |
|      Therefore set LREAL=.FALSE. in the  INCAR file                         |
|                                                                             |
 ----------------------------------------------------------------------------- 

 LDA part: xc-table for Pade appr. of Perdew
 POSCAR, INCAR and KPOINTS ok, starting setup
 FFT: planning ...
 WAVECAR not read
 entering main loop
       N       E                     dE             d eps       ncg     rms          rms(c)
DAV:   1     0.161133626009E+03    0.16113E+03   -0.10592E+04  1868   0.258E+03
DAV:   2     0.330609450947E+01   -0.15783E+03   -0.13924E+03  1812   0.277E+02
DAV:   3    -0.149881784892E+02   -0.18294E+02   -0.17702E+02  1876   0.103E+02
DAV:   4    -0.159604250171E+02   -0.97225E+00   -0.95516E+00  2452   0.217E+01
DAV:   5    -0.160337172541E+02   -0.73292E-01   -0.72779E-01  2480   0.472E+00    0.132E+01
DAV:   6    -0.202091482677E+02   -0.41754E+01   -0.46475E+01  2324   0.681E+01    0.177E+01
DAV:   7    -0.190866547689E+02    0.11225E+01   -0.28827E+00  1944   0.389E+01    0.657E+00
DAV:   8    -0.187624928521E+02    0.32416E+00   -0.14303E+00  2716   0.142E+01    0.254E+00
DAV:   9    -0.188334960827E+02   -0.71003E-01   -0.13602E+00  2192   0.985E+00    0.332E+00
DAV:  10    -0.187500495690E+02    0.83447E-01   -0.80922E-01  2100   0.742E+00    0.105E+00
DAV:  11    -0.187620748905E+02   -0.12025E-01   -0.18309E-02  2516   0.961E-01    0.542E-01
DAV:  12    -0.187605921855E+02    0.14827E-02   -0.52960E-03  2508   0.698E-01    0.510E-01
DAV:  13    -0.187588927474E+02    0.16994E-02   -0.45437E-03  2408   0.565E-01    0.267E-01
DAV:  14    -0.187586306772E+02    0.26207E-03   -0.14371E-03  2632   0.311E-01    0.153E-01
DAV:  15    -0.187587055342E+02   -0.74857E-04   -0.19378E-03  2108   0.369E-01    0.996E-03
DAV:  16    -0.187587092862E+02   -0.37521E-05   -0.89572E-05  2468   0.469E-02    0.105E-02
DAV:  17    -0.187587089725E+02    0.31369E-06   -0.30245E-06  2444   0.845E-03    0.964E-03
DAV:  18    -0.187587156675E+02   -0.66950E-05   -0.91870E-07  2428   0.753E-03    0.111E-02
DAV:  19    -0.187587013202E+02    0.14347E-04   -0.23873E-06  2072   0.132E-02    0.473E-03
DAV:  20    -0.187586953027E+02    0.60175E-05   -0.64731E-07  1800   0.653E-03    0.218E-03
DAV:  21    -0.187586942811E+02    0.10217E-05   -0.60651E-08  1036   0.211E-03    0.160E-03
DAV:  22    -0.187586957681E+02   -0.14871E-05   -0.48124E-08   968   0.249E-03    0.810E-04
DAV:  23    -0.187586966273E+02   -0.85918E-06   -0.23045E-08   932   0.134E-03    0.291E-04
DAV:  24    -0.187586971289E+02   -0.50159E-06   -0.95026E-09   920   0.810E-04    0.768E-05
DAV:  25    -0.187586972035E+02   -0.74594E-07   -0.27603E-09   920   0.543E-04
   1 F= -.18758697E+02 E0= -.18758697E+02  d E =0.000000E+00  mag=     6.9956
