=========================================
SLURM_JOB_ID = 63455639
SLURM_JOB_NODELIST = lnode51
SLURM_GPUS = 
SLURM_CPUS_ON_NODE = 16
SLURM_JOB_PARTITION = lenovo
SLURM_TASK_PID = 949468
CUDA_VISIBLE_DEVICES = 
==========================================
 running on   16 total cores
 distrk:  each k-point on   16 cores,    1 groups
 distr:  one band on    4 cores,    4 groups
 using from now: INCAR     
 vasp.5.4.4.18Apr17-6-g9f103f2a35 (build Apr 28 2018 00:24:27) complex          
  
 POSCAR found type information on POSCAR  Co
 POSCAR found :  1 types and       4 ions
 scaLAPACK will be used

 ----------------------------------------------------------------------------- 
|                                                                             |
|  ADVICE TO THIS USER RUNNING 'VASP/VAMP'   (HEAR YOUR MASTER'S VOICE ...):  |
|                                                                             |
|      You have a (more or less) 'small supercell' and for smaller cells      |
|      it is recommended  to use the reciprocal-space projection scheme!      |
|      The real space optimization is not  efficient for small cells and it   |
|      is also less accurate ...                                              |
|      Therefore set LREAL=.FALSE. in the  INCAR file                         |
|                                                                             |
 ----------------------------------------------------------------------------- 

 LDA part: xc-table for Pade appr. of Perdew
 POSCAR, INCAR and KPOINTS ok, starting setup
 FFT: planning ...
 WAVECAR not read
 entering main loop
       N       E                     dE             d eps       ncg     rms          rms(c)
DAV:   1     0.257322007718E+03    0.25732E+03   -0.17247E+04 25944   0.215E+03
DAV:   2     0.225860475905E+01   -0.25506E+03   -0.24773E+03 26312   0.387E+02
DAV:   3    -0.149220600033E+02   -0.17181E+02   -0.16856E+02 29112   0.138E+02
DAV:   4    -0.151983274165E+02   -0.27627E+00   -0.27527E+00 27048   0.173E+01
DAV:   5    -0.152094286264E+02   -0.11101E-01   -0.11106E-01 38224   0.290E+00    0.326E+01
DAV:   6    -0.164286349408E+02   -0.12192E+01   -0.57178E+01 29016   0.101E+02    0.111E+01
DAV:   7    -0.159883062325E+02    0.44033E+00   -0.79705E+00 28424   0.429E+01    0.426E+00
DAV:   8    -0.161908359626E+02   -0.20253E+00   -0.80881E-01 29960   0.842E+00    0.253E+00
DAV:   9    -0.163723039794E+02   -0.18147E+00   -0.53792E-01 46560   0.542E+00    0.184E+00
DAV:  10    -0.165713906042E+02   -0.19909E+00   -0.47981E-01 47592   0.745E+00    0.142E+00
DAV:  11    -0.166080531289E+02   -0.36663E-01   -0.68124E-02 43376   0.572E+00    0.123E+00
DAV:  12    -0.167393890446E+02   -0.13134E+00   -0.22286E-01 46368   0.627E+00    0.756E-01
DAV:  13    -0.167672527708E+02   -0.27864E-01   -0.89984E-02 39088   0.336E+00    0.421E-01
DAV:  14    -0.167688959918E+02   -0.16432E-02   -0.72257E-03 29544   0.144E+00    0.208E-01
DAV:  15    -0.167686804240E+02    0.21557E-03   -0.21317E-03 30952   0.699E-01    0.105E-01
DAV:  16    -0.167690960994E+02   -0.41568E-03   -0.10388E-03 34424   0.398E-01    0.486E-02
DAV:  17    -0.167692086738E+02   -0.11257E-03   -0.25190E-04 37040   0.212E-01    0.260E-02
DAV:  18    -0.167692263245E+02   -0.17651E-04   -0.11242E-04 43872   0.132E-01    0.124E-02
DAV:  19    -0.167692223976E+02    0.39269E-05   -0.35064E-05 38112   0.632E-02    0.475E-03
DAV:  20    -0.167692167738E+02    0.56238E-05   -0.64120E-06 35016   0.257E-02    0.206E-03
DAV:  21    -0.167692172475E+02   -0.47371E-06   -0.60466E-07 25816   0.127E-02    0.909E-04
DAV:  22    -0.167692177105E+02   -0.46302E-06   -0.44910E-08 13296   0.269E-03    0.448E-04
DAV:  23    -0.167692179429E+02   -0.23232E-06   -0.27970E-08 13144   0.171E-03    0.178E-04
DAV:  24    -0.167692177536E+02    0.18921E-06   -0.43927E-09 13136   0.109E-03    0.794E-05
DAV:  25    -0.167692177927E+02   -0.39008E-07   -0.18292E-09 13136   0.513E-04
   1 F= -.16769218E+02 E0= -.16769218E+02  d E =0.000000E+00  mag=     0.0000
