=========================================
SLURM_JOB_ID = 63455422
SLURM_JOB_NODELIST = lnode22
SLURM_GPUS = 
SLURM_CPUS_ON_NODE = 8
SLURM_JOB_PARTITION = lenovo
SLURM_TASK_PID = 1789776
CUDA_VISIBLE_DEVICES = 
==========================================
 running on    8 total cores
 distrk:  each k-point on    8 cores,    1 groups
 distr:  one band on    4 cores,    2 groups
 using from now: INCAR     
 vasp.5.4.4.18Apr17-6-g9f103f2a35 (build Apr 28 2018 00:24:27) complex          
  
 POSCAR found type information on POSCAR  Co
 POSCAR found :  1 types and       2 ions
 scaLAPACK will be used

 ----------------------------------------------------------------------------- 
|                                                                             |
|  ADVICE TO THIS USER RUNNING 'VASP/VAMP'   (HEAR YOUR MASTER'S VOICE ...):  |
|                                                                             |
|      You have a (more or less) 'small supercell' and for smaller cells      |
|      it is recommended  to use the reciprocal-space projection scheme!      |
|      The real space optimization is not  efficient for small cells and it   |
|      is also less accurate ...                                              |
|      Therefore set LREAL=.FALSE. in the  INCAR file                         |
|                                                                             |
 ----------------------------------------------------------------------------- 

 LDA part: xc-table for Pade appr. of Perdew
 POSCAR, INCAR and KPOINTS ok, starting setup
 FFT: planning ...
 WAVECAR not read
 entering main loop
       N       E                     dE             d eps       ncg     rms          rms(c)
DAV:   1     0.964555008878E+02    0.96456E+02   -0.10162E+04  4296   0.213E+03
DAV:   2    -0.135340369826E+02   -0.10999E+03   -0.10304E+03  4262   0.301E+02
DAV:   3    -0.161936052427E+02   -0.26596E+01   -0.25644E+01  4778   0.677E+01
DAV:   4    -0.162287600326E+02   -0.35155E-01   -0.35146E-01  5990   0.611E+00
DAV:   5    -0.162291896070E+02   -0.42957E-03   -0.42993E-03  5016   0.620E-01    0.145E+01
DAV:   6    -0.142639416098E+02    0.19652E+01   -0.16544E+01  4490   0.845E+01    0.795E+00
DAV:   7    -0.139296972606E+02    0.33424E+00   -0.23001E+00  4652   0.301E+01    0.482E+00
DAV:   8    -0.140793340773E+02   -0.14964E+00   -0.15183E-01  5754   0.642E+00    0.217E+00
DAV:   9    -0.140364041859E+02    0.42930E-01   -0.34394E-02  6182   0.282E+00    0.237E+00
DAV:  10    -0.140260948832E+02    0.10309E-01   -0.96729E-04  6068   0.456E-01    0.266E+00
DAV:  11    -0.140709013222E+02   -0.44806E-01   -0.32593E-02  5278   0.305E+00    0.424E-01
DAV:  12    -0.140713469868E+02   -0.44566E-03   -0.98304E-04  6108   0.387E-01    0.154E-01
DAV:  13    -0.140711446252E+02    0.20236E-03   -0.16448E-04  5662   0.211E-01    0.870E-03
DAV:  14    -0.140711320433E+02    0.12582E-04   -0.62919E-06  4790   0.286E-02    0.833E-03
DAV:  15    -0.140711382099E+02   -0.61666E-05   -0.31970E-07  4818   0.738E-03    0.446E-03
DAV:  16    -0.140711463138E+02   -0.81039E-05   -0.18692E-07  3060   0.655E-03    0.499E-04
DAV:  17    -0.140711456044E+02    0.70936E-06   -0.10703E-08  2290   0.140E-03    0.361E-04
DAV:  18    -0.140711464929E+02   -0.88845E-06   -0.28330E-09  2218   0.799E-04    0.681E-05
DAV:  19    -0.140711464622E+02    0.30662E-07   -0.78446E-10  2164   0.301E-04
   1 F= -.14071146E+02 E0= -.14071146E+02  d E =0.000000E+00  mag=     3.1560
