unknown system                          
   1.00000000000000     
     2.500784    0.000000    0.000000
     1.250392    2.165742    0.000000
     0.000000    0.000000    8.066662
   Co
     4
Direct
  0.333333  0.333333  0.875000
  0.666667  0.666667  0.625000
  0.333333  0.333333  0.375000
  0.666667  0.666667  0.125000
 
   40   40  120
 0.81618024000E+01 0.81862840124E+01 0.82592686546E+01 0.83794544355E+01 0.85449039879E+01
 0.87532951473E+01 0.90021013350E+01 0.92885926924E+01 0.96095996205E+01 0.99610644703E+01
 0.10337495405E+02 0.10731494146E+02 0.11133532192E+02 0.11532094178E+02 0.11914209651E+02
 0.12266288540E+02 0.12575098589E+02 0.12828702602E+02 0.13017213876E+02 0.13133307619E+02
 0.13172506663E+02 0.13133307619E+02 0.13017213876E+02 0.12828702602E+02 0.12575098589E+02
 0.12266288540E+02 0.11914209651E+02 0.11532094178E+02 0.11133532192E+02 0.10731494146E+02
 0.10337495405E+02 0.99610644703E+01 0.96095996205E+01 0.92885926924E+01 0.90021013350E+01
 0.87532951473E+01 0.85449039879E+01 0.83794544355E+01 0.82592686546E+01 0.81862840124E+01
 0.81862839700E+01 0.82350183187E+01 0.83316198659E+01 0.84745038574E+01 0.86616113410E+01
 0.88906378558E+01 0.91591287938E+01 0.94643512812E+01 0.98029235269E+01 0.10170274232E+02
 0.10560083129E+02 0.10963887692E+02 0.11371014921E+02 0.11768916939E+02 0.12143880665E+02
 0.12481982595E+02 0.12770105505E+02 0.12996842852E+02 0.13153179918E+02 0.13232925971E+02
 0.13232940368E+02 0.13153221421E+02 0.12996906732E+02 0.12770184898E+02 0.12482069749E+02
 0.12143968203E+02 0.11768998861E+02 0.11371087177E+02 0.10963948286E+02 0.10560131833E+02
 0.10170312077E+02 0.98029522322E+01 0.94643727540E+01 0.91591447818E+01 0.88906497621E+01
 0.86616201758E+01 0.84745102792E+01 0.83316242629E+01 0.82350208961E+01 0.81862848205E+01
 0.82592687647E+01 0.83316203641E+01 0.84509674548E+01 0.86157024869E+01 0.88239684882E+01
 0.90738230382E+01 0.93632007036E+01 0.96896131015E+01 0.10049613817E+02 0.10438148632E+02
 0.10847975998E+02 0.11269352235E+02 0.11690122681E+02 0.12096258138E+02 0.12472759131E+02
 0.12804760011E+02 0.13078633164E+02 0.13282927591E+02 0.13409054239E+02 0.13451713758E+02
 0.13409115445E+02 0.13283042908E+02 0.13078789788E+02 0.12804941831E+02 0.12472949520E+02
 0.12096442462E+02 0.11690290032E+02 0.11269496147E+02 0.10848094214E+02 0.10438242201E+02
 0.10049685874E+02 0.96896676776E+01 0.93632417947E+01 0.90738540255E+01 0.88239918983E+01
 0.86157200036E+01 0.84509800744E+01 0.83316286018E+01 0.82592728455E+01 0.82350207112E+01
 0.83794556967E+01 0.84745065526E+01 0.86157054166E+01 0.88017742545E+01 0.90314419848E+01
 0.93034877227E+01 0.96165144463E+01 0.99684322821E+01 0.10355730655E+02 0.10772708806E+02
 0.11210882233E+02 0.11658766653E+02 0.12102159691E+02 0.12524917141E+02 0.12910097380E+02
 0.13241268625E+02 0.13503764436E+02 0.13685727156E+02 0.13778864059E+02 0.13778916219E+02
 0.13685877528E+02 0.13503995902E+02 0.13241556349E+02 0.12910413316E+02 0.12525234615E+02
 0.12102457046E+02 0.11659029324E+02 0.11211103107E+02 0.10772887183E+02 0.10355870375E+02
 0.99685396221E+01 0.96165962904E+01 0.93035502705E+01 0.90314900713E+01 0.88018111861E+01
 0.86157331551E+01 0.84745260698E+01 0.83794673582E+01 0.83316281155E+01 0.83316242294E+01
 0.85449086362E+01 0.86616195427E+01 0.88239788294E+01 0.90314506380E+01 0.92837462858E+01
 0.95806814880E+01 0.99217035887E+01 0.10305117602E+02 0.10727147626E+02 0.11181054256E+02
 0.11656557066E+02 0.12139765725E+02 0.12613710902E+02 0.13059422131E+02 0.13457374844E+02
 0.13789065510E+02 0.14038485677E+02 0.14193332950E+02 0.14245880401E+02 0.14193489788E+02
 0.14038781171E+02 0.13789466862E+02 0.13457840802E+02 0.13059910156E+02 0.12614183627E+02
 0.12140195395E+02 0.11656927368E+02 0.11181359689E+02 0.10727391131E+02 0.10305307387E+02
 0.99218500248E+01 0.95807946689E+01 0.92838345142E+01 0.90315198105E+01 0.88240325112E+01
 0.86616594579E+01 0.85449353186E+01 0.84745250669E+01 0.84509794528E+01 0.84745116547E+01
 0.87533069784E+01 0.88906568467E+01 0.90738477596E+01 0.93035138543E+01 0.95807009231E+01
 0.99064697745E+01 0.10281125051E+02 0.10703156757E+02 0.11168093844E+02 0.11667542675E+02
 0.12188685644E+02 0.12714434138E+02 0.13224285646E+02 0.13695775650E+02 0.14106295751E+02
 0.14435004048E+02 0.14664580487E+02 0.14782649104E+02 0.14782763983E+02 0.14664911648E+02
 0.14435513739E+02 0.14106929235E+02 0.13696471179E+02 0.13224984610E+02 0.12715089125E+02
 0.12189264991E+02 0.11668031214E+02 0.11168490531E+02 0.10703470446E+02 0.10281369776E+02
 0.99066606326E+01 0.95808511748E+01 0.93036334069E+01 0.90739428451E+01 0.88907305336E+01
 0.87533601218E+01 0.86616577435E+01 0.86157314400E+01 0.86157205898E+01 0.86616254554E+01
 0.90021259327E+01 0.91591661088E+01 0.93632496086E+01 0.96165704117E+01 0.99217575708E+01
 0.10281162453E+02 0.10695752058E+02 0.11163762628E+02 0.11679379334E+02 0.12231762727E+02
 0.12804710316E+02 0.13377121643E+02 0.13924264073E+02 0.14419672344E+02 0.14837407437E+02
 0.15154367971E+02 0.15352375779E+02 0.15419817258E+02 0.15352688800E+02 0.15154957610E+02
 0.14838208067E+02 0.14420601526E+02 0.13925236971E+02 0.13378063991E+02 0.12805567290E+02
 0.12232502526E+02 0.11679991801E+02 0.11164254363E+02 0.10696139938E+02 0.10281467307E+02
 0.99219992242E+01 0.96167646170E+01 0.93634068388E+01 0.91592918114E+01 0.90022217058E+01
 0.88907280411E+01 0.88240293341E+01 0.88018100972E+01 0.88239962361E+01 0.88906628825E+01
 0.92886376002E+01 0.94644169027E+01 0.96896990311E+01 0.99685341486E+01 0.10305225697E+02
 0.10703254784E+02 0.11163826966E+02 0.11684268721E+02 0.12256603159E+02 0.12866659978E+02
 0.13494001598E+02 0.14112792603E+02 0.14693553701E+02 0.15205581884E+02 0.15619720202E+02
 0.15911126748E+02 0.16061706744E+02 0.16061918376E+02 0.15911736707E+02 0.15620658663E+02
 0.15206747731E+02 0.14694833093E+02 0.14114077835E+02 0.13495206003E+02 0.12867726247E+02
 0.12257504558E+02 0.11685004492E+02 0.11164414325E+02 0.10703720041E+02 0.10305596531E+02
 0.99688341841E+01 0.96899450315E+01 0.94646182620E+01 0.92887974947E+01 0.91592887286E+01
 0.90739382271E+01 0.90315165535E+01 0.90314921346E+01 0.90738659925E+01 0.91591712674E+01
 0.96096744717E+01 0.98030299473E+01 0.10049752580E+02 0.10355897924E+02 0.10727333287E+02
 0.11168280042E+02 0.11679539701E+02 0.12256703337E+02 0.12888724748E+02 0.13557225289E+02
 0.14236786614E+02 0.14896310695E+02 0.15501338846E+02 0.16017067217E+02 0.16411692435E+02
 0.16659665221E+02 0.16744420723E+02 0.16660201468E+02 0.16412702259E+02 0.16018437754E+02
 0.15502928581E+02 0.14897974423E+02 0.14238397805E+02 0.13558691269E+02 0.12889992639E+02
 0.12257757418E+02 0.11680392721E+02 0.11168961840E+02 0.10727879746E+02 0.10356342329E+02
 0.10050120295E+02 0.98033363916E+01 0.96099257485E+01 0.94646151467E+01 0.93634014553E+01
 0.93036283151E+01 0.92838338226E+01 0.93035593341E+01 0.93632667475E+01 0.94644198671E+01
 0.99611810389E+01 0.10170436271E+02 0.10438358476E+02 0.10772963418E+02 0.11181343263E+02
 0.11667846704E+02 0.12232052644E+02 0.12866897688E+02 0.13557366657E+02 0.14280104564E+02
 0.15004170409E+02 0.15692969688E+02 0.16307217697E+02 0.16808623121E+02 0.17240443120E+02
 0.17437206127E+02 0.17437551244E+02 0.17241436089E+02 0.16810123413E+02 0.16309080639E+02
 0.15695013189E+02 0.15006222872E+02 0.14282028787E+02 0.13559072974E+02 0.12868345573E+02
 0.12233242970E+02 0.11668808558E+02 0.11182119422E+02 0.10773597751E+02 0.10438887109E+02
 0.10170883053E+02 0.99615568750E+01 0.98033342343E+01 0.96899404133E+01 0.96167592459E+01
 0.95808487319E+01 0.95808006657E+01 0.96166177627E+01 0.96897126876E+01 0.98030291563E+01
 0.10337667466E+02 0.10560317344E+02 0.10848276422E+02 0.11211246666E+02 0.11656974807E+02
 0.12189135681E+02 0.12805160642E+02 0.13494410354E+02 0.14237105574E+02 0.15004350811E+02
 0.15759437951E+02 0.16460435344E+02 0.17135945342E+02 0.17633813663E+02 0.17951893016E+02
 0.18061596734E+02 0.17952715382E+02 0.17635357791E+02 0.17138032131E+02 0.16462813455E+02
 0.15761926650E+02 0.15006762234E+02 0.14239303335E+02 0.13496318115E+02 0.12806757681E+02
 0.12190443412E+02 0.11658039302E+02 0.11212121738E+02 0.10849010377E+02 0.10560944836E+02
 0.10338206483E+02 0.10170883237E+02 0.10050118868E+02 0.99688315299E+01 0.99219979977E+01
 0.99066657917E+01 0.99218687207E+01 0.99685808876E+01 0.10049760073E+02 0.10170430085E+02
 0.10731736979E+02 0.10964211209E+02 0.11269762031E+02 0.11659261079E+02 0.12140333426E+02
 0.12715052191E+02 0.13377755033E+02 0.14113395766E+02 0.14896831575E+02 0.15693356146E+02
 0.16460643013E+02 0.17230343910E+02 0.17842473587E+02 0.18285321928E+02 0.18518248309E+02
 0.18518737925E+02 0.18286729671E+02 0.17844629953E+02 0.17233007837E+02 0.16463512174E+02
 0.15696240042E+02 0.14899540295E+02 0.14115806836E+02 0.13379815180E+02 0.12716765901E+02
 0.12141743872E+02 0.11660429201E+02 0.11270748347E+02 0.10965062998E+02 0.10732481726E+02
 0.10560948962E+02 0.10438891978E+02 0.10356346714E+02 0.10305601565E+02 0.10281476703E+02
 0.10281389935E+02 0.10305347321E+02 0.10355941365E+02 0.10438357155E+02 0.10560304307E+02
 0.11133861563E+02 0.11371443628E+02 0.11690657269E+02 0.12102798453E+02 0.12614441304E+02
 0.13225082527E+02 0.13925089385E+02 0.14694358503E+02 0.15502067888E+02 0.16307816273E+02
 0.17136375185E+02 0.17842694250E+02 0.18400976434E+02 0.18759938736E+02 0.18884044653E+02
 0.18761032624E+02 0.18403029003E+02 0.17845465520E+02 0.17139571256E+02 0.16311104648E+02
 0.15505260800E+02 0.14697280116E+02 0.13927643513E+02 0.13227246181E+02 0.12616246255E+02
 0.12104307492E+02 0.11691941182E+02 0.11372563014E+02 0.11134855552E+02 0.10965072559E+02
 0.10849024813E+02 0.10773614257E+02 0.10727897704E+02 0.10703741399E+02 0.10696169556E+02
 0.10703516280E+02 0.10727464146E+02 0.10773000947E+02 0.10848264121E+02 0.10964190381E+02
 0.11532524715E+02 0.11769463121E+02 0.12096926518E+02 0.12525705131E+02 0.13060315449E+02
 0.13696746709E+02 0.14420680353E+02 0.15206575309E+02 0.16017988801E+02 0.16809416984E+02
 0.17634447303E+02 0.18285748903E+02 0.18760146753E+02 0.19010372424E+02 0.19010983660E+02
 0.18761903868E+02 0.18288439632E+02 0.17637770753E+02 0.16812987084E+02 0.16021585542E+02
 0.15209967742E+02 0.14423721936E+02 0.13699376887E+02 0.13062544758E+02 0.12527590719E+02
 0.12098545255E+02 0.11770887969E+02 0.11533807845E+02 0.11372578983E+02 0.11270775007E+02
 0.11212155177E+02 0.11182157451E+02 0.11169004489E+02 0.11164464385E+02 0.11164317838E+02
 0.11168576851E+02 0.11181481586E+02 0.11211276098E+02 0.11269737596E+02 0.11371414925E+02
 0.11914752694E+02 0.12144550405E+02 0.12473561015E+02 0.12911027122E+02 0.13458416038E+02
 0.14107418568E+02 0.14838569150E+02 0.15620868068E+02 0.16412769001E+02 0.17241411546E+02
 0.17952691389E+02 0.18518844150E+02 0.18884425902E+02 0.19011160014E+02 0.18885708604E+02
 0.18521251487E+02 0.17955943261E+02 0.17245165968E+02 0.16416636817E+02 0.15624639992E+02
 0.14842046012E+02 0.14110494769E+02 0.13461071317E+02 0.12913304138E+02 0.12475536475E+02
 0.12146306748E+02 0.11916355313E+02 0.11770910380E+02 0.11691981220E+02 0.11660482765E+02
 0.11658103314E+02 0.11668881490E+02 0.11680475248E+02 0.11685100157E+02 0.11680107520E+02
 0.11668177481E+02 0.11657118054E+02 0.11659281038E+02 0.11690621046E+02 0.11769427590E+02
 0.12266949739E+02 0.12482773435E+02 0.12805683825E+02 0.13242318898E+02 0.13790223783E+02
 0.14436239005E+02 0.15155636380E+02 0.15912376656E+02 0.16660841314E+02 0.17438278178E+02
 0.18062502740E+02 0.18519448227E+02 0.18761536653E+02 0.18762210697E+02 0.18521386718E+02
 0.18065474150E+02 0.17441954769E+02 0.16664806180E+02 0.15916389010E+02 0.15159448852E+02
 0.14439698144E+02 0.13793271180E+02 0.13244973928E+02 0.12808015433E+02 0.12484868795E+02
 0.12268886120E+02 0.12146334401E+02 0.12098597550E+02 0.12104381383E+02 0.12141836544E+02
 0.12190552717E+02 0.12233368055E+02 0.12257899479E+02 0.12257667559E+02 0.12232693702E+02
 0.12189495007E+02 0.12140478081E+02 0.12102808685E+02 0.12096880659E+02 0.12144510325E+02
 0.12575875713E+02 0.12771004954E+02 0.13079655562E+02 0.13504901054E+02 0.14039716698E+02
 0.14665874504E+02 0.15353691068E+02 0.16062994585E+02 0.16745630522E+02 0.17438658833E+02
 0.17953663149E+02 0.18287492485E+02 0.18403598823E+02 0.18288825385E+02 0.17956167739E+02
 0.17442049578E+02 0.16749497109E+02 0.16067073534E+02 0.15357698224E+02 0.14669611770E+02
 0.14043084185E+02 0.13507887781E+02 0.13082314918E+02 0.12773422758E+02 0.12578138159E+02
 0.12484899211E+02 0.12475597243E+02 0.12527681174E+02 0.12616365273E+02 0.12716912135E+02
 0.12806930004E+02 0.12868543729E+02 0.12890217993E+02 0.12867982480E+02 0.12805860873E+02
 0.12715429454E+02 0.12614582765E+02 0.12525706640E+02 0.12473509473E+02 0.12482732184E+02
 0.12829584082E+02 0.12997828242E+02 0.13284014854E+02 0.13686906046E+02 0.14194583644E+02
 0.14783942035E+02 0.15421114567E+02 0.16063177118E+02 0.16661378186E+02 0.17242511635E+02
 0.17636283295E+02 0.17845385932E+02 0.17846046970E+02 0.17638186551E+02 0.17245436026E+02
 0.16664955142E+02 0.16067134379E+02 0.15425148337E+02 0.14787819005E+02 0.14198164293E+02
 0.13690145235E+02 0.13286943788E+02 0.13000524810E+02 0.12832139098E+02 0.12773452444E+02
 0.12808078439E+02 0.12913403247E+02 0.13062681911E+02 0.13227422462E+02 0.13380030927E+02
 0.13496573257E+02 0.13559367569E+02 0.13559026155E+02 0.13495583422E+02 0.13378488054E+02
 0.13225461509E+02 0.13060448086E+02 0.12911022059E+02 0.12805631971E+02 0.12770966623E+02
 0.13018178573E+02 0.13154219860E+02 0.13410165510E+02 0.13780036238E+02 0.14247095492E+02
 0.14783996438E+02 0.15353906951E+02 0.15912905573E+02 0.16413787335E+02 0.16811094716E+02
 0.17138882422E+02 0.17233708529E+02 0.17140120223E+02 0.16813386617E+02 0.16416912732E+02
 0.15916562330E+02 0.15357791920E+02 0.14787855623E+02 0.14250756933E+02 0.13783421087E+02
 0.13413278604E+02 0.13157125144E+02 0.13020966342E+02 0.13000549829E+02 0.13082372350E+02
 0.13245070476E+02 0.13461212920E+02 0.13699568471E+02 0.13927888724E+02 0.14116107893E+02
 0.14239661098E+02 0.14282443058E+02 0.14238867801E+02 0.14114602751E+02 0.13925816557E+02
 0.13697106225E+02 0.13458533467E+02 0.13242310201E+02 0.13079609450E+02 0.12997797049E+02
 0.13134326061E+02 0.13233983320E+02 0.13452805616E+02 0.13780033748E+02 0.14194618795E+02
 0.14666032631E+02 0.15156046926E+02 0.15621690726E+02 0.16019387868E+02 0.16309927892E+02
 0.16463543088E+02 0.16464116975E+02 0.16311585205E+02 0.16021949442E+02 0.15624900264E+02
 0.15159622035E+02 0.14669715967E+02 0.14198217536E+02 0.13783440191E+02 0.13455997323E+02
 0.13237005840E+02 0.13137263920E+02 0.13157141871E+02 0.13286987664E+02 0.13507969079E+02
 0.13793399978E+02 0.14110680587E+02 0.14423973147E+02 0.14697603282E+02 0.14899939591E+02
 0.15007239102E+02 0.15006775958E+02 0.14898599870E+02 0.14695525155E+02 0.14421353456E+02
 0.14107734320E+02 0.13790319401E+02 0.13504891901E+02 0.13283980265E+02 0.13154199471E+02
 0.13173543693E+02 0.13233976229E+02 0.13410146972E+02 0.13686899259E+02 0.14039784431E+02
 0.14436486507E+02 0.14839135709E+02 0.15207614444E+02 0.15503719247E+02 0.15695715229E+02
 0.15762531506E+02 0.15696744049E+02 0.15505665366E+02 0.15210278901E+02 0.14842273505E+02
 0.14439854242E+02 0.14043182474E+02 0.13690199567E+02 0.13413302383E+02 0.13237011723E+02
 0.13176533422E+02 0.13237011723E+02 0.13413302383E+02 0.13690199567E+02 0.14043182474E+02
 0.14439854242E+02 0.14842273505E+02 0.15210278901E+02 0.15505665366E+02 0.15696744049E+02
 0.15762531506E+02 0.15695715229E+02 0.15503719247E+02 0.15207614444E+02 0.14839135709E+02
 0.14436486507E+02 0.14039784431E+02 0.13686899259E+02 0.13410146972E+02 0.13233976229E+02
 0.13134326061E+02 0.13154199471E+02 0.13283980265E+02 0.13504891901E+02 0.13790319401E+02
 0.14107734320E+02 0.14421353456E+02 0.14695525155E+02 0.14898599870E+02 0.15006775958E+02
 0.15007239102E+02 0.14899939591E+02 0.14697603282E+02 0.14423973147E+02 0.14110680587E+02
 0.13793399978E+02 0.13507969079E+02 0.13286987664E+02 0.13157141871E+02 0.13137263920E+02
 0.13237005840E+02 0.13455997323E+02 0.13783440191E+02 0.14198217536E+02 0.14669715967E+02
 0.15159622035E+02 0.15624900264E+02 0.16021949442E+02 0.16311585205E+02 0.16464116975E+02
 0.16463543088E+02 0.16309927892E+02 0.16019387868E+02 0.15621690726E+02 0.15156046926E+02
 0.14666032631E+02 0.14194618795E+02 0.13780033748E+02 0.13452805616E+02 0.13233983320E+02
 0.13018178573E+02 0.12997797049E+02 0.13079609450E+02 0.13242310201E+02 0.13458533467E+02
 0.13697106225E+02 0.13925816557E+02 0.14114602751E+02 0.14238867801E+02 0.14282443058E+02
 0.14239661098E+02 0.14116107893E+02 0.13927888724E+02 0.13699568471E+02 0.13461212920E+02
 0.13245070476E+02 0.13082372350E+02 0.13000549829E+02 0.13020966342E+02 0.13157125144E+02
 0.13413278604E+02 0.13783421087E+02 0.14250756933E+02 0.14787855623E+02 0.15357791920E+02
 0.15916562330E+02 0.16416912732E+02 0.16813386617E+02 0.17140120223E+02 0.17233708529E+02
 0.17138882422E+02 0.16811094716E+02 0.16413787335E+02 0.15912905573E+02 0.15353906951E+02
 0.14783996438E+02 0.14247095492E+02 0.13780036238E+02 0.13410165510E+02 0.13154219860E+02
 0.12829584082E+02 0.12770966623E+02 0.12805631971E+02 0.12911022059E+02 0.13060448086E+02
 0.13225461509E+02 0.13378488054E+02 0.13495583422E+02 0.13559026155E+02 0.13559367569E+02
 0.13496573257E+02 0.13380030927E+02 0.13227422462E+02 0.13062681911E+02 0.12913403247E+02
 0.12808078439E+02 0.12773452444E+02 0.12832139098E+02 0.13000524810E+02 0.13286943788E+02
 0.13690145235E+02 0.14198164293E+02 0.14787819005E+02 0.15425148337E+02 0.16067134379E+02
 0.16664955142E+02 0.17245436026E+02 0.17638186551E+02 0.17846046970E+02 0.17845385932E+02
 0.17636283295E+02 0.17242511635E+02 0.16661378186E+02 0.16063177118E+02 0.15421114567E+02
 0.14783942035E+02 0.14194583644E+02 0.13686906046E+02 0.13284014854E+02 0.12997828242E+02
 0.12575875713E+02 0.12482732184E+02 0.12473509473E+02 0.12525706640E+02 0.12614582765E+02
 0.12715429454E+02 0.12805860873E+02 0.12867982480E+02 0.12890217993E+02 0.12868543729E+02
 0.12806930004E+02 0.12716912135E+02 0.12616365273E+02 0.12527681174E+02 0.12475597243E+02
 0.12484899211E+02 0.12578138159E+02 0.12773422758E+02 0.13082314918E+02 0.13507887781E+02
 0.14043084185E+02 0.14669611770E+02 0.15357698224E+02 0.16067073534E+02 0.16749497109E+02
 0.17442049578E+02 0.17956167739E+02 0.18288825385E+02 0.18403598823E+02 0.18287492485E+02
 0.17953663149E+02 0.17438658833E+02 0.16745630522E+02 0.16062994585E+02 0.15353691068E+02
 0.14665874504E+02 0.14039716698E+02 0.13504901054E+02 0.13079655562E+02 0.12771004954E+02
 0.12266949739E+02 0.12144510325E+02 0.12096880659E+02 0.12102808685E+02 0.12140478081E+02
 0.12189495007E+02 0.12232693702E+02 0.12257667559E+02 0.12257899479E+02 0.12233368055E+02
 0.12190552717E+02 0.12141836544E+02 0.12104381383E+02 0.12098597550E+02 0.12146334401E+02
 0.12268886120E+02 0.12484868795E+02 0.12808015433E+02 0.13244973928E+02 0.13793271180E+02
 0.14439698144E+02 0.15159448852E+02 0.15916389010E+02 0.16664806180E+02 0.17441954769E+02
 0.18065474150E+02 0.18521386718E+02 0.18762210697E+02 0.18761536653E+02 0.18519448227E+02
 0.18062502740E+02 0.17438278178E+02 0.16660841314E+02 0.15912376656E+02 0.15155636380E+02
 0.14436239005E+02 0.13790223783E+02 0.13242318898E+02 0.12805683825E+02 0.12482773435E+02
 0.11914752694E+02 0.11769427590E+02 0.11690621046E+02 0.11659281038E+02 0.11657118054E+02
 0.11668177481E+02 0.11680107520E+02 0.11685100157E+02 0.11680475248E+02 0.11668881490E+02
 0.11658103314E+02 0.11660482765E+02 0.11691981220E+02 0.11770910380E+02 0.11916355313E+02
 0.12146306748E+02 0.12475536475E+02 0.12913304138E+02 0.13461071317E+02 0.14110494769E+02
 0.14842046012E+02 0.15624639992E+02 0.16416636817E+02 0.17245165968E+02 0.17955943261E+02
 0.18521251487E+02 0.18885708604E+02 0.19011160014E+02 0.18884425902E+02 0.18518844150E+02
 0.17952691389E+02 0.17241411546E+02 0.16412769001E+02 0.15620868068E+02 0.14838569150E+02
 0.14107418568E+02 0.13458416038E+02 0.12911027122E+02 0.12473561015E+02 0.12144550405E+02
 0.11532524715E+02 0.11371414925E+02 0.11269737596E+02 0.11211276098E+02 0.11181481586E+02
 0.11168576851E+02 0.11164317838E+02 0.11164464385E+02 0.11169004489E+02 0.11182157451E+02
 0.11212155177E+02 0.11270775007E+02 0.11372578983E+02 0.11533807845E+02 0.11770887969E+02
 0.12098545255E+02 0.12527590719E+02 0.13062544758E+02 0.13699376887E+02 0.14423721936E+02
 0.15209967742E+02 0.16021585542E+02 0.16812987084E+02 0.17637770753E+02 0.18288439632E+02
 0.18761903868E+02 0.19010983660E+02 0.19010372424E+02 0.18760146753E+02 0.18285748903E+02
 0.17634447303E+02 0.16809416984E+02 0.16017988801E+02 0.15206575309E+02 0.14420680353E+02
 0.13696746709E+02 0.13060315449E+02 0.12525705131E+02 0.12096926518E+02 0.11769463121E+02
 0.11133861563E+02 0.10964190381E+02 0.10848264121E+02 0.10773000947E+02 0.10727464146E+02
 0.10703516280E+02 0.10696169556E+02 0.10703741399E+02 0.10727897704E+02 0.10773614257E+02
 0.10849024813E+02 0.10965072559E+02 0.11134855552E+02 0.11372563014E+02 0.11691941182E+02
 0.12104307492E+02 0.12616246255E+02 0.13227246181E+02 0.13927643513E+02 0.14697280116E+02
 0.15505260800E+02 0.16311104648E+02 0.17139571256E+02 0.17845465520E+02 0.18403029003E+02
 0.18761032624E+02 0.18884044653E+02 0.18759938736E+02 0.18400976434E+02 0.17842694250E+02
 0.17136375185E+02 0.16307816273E+02 0.15502067888E+02 0.14694358503E+02 0.13925089385E+02
 0.13225082527E+02 0.12614441304E+02 0.12102798453E+02 0.11690657269E+02 0.11371443628E+02
 0.10731736979E+02 0.10560304307E+02 0.10438357155E+02 0.10355941365E+02 0.10305347321E+02
 0.10281389935E+02 0.10281476703E+02 0.10305601565E+02 0.10356346714E+02 0.10438891978E+02
 0.10560948962E+02 0.10732481726E+02 0.10965062998E+02 0.11270748347E+02 0.11660429201E+02
 0.12141743872E+02 0.12716765901E+02 0.13379815180E+02 0.14115806836E+02 0.14899540295E+02
 0.15696240042E+02 0.16463512174E+02 0.17233007837E+02 0.17844629953E+02 0.18286729671E+02
 0.18518737925E+02 0.18518248309E+02 0.18285321928E+02 0.17842473587E+02 0.17230343910E+02
 0.16460643013E+02 0.15693356146E+02 0.14896831575E+02 0.14113395766E+02 0.13377755033E+02
 0.12715052191E+02 0.12140333426E+02 0.11659261079E+02 0.11269762031E+02 0.10964211209E+02
 0.10337667466E+02 0.10170430085E+02 0.10049760073E+02 0.99685808876E+01 0.99218687207E+01
 0.99066657917E+01 0.99219979977E+01 0.99688315299E+01 0.10050118868E+02 0.10170883237E+02
 0.10338206483E+02 0.10560944836E+02 0.10849010377E+02 0.11212121738E+02 0.11658039302E+02
 0.12190443412E+02 0.12806757681E+02 0.13496318115E+02 0.14239303335E+02 0.15006762234E+02
 0.15761926650E+02 0.16462813455E+02 0.17138032131E+02 0.17635357791E+02 0.17952715382E+02
 0.18061596734E+02 0.17951893016E+02 0.17633813663E+02 0.17135945342E+02 0.16460435344E+02
 0.15759437951E+02 0.15004350811E+02 0.14237105574E+02 0.13494410354E+02 0.12805160642E+02
 0.12189135681E+02 0.11656974807E+02 0.11211246666E+02 0.10848276422E+02 0.10560317344E+02
 0.99611810389E+01 0.98030291563E+01 0.96897126876E+01 0.96166177627E+01 0.95808006657E+01
 0.95808487319E+01 0.96167592459E+01 0.96899404133E+01 0.98033342343E+01 0.99615568750E+01
 0.10170883053E+02 0.10438887109E+02 0.10773597751E+02 0.11182119422E+02 0.11668808558E+02
 0.12233242970E+02 0.12868345573E+02 0.13559072974E+02 0.14282028787E+02 0.15006222872E+02
 0.15695013189E+02 0.16309080639E+02 0.16810123413E+02 0.17241436089E+02 0.17437551244E+02
 0.17437206127E+02 0.17240443120E+02 0.16808623121E+02 0.16307217697E+02 0.15692969688E+02
 0.15004170409E+02 0.14280104564E+02 0.13557366657E+02 0.12866897688E+02 0.12232052644E+02
 0.11667846704E+02 0.11181343263E+02 0.10772963418E+02 0.10438358476E+02 0.10170436271E+02
 0.96096744717E+01 0.94644198671E+01 0.93632667475E+01 0.93035593341E+01 0.92838338226E+01
 0.93036283151E+01 0.93634014553E+01 0.94646151467E+01 0.96099257485E+01 0.98033363916E+01
 0.10050120295E+02 0.10356342329E+02 0.10727879746E+02 0.11168961840E+02 0.11680392721E+02
 0.12257757418E+02 0.12889992639E+02 0.13558691269E+02 0.14238397805E+02 0.14897974423E+02
 0.15502928581E+02 0.16018437754E+02 0.16412702259E+02 0.16660201468E+02 0.16744420723E+02
 0.16659665221E+02 0.16411692435E+02 0.16017067217E+02 0.15501338846E+02 0.14896310695E+02
 0.14236786614E+02 0.13557225289E+02 0.12888724748E+02 0.12256703337E+02 0.11679539701E+02
 0.11168280042E+02 0.10727333287E+02 0.10355897924E+02 0.10049752580E+02 0.98030299473E+01
 0.92886376002E+01 0.91591712674E+01 0.90738659925E+01 0.90314921346E+01 0.90315165535E+01
 0.90739382271E+01 0.91592887286E+01 0.92887974947E+01 0.94646182620E+01 0.96899450315E+01
 0.99688341841E+01 0.10305596531E+02 0.10703720041E+02 0.11164414325E+02 0.11685004492E+02
 0.12257504558E+02 0.12867726247E+02 0.13495206003E+02 0.14114077835E+02 0.14694833093E+02
 0.15206747731E+02 0.15620658663E+02 0.15911736707E+02 0.16061918376E+02 0.16061706744E+02
 0.15911126748E+02 0.15619720202E+02 0.15205581884E+02 0.14693553701E+02 0.14112792603E+02
 0.13494001598E+02 0.12866659978E+02 0.12256603159E+02 0.11684268721E+02 0.11163826966E+02
 0.10703254784E+02 0.10305225697E+02 0.99685341486E+01 0.96896990311E+01 0.94644169027E+01
 0.90021259327E+01 0.88906628825E+01 0.88239962361E+01 0.88018100972E+01 0.88240293341E+01
 0.88907280411E+01 0.90022217058E+01 0.91592918114E+01 0.93634068388E+01 0.96167646170E+01
 0.99219992242E+01 0.10281467307E+02 0.10696139938E+02 0.11164254363E+02 0.11679991801E+02
 0.12232502526E+02 0.12805567290E+02 0.13378063991E+02 0.13925236971E+02 0.14420601526E+02
 0.14838208067E+02 0.15154957610E+02 0.15352688800E+02 0.15419817258E+02 0.15352375779E+02
 0.15154367971E+02 0.14837407437E+02 0.14419672344E+02 0.13924264073E+02 0.13377121643E+02
 0.12804710316E+02 0.12231762727E+02 0.11679379334E+02 0.11163762628E+02 0.10695752058E+02
 0.10281162453E+02 0.99217575708E+01 0.96165704117E+01 0.93632496086E+01 0.91591661088E+01
 0.87533069784E+01 0.86616254554E+01 0.86157205898E+01 0.86157314400E+01 0.86616577435E+01
 0.87533601218E+01 0.88907305336E+01 0.90739428451E+01 0.93036334069E+01 0.95808511748E+01
 0.99066606326E+01 0.10281369776E+02 0.10703470446E+02 0.11168490531E+02 0.11668031214E+02
 0.12189264991E+02 0.12715089125E+02 0.13224984610E+02 0.13696471179E+02 0.14106929235E+02
 0.14435513739E+02 0.14664911648E+02 0.14782763983E+02 0.14782649104E+02 0.14664580487E+02
 0.14435004048E+02 0.14106295751E+02 0.13695775650E+02 0.13224285646E+02 0.12714434138E+02
 0.12188685644E+02 0.11667542675E+02 0.11168093844E+02 0.10703156757E+02 0.10281125051E+02
 0.99064697745E+01 0.95807009231E+01 0.93035138543E+01 0.90738477596E+01 0.88906568467E+01
 0.85449086362E+01 0.84745116547E+01 0.84509794528E+01 0.84745250669E+01 0.85449353186E+01
 0.86616594579E+01 0.88240325112E+01 0.90315198105E+01 0.92838345142E+01 0.95807946689E+01
 0.99218500248E+01 0.10305307387E+02 0.10727391131E+02 0.11181359689E+02 0.11656927368E+02
 0.12140195395E+02 0.12614183627E+02 0.13059910156E+02 0.13457840802E+02 0.13789466862E+02
 0.14038781171E+02 0.14193489788E+02 0.14245880401E+02 0.14193332950E+02 0.14038485677E+02
 0.13789065510E+02 0.13457374844E+02 0.13059422131E+02 0.12613710902E+02 0.12139765725E+02
 0.11656557066E+02 0.11181054256E+02 0.10727147626E+02 0.10305117602E+02 0.99217035887E+01
 0.95806814880E+01 0.92837462858E+01 0.90314506380E+01 0.88239788294E+01 0.86616195427E+01
 0.83794556967E+01 0.83316242294E+01 0.83316281155E+01 0.83794673582E+01 0.84745260698E+01
 0.86157331551E+01 0.88018111861E+01 0.90314900713E+01 0.93035502705E+01 0.96165962904E+01
 0.99685396221E+01 0.10355870375E+02 0.10772887183E+02 0.11211103107E+02 0.11659029324E+02
 0.12102457046E+02 0.12525234615E+02 0.12910413316E+02 0.13241556349E+02 0.13503995902E+02
 0.13685877528E+02 0.13778916219E+02 0.13778864059E+02 0.13685727156E+02 0.13503764436E+02
 0.13241268625E+02 0.12910097380E+02 0.12524917141E+02 0.12102159691E+02 0.11658766653E+02
 0.11210882233E+02 0.10772708806E+02 0.10355730655E+02 0.99684322821E+01 0.96165144463E+01
 0.93034877227E+01 0.90314419848E+01 0.88017742545E+01 0.86157054166E+01 0.84745065526E+01
 0.82592687647E+01 0.82350207112E+01 0.82592728455E+01 0.83316286018E+01 0.84509800744E+01
 0.86157200036E+01 0.88239918983E+01 0.90738540255E+01 0.93632417947E+01 0.96896676776E+01
 0.10049685874E+02 0.10438242201E+02 0.10848094214E+02 0.11269496147E+02 0.11690290032E+02
 0.12096442462E+02 0.12472949520E+02 0.12804941831E+02 0.13078789788E+02 0.13283042908E+02
 0.13409115445E+02 0.13451713758E+02 0.13409054239E+02 0.13282927591E+02 0.13078633164E+02
 0.12804760011E+02 0.12472759131E+02 0.12096258138E+02 0.11690122681E+02 0.11269352235E+02
 0.10847975998E+02 0.10438148632E+02 0.10049613817E+02 0.96896131015E+01 0.93632007036E+01
 0.90738230382E+01 0.88239684882E+01 0.86157024869E+01 0.84509674548E+01 0.83316203641E+01
 0.81862839700E+01 0.81862848205E+01 0.82350208961E+01 0.83316242629E+01 0.84745102792E+01
 0.86616201758E+01 0.88906497621E+01 0.91591447818E+01 0.94643727540E+01 0.98029522322E+01
 0.10170312077E+02 0.10560131833E+02 0.10963948286E+02 0.11371087177E+02 0.11768998861E+02
 0.12143968203E+02 0.12482069749E+02 0.12770184898E+02 0.12996906732E+02 0.13153221421E+02
 0.13232940368E+02 0.13232925971E+02 0.13153179918E+02 0.12996842852E+02 0.12770105505E+02
 0.12481982595E+02 0.12143880665E+02 0.11768916939E+02 0.11371014921E+02 0.10963887692E+02
 0.10560083129E+02 0.10170274232E+02 0.98029235269E+01 0.94643512812E+01 0.91591287938E+01
 0.88906378558E+01 0.86616113410E+01 0.84745038574E+01 0.83316198659E+01 0.82350183187E+01
 0.81919016627E+01 0.82164964856E+01 0.82898479704E+01 0.84106984308E+01 0.85771967263E+01
 0.87871540702E+01 0.90382120566E+01 0.93278084389E+01 0.96528859989E+01 0.10009382920E+02
 0.10391637882E+02 0.10791902868E+02 0.11200154516E+02 0.11604325387E+02 0.11990959434E+02
 0.12346171593E+02 0.12656706752E+02 0.12910882049E+02 0.13099261317E+02 0.13215020670E+02
 0.13254069702E+02 0.13215049345E+02 0.13099316661E+02 0.12910960332E+02 0.12656803021E+02