unknown system                          
   1.00000000000000     
     2.500784    0.000000    0.000000
     1.250392    2.165742    0.000000
     0.000000    0.000000    8.066662
   Co
     4
Direct
  0.333333  0.333333  0.875000
  0.666667  0.666667  0.625000
  0.333333  0.333333  0.375000
  0.666667  0.666667  0.125000
 
   40   40  120
 0.68381916335E+01 0.68608932024E+01 0.69289432344E+01 0.70424077086E+01 0.72011160683E+01
 0.74047388409E+01 0.76523508586E+01 0.79423222080E+01 0.82719708956E+01 0.86370020380E+01
 0.90316660328E+01 0.94483684294E+01 0.98767854767E+01 0.10305292596E+02 0.10721209311E+02
 0.11108899273E+02 0.11452387557E+02 0.11737464614E+02 0.11951505876E+02 0.12084422687E+02
 0.12129560939E+02 0.12084422687E+02 0.11951505876E+02 0.11737464614E+02 0.11452387557E+02
 0.11108899273E+02 0.10721209311E+02 0.10305292596E+02 0.98767854767E+01 0.94483684294E+01
 0.90316660328E+01 0.86370020380E+01 0.82719708956E+01 0.79423222080E+01 0.76523508586E+01
 0.74047388409E+01 0.72011160683E+01 0.70424077086E+01 0.69289432344E+01 0.68608932024E+01
 0.68608931997E+01 0.69062617547E+01 0.69970440896E+01 0.71332238232E+01 0.73146285942E+01
 0.75407320679E+01 0.78103047139E+01 0.81213468199E+01 0.84702874097E+01 0.88526059514E+01
 0.92612001525E+01 0.96871292077E+01 0.10120452784E+02 0.10547269953E+02 0.10952837513E+02
 0.11322870507E+02 0.11642415132E+02 0.11896775005E+02 0.12073799987E+02 0.12164558142E+02
 0.12164534960E+02 0.12073784546E+02 0.11896768147E+02 0.11642319124E+02 0.11322931145E+02
 0.10952951450E+02 0.10547226842E+02 0.10120260184E+02 0.96872987159E+01 0.92612147548E+01
 0.88525152068E+01 0.84703908969E+01 0.81212497077E+01 0.78103367101E+01 0.75407150706E+01
 0.73146336267E+01 0.71332189006E+01 0.69970344689E+01 0.69062607642E+01 0.68608840417E+01
 0.69289432235E+01 0.69970440803E+01 0.71106555846E+01 0.72698055436E+01 0.74743144176E+01
 0.77234750360E+01 0.80159749223E+01 0.83491349394E+01 0.87194021801E+01 0.91204111512E+01
 0.95451363128E+01 0.99836158860E+01 0.10422748344E+02 0.10849422889E+02 0.11248862642E+02
 0.11604637143E+02 0.11900783190E+02 0.12123349993E+02 0.12261451531E+02 0.12308281490E+02
 0.12261486797E+02 0.12123367912E+02 0.11900875815E+02 0.11604676435E+02 0.11248670073E+02
 0.10849310850E+02 0.10423017704E+02 0.99836200701E+01 0.95448906330E+01 0.91205575800E+01
 0.87193022018E+01 0.83491679234E+01 0.80160074485E+01 0.77234632928E+01 0.74743144202E+01
 0.72698024477E+01 0.71106671676E+01 0.69970519821E+01 0.69289527922E+01 0.69062607568E+01
 0.70424076820E+01 0.71332237958E+01 0.72698055238E+01 0.74522241784E+01 0.76804345639E+01
 0.79536746118E+01 0.82703309306E+01 0.86276090788E+01 0.90206262721E+01 0.94435230938E+01
 0.98869066988E+01 0.10339022643E+02 0.10787909301E+02 0.11218091972E+02 0.11611820649E+02
 0.11951671530E+02 0.12222336629E+02 0.12410850619E+02 0.12507705225E+02 0.12507694610E+02
 0.12410799685E+02 0.12222230183E+02 0.11951600978E+02 0.11611885642E+02 0.11218304759E+02
 0.10787765347E+02 0.10338832541E+02 0.98870782304E+01 0.94434967100E+01 0.90206661152E+01
 0.86275899670E+01 0.82702915294E+01 0.79536515502E+01 0.76804143142E+01 0.74522424451E+01
 0.72697651666E+01 0.71332294120E+01 0.70423663852E+01 0.69970519710E+01 0.69970344486E+01
 0.72011160166E+01 0.73146285364E+01 0.74743143635E+01 0.76804345274E+01 0.79331121192E+01
 0.82314928281E+01 0.85740679655E+01 0.89570930050E+01 0.93760936499E+01 0.98225754330E+01
 0.10286474903E+02 0.10756945514E+02 0.11217328365E+02 0.11648955250E+02 0.12034400550E+02
 0.12357052274E+02 0.12600832900E+02 0.12752768281E+02 0.12804346785E+02 0.12752792190E+02
 0.12600945886E+02 0.12357125189E+02 0.12034359275E+02 0.11648812215E+02 0.11217283361E+02
 0.10757087922E+02 0.10286382949E+02 0.98226231979E+01 0.93759735912E+01 0.89570642669E+01
 0.85741094177E+01 0.82314780962E+01 0.79331527788E+01 0.76804102091E+01 0.74743289641E+01
 0.73146414871E+01 0.72011376996E+01 0.71332293990E+01 0.71106671408E+01 0.71332188602E+01
 0.74047387510E+01 0.75407319642E+01 0.77234749293E+01 0.79536745177E+01 0.82314927682E+01
 0.85564907356E+01 0.89261994558E+01 0.93377741351E+01 0.97837823056E+01 0.10256269063E+02
 0.10745272080E+02 0.11233032035E+02 0.11701784692E+02 0.12134454763E+02 0.12511592283E+02
 0.12813458165E+02 0.13023875499E+02 0.13131774519E+02 0.13131734408E+02 0.13023792408E+02
 0.12813341821E+02 0.12511586476E+02 0.12134520512E+02 0.11701800476E+02 0.11232950637E+02
 0.10745355083E+02 0.10256160198E+02 0.97837679125E+01 0.93378731043E+01 0.89261605135E+01
 0.85564665239E+01 0.82314557543E+01 0.79536595433E+01 0.77234384738E+01 0.75407297186E+01
 0.74046774176E+01 0.73146414747E+01 0.72697651374E+01 0.72698023989E+01 0.73146335563E+01
 0.76523507144E+01 0.78103045445E+01 0.80159747406E+01 0.82703307540E+01 0.85740678182E+01
 0.89261993657E+01 0.93253960686E+01 0.97656931548E+01 0.10241351186E+02 0.10743252927E+02
 0.11253617120E+02 0.11756788517E+02 0.12234886331E+02 0.12665090946E+02 0.13024349294E+02
 0.13294231554E+02 0.13461420140E+02 0.13518151136E+02 0.13461507947E+02 0.13294288859E+02
 0.13024372917E+02 0.12665046346E+02 0.12234839323E+02 0.11756843326E+02 0.11253484129E+02
 0.10743231444E+02 0.10241416386E+02 0.97656513839E+01 0.93253216026E+01 0.89261623225E+01
 0.85741141985E+01 0.82702873512E+01 0.80160300687E+01 0.78102967018E+01 0.76523944303E+01
 0.75407297088E+01 0.74743289380E+01 0.74522423945E+01 0.74743143400E+01 0.75407149575E+01
 0.79423219892E+01 0.81213465620E+01 0.83491346568E+01 0.86276087916E+01 0.89570927403E+01
 0.93377739235E+01 0.97656930316E+01 0.10236914046E+02 0.10743923453E+02 0.11270013822E+02
 0.11801436989E+02 0.12319363748E+02 0.12797932708E+02 0.13211557687E+02 0.13539878264E+02
 0.13767627328E+02 0.13884273543E+02 0.13884217805E+02 0.13767542082E+02 0.13539868862E+02
 0.13211522009E+02 0.12797914312E+02 0.12319311371E+02 0.11801459672E+02 0.11270048725E+02
 0.10743909065E+02 0.10236828470E+02 0.97656541843E+01 0.93378599882E+01 0.89570511376E+01
 0.86276005702E+01 0.83491094178E+01 0.81212845129E+01 0.79422755432E+01 0.78102966988E+01
 0.77234384562E+01 0.76804101655E+01 0.76804142339E+01 0.77234631683E+01 0.78103365374E+01
 0.82719705787E+01 0.84702870370E+01 0.87194017687E+01 0.90206258450E+01 0.93760932362E+01
 0.97837819407E+01 0.10241350905E+02 0.10743923295E+02 0.11276250428E+02 0.11826259807E+02
 0.12375239326E+02 0.12894945394E+02 0.13357794197E+02 0.13741900321E+02 0.14030328826E+02
 0.14209678689E+02 0.14270598644E+02 0.14209716814E+02 0.14030336700E+02 0.13741880959E+02
 0.13357822998E+02 0.12894964183E+02 0.12375155432E+02 0.11826256878E+02 0.11276152931E+02
 0.10743889603E+02 0.10241431516E+02 0.97837347484E+01 0.93760245034E+01 0.90205804612E+01
 0.87193907791E+01 0.84703020802E+01 0.82720401599E+01 0.81212845183E+01 0.80160300653E+01
 0.79536595148E+01 0.79331527103E+01 0.79536514279E+01 0.80160072636E+01 0.81212494555E+01
 0.86370015971E+01 0.88526054365E+01 0.91204105823E+01 0.94435224966E+01 0.98225748428E+01
 0.10256268515E+02 0.10743252461E+02 0.11270013481E+02 0.11826259622E+02 0.12394692453E+02
 0.12945984708E+02 0.13450673669E+02 0.13885764710E+02 0.14233359473E+02 0.14603276491E+02
 0.14742875320E+02 0.14742861790E+02 0.14603290646E+02 0.14233320977E+02 0.13885734203E+02
 0.13450580244E+02 0.12946009220E+02 0.12394656911E+02 0.11826233146E+02 0.11270065877E+02
 0.10743190475E+02 0.10256199871E+02 0.98225279929E+01 0.94435777245E+01 0.91204457216E+01
 0.88525811929E+01 0.86369148995E+01 0.84703020970E+01 0.83491094345E+01 0.82702873474E+01
 0.82314557094E+01 0.82314779911E+01 0.82702913487E+01 0.83491676570E+01 0.84703905412E+01
 0.90316654400E+01 0.92611994682E+01 0.95451355582E+01 0.98869059071E+01 0.10286474109E+02
 0.10745271324E+02 0.11253616450E+02 0.11801436442E+02 0.12375238941E+02 0.12945984512E+02
 0.13482564095E+02 0.13960664507E+02 0.14482025819E+02 0.14822757025E+02 0.15038008779E+02
 0.15111412122E+02 0.15037972834E+02 0.14822713063E+02 0.14482064083E+02 0.13960663182E+02
 0.13482536900E+02 0.12945969643E+02 0.12375215326E+02 0.11801379776E+02 0.11253579497E+02
 0.10745216564E+02 0.10286523760E+02 0.98869148909E+01 0.95450189500E+01 0.92610878069E+01
 0.90317275133E+01 0.88525812241E+01 0.87193908194E+01 0.86276005982E+01 0.85741141873E+01
 0.85564664507E+01 0.85741092594E+01 0.86275897084E+01 0.87193018309E+01 0.88525147228E+01
 0.94483676600E+01 0.96871283278E+01 0.99836149236E+01 0.10339021636E+02 0.10756944498E+02
 0.11233031062E+02 0.11756787630E+02 0.12319362991E+02 0.12894944811E+02 0.13450673282E+02
 0.13960664319E+02 0.14532815160E+02 0.14937868742E+02 0.15225715432E+02 0.15375087115E+02
 0.15375072461E+02 0.15225758189E+02 0.14937849644E+02 0.14532739525E+02 0.13960683306E+02
 0.13450603138E+02 0.12894889811E+02 0.12319363301E+02 0.11756728402E+02 0.11233031972E+02
 0.10756962782E+02 0.10338898936E+02 0.99835410173E+01 0.96872835797E+01 0.94483985595E+01
 0.92610878499E+01 0.91204457887E+01 0.90205805256E+01 0.89570511706E+01 0.89261622938E+01
 0.89261603949E+01 0.89570640346E+01 0.90206657524E+01 0.91205570780E+01 0.92612141141E+01
 0.98767845062E+01 0.10120451688E+02 0.10422747160E+02 0.10787908062E+02 0.11217327123E+02
 0.11701783500E+02 0.12234885231E+02 0.12797931756E+02 0.13357793434E+02 0.13885764152E+02
 0.14482025444E+02 0.14937868568E+02 0.15290093124E+02 0.15512383937E+02 0.15588188302E+02
 0.15512398190E+02 0.15290027669E+02 0.14937859974E+02 0.14481985836E+02 0.13885750564E+02
 0.13357796359E+02 0.12797926240E+02 0.12234826501E+02 0.11701797198E+02 0.11217250743E+02
 0.10787800217E+02 0.10422894367E+02 0.10120404736E+02 0.98765704532E+01 0.96872836371E+01
 0.95450190466E+01 0.94435778309E+01 0.93760245879E+01 0.93378600154E+01 0.93253215395E+01
 0.93378729202E+01 0.93759732624E+01 0.94434962193E+01 0.95448899747E+01 0.96872978930E+01
 0.10305291406E+02 0.10547268631E+02 0.10849421473E+02 0.11218090504E+02 0.11648953793E+02
 0.12134453361E+02 0.12665089658E+02 0.13211556571E+02 0.13741899409E+02 0.14233358773E+02
 0.14822756509E+02 0.15225715124E+02 0.15512383807E+02 0.15661008201E+02 0.15660944122E+02
 0.15512374623E+02 0.15225735245E+02 0.14822786693E+02 0.14233284250E+02 0.13741871012E+02
 0.13211490378E+02 0.12665005082E+02 0.12134475182E+02 0.11648821087E+02 0.11218183911E+02
 0.10849413264E+02 0.10547058139E+02 0.10305363311E+02 0.10120404807E+02 0.99835411377E+01
 0.98869150344E+01 0.98225281255E+01 0.97837348334E+01 0.97656541825E+01 0.97656512588E+01
 0.97837676324E+01 0.98226227399E+01 0.98870775823E+01 0.99836192288E+01 0.10120259160E+02
 0.10721207893E+02 0.10952835963E+02 0.11248860999E+02 0.11611818971E+02 0.12034398895E+02
 0.12511590702E+02 0.13024347858E+02 0.13539877023E+02 0.14030327805E+02 0.14603275653E+02
 0.15038008175E+02 0.15375086727E+02 0.15588188096E+02 0.15660944046E+02 0.15588237375E+02
 0.15375046107E+02 0.15037914598E+02 0.14603235201E+02 0.14030353627E+02 0.13539822944E+02
 0.13024386168E+02 0.12511570034E+02 0.12034335876E+02 0.11611874151E+02 0.11248668221E+02
 0.10952848730E+02 0.10721327593E+02 0.10547058216E+02 0.10422894505E+02 0.10338899114E+02
 0.10286523944E+02 0.10256200022E+02 0.10241431591E+02 0.10236828424E+02 0.10241416180E+02
 0.10256159801E+02 0.10286382339E+02 0.10338831711E+02 0.10423016658E+02 0.10547225597E+02
 0.11108897630E+02 0.11322868737E+02 0.11604635294E+02 0.11951669671E+02 0.12357050456E+02
 0.12813456452E+02 0.13294230017E+02 0.13767626011E+02 0.14209677608E+02 0.14742874440E+02
 0.15111411488E+02 0.15375072052E+02 0.15512397963E+02 0.15512374527E+02 0.15375046085E+02
 0.15111452756E+02 0.14742860306E+02 0.14209680758E+02 0.13767530596E+02 0.13294213503E+02
 0.12813346364E+02 0.12357007074E+02 0.11951653749E+02 0.11604522948E+02 0.11323010902E+02
 0.11108769252E+02 0.10952848808E+02 0.10849413417E+02 0.10787800424E+02 0.10756963011E+02
 0.10745216773E+02 0.10743190617E+02 0.10743889631E+02 0.10743908936E+02 0.10743231120E+02
 0.10745354535E+02 0.10757087135E+02 0.10787764316E+02 0.10849309587E+02 0.10952949979E+02
 0.11452385706E+02 0.11642413165E+02 0.11900781172E+02 0.12222334628E+02 0.12600830969E+02
 0.13023873711E+02 0.13461418557E+02 0.13884272203E+02 0.14270597557E+02 0.14742860930E+02
 0.15037972230E+02 0.15225757813E+02 0.15290027475E+02 0.15225735177E+02 0.15037914598E+02
 0.14742860325E+02 0.14270543017E+02 0.13884215922E+02 0.13461467523E+02 0.13023796968E+02
 0.12600891205E+02 0.12222275293E+02 0.11900750433E+02 0.11642429318E+02 0.11452197388E+02
 0.11323010979E+02 0.11248668379E+02 0.11218184131E+02 0.11217250995E+02 0.11233032218E+02
 0.11253579693E+02 0.11270065974E+02 0.11276152880E+02 0.11270048480E+02 0.11253483656E+02
 0.11232949909E+02 0.11217282372E+02 0.11218303511E+02 0.11248668587E+02 0.11322929452E+02
 0.11737462582E+02 0.11896772881E+02 0.12123347852E+02 0.12410848528E+02 0.12752766296E+02
 0.13131772713E+02 0.13518149565E+02 0.13884216498E+02 0.14209715777E+02 0.14603289862E+02
 0.14822712540E+02 0.14937849347E+02 0.14937859851E+02 0.14822786686E+02 0.14603235253E+02
 0.14209680802E+02 0.13884215955E+02 0.13518131821E+02 0.13131667187E+02 0.12752770546E+02
 0.12410712521E+02 0.12123348802E+02 0.11896715349E+02 0.11737392799E+02 0.11642429388E+02
 0.11604523096E+02 0.11611874364E+02 0.11648821342E+02 0.11701797467E+02 0.11756728643E+02
 0.11801379937E+02 0.11826233174E+02 0.11826256721E+02 0.11801459287E+02 0.11756842680E+02
 0.11701799552E+02 0.11648811013E+02 0.11611884176E+02 0.11604674733E+02 0.11642317228E+02
 0.11951503703E+02 0.12073797756E+02 0.12261449322E+02 0.12507703105E+02 0.12804344809E+02
 0.13131732646E+02 0.13461506443E+02 0.13767540860E+02 0.14030335760E+02 0.14233320307E+02
 0.14482063677E+02 0.14532739335E+02 0.14481985805E+02 0.14233284279E+02 0.14030353708E+02
 0.13767530692E+02 0.13461467602E+02 0.13131667230E+02 0.12804390924E+02 0.12507605451E+02
 0.12261531214E+02 0.12073686829E+02 0.11951536081E+02 0.11896715406E+02 0.11900750557E+02
 0.11951653936E+02 0.12034336117E+02 0.12134475454E+02 0.12234826763E+02 0.12319363503E+02
 0.12375215413E+02 0.12394656829E+02 0.12375155133E+02 0.12319310816E+02 0.12234838486E+02
 0.12134519383E+02 0.12034357862E+02 0.11951599306E+02 0.11900873920E+02 0.11896766079E+02
 0.12084420423E+02 0.12164555862E+02 0.12308279274E+02 0.12507692522E+02 0.12752790285E+02
 0.13023790744E+02 0.13294287474E+02 0.13539867771E+02 0.13741880154E+02 0.13885733665E+02
 0.13960662877E+02 0.13960683188E+02 0.13885750583E+02 0.13741871120E+02 0.13539823093E+02
 0.13294213656E+02 0.13023797093E+02 0.12752770626E+02 0.12507605484E+02 0.12308274941E+02
 0.12164432584E+02 0.12084432520E+02 0.12073686866E+02 0.12123348891E+02 0.12222275441E+02
 0.12357007281E+02 0.12511570281E+02 0.12665005334E+02 0.12797926449E+02 0.12894889927E+02
 0.12945969612E+02 0.12946008993E+02 0.12894963715E+02 0.12797913570E+02 0.12665045309E+02
 0.12511585144E+02 0.12357123578E+02 0.12222228329E+02 0.12123365860E+02 0.12073782351E+02
 0.12129558644E+02 0.12164532693E+02 0.12261484634E+02 0.12410797689E+02 0.12600944106E+02
 0.12813340305E+02 0.13024371692E+02 0.13211521082E+02 0.13357822354E+02 0.13450579858E+02
 0.13482536731E+02 0.13450603139E+02 0.13357796479E+02 0.13211490567E+02 0.13024386380E+02
 0.12813346560E+02 0.12600891356E+02 0.12410712616E+02 0.12261531260E+02 0.12164432597E+02
 0.12129625584E+02 0.12164432597E+02 0.12261531260E+02 0.12410712616E+02 0.12600891356E+02
 0.12813346560E+02 0.13024386380E+02 0.13211490567E+02 0.13357796479E+02 0.13450603139E+02
 0.13482536731E+02 0.13450579858E+02 0.13357822354E+02 0.13211521082E+02 0.13024371692E+02
 0.12813340305E+02 0.12600944106E+02 0.12410797689E+02 0.12261484634E+02 0.12164532693E+02
 0.12084420423E+02 0.12073782351E+02 0.12123365860E+02 0.12222228329E+02 0.12357123578E+02
 0.12511585144E+02 0.12665045309E+02 0.12797913570E+02 0.12894963715E+02 0.12946008993E+02
 0.12945969612E+02 0.12894889927E+02 0.12797926449E+02 0.12665005334E+02 0.12511570281E+02
 0.12357007281E+02 0.12222275441E+02 0.12123348891E+02 0.12073686866E+02 0.12084432520E+02
 0.12164432584E+02 0.12308274941E+02 0.12507605484E+02 0.12752770626E+02 0.13023797093E+02
 0.13294213656E+02 0.13539823093E+02 0.13741871120E+02 0.13885750583E+02 0.13960683188E+02
 0.13960662877E+02 0.13885733665E+02 0.13741880154E+02 0.13539867771E+02 0.13294287474E+02
 0.13023790744E+02 0.12752790285E+02 0.12507692522E+02 0.12308279274E+02 0.12164555862E+02
 0.11951503703E+02 0.11896766079E+02 0.11900873920E+02 0.11951599306E+02 0.12034357862E+02
 0.12134519383E+02 0.12234838486E+02 0.12319310816E+02 0.12375155133E+02 0.12394656829E+02
 0.12375215413E+02 0.12319363503E+02 0.12234826763E+02 0.12134475454E+02 0.12034336117E+02
 0.11951653936E+02 0.11900750557E+02 0.11896715406E+02 0.11951536081E+02 0.12073686829E+02
 0.12261531214E+02 0.12507605451E+02 0.12804390924E+02 0.13131667230E+02 0.13461467602E+02
 0.13767530692E+02 0.14030353708E+02 0.14233284279E+02 0.14481985805E+02 0.14532739335E+02
 0.14482063677E+02 0.14233320307E+02 0.14030335760E+02 0.13767540860E+02 0.13461506443E+02
 0.13131732646E+02 0.12804344809E+02 0.12507703105E+02 0.12261449322E+02 0.12073797756E+02
 0.11737462582E+02 0.11642317228E+02 0.11604674733E+02 0.11611884176E+02 0.11648811013E+02
 0.11701799552E+02 0.11756842680E+02 0.11801459287E+02 0.11826256721E+02 0.11826233174E+02
 0.11801379937E+02 0.11756728643E+02 0.11701797467E+02 0.11648821342E+02 0.11611874364E+02
 0.11604523096E+02 0.11642429388E+02 0.11737392799E+02 0.11896715349E+02 0.12123348802E+02
 0.12410712521E+02 0.12752770546E+02 0.13131667187E+02 0.13518131821E+02 0.13884215955E+02
 0.14209680802E+02 0.14603235253E+02 0.14822786686E+02 0.14937859851E+02 0.14937849347E+02
 0.14822712540E+02 0.14603289862E+02 0.14209715777E+02 0.13884216498E+02 0.13518149565E+02
 0.13131772713E+02 0.12752766296E+02 0.12410848528E+02 0.12123347852E+02 0.11896772881E+02
 0.11452385706E+02 0.11322929452E+02 0.11248668587E+02 0.11218303511E+02 0.11217282372E+02
 0.11232949909E+02 0.11253483656E+02 0.11270048480E+02 0.11276152880E+02 0.11270065974E+02
 0.11253579693E+02 0.11233032218E+02 0.11217250995E+02 0.11218184131E+02 0.11248668379E+02
 0.11323010979E+02 0.11452197388E+02 0.11642429318E+02 0.11900750433E+02 0.12222275293E+02
 0.12600891205E+02 0.13023796968E+02 0.13461467523E+02 0.13884215922E+02 0.14270543017E+02
 0.14742860325E+02 0.15037914598E+02 0.15225735177E+02 0.15290027475E+02 0.15225757813E+02
 0.15037972230E+02 0.14742860930E+02 0.14270597557E+02 0.13884272203E+02 0.13461418557E+02
 0.13023873711E+02 0.12600830969E+02 0.12222334628E+02 0.11900781172E+02 0.11642413165E+02
 0.11108897630E+02 0.10952949979E+02 0.10849309587E+02 0.10787764316E+02 0.10757087135E+02
 0.10745354535E+02 0.10743231120E+02 0.10743908936E+02 0.10743889631E+02 0.10743190617E+02
 0.10745216773E+02 0.10756963011E+02 0.10787800424E+02 0.10849413417E+02 0.10952848808E+02
 0.11108769252E+02 0.11323010902E+02 0.11604522948E+02 0.11951653749E+02 0.12357007074E+02
 0.12813346364E+02 0.13294213503E+02 0.13767530596E+02 0.14209680758E+02 0.14742860306E+02
 0.15111452756E+02 0.15375046085E+02 0.15512374527E+02 0.15512397963E+02 0.15375072052E+02
 0.15111411488E+02 0.14742874440E+02 0.14209677608E+02 0.13767626011E+02 0.13294230017E+02
 0.12813456452E+02 0.12357050456E+02 0.11951669671E+02 0.11604635294E+02 0.11322868737E+02
 0.10721207893E+02 0.10547225597E+02 0.10423016658E+02 0.10338831711E+02 0.10286382339E+02
 0.10256159801E+02 0.10241416180E+02 0.10236828424E+02 0.10241431591E+02 0.10256200022E+02
 0.10286523944E+02 0.10338899114E+02 0.10422894505E+02 0.10547058216E+02 0.10721327593E+02
 0.10952848730E+02 0.11248668221E+02 0.11611874151E+02 0.12034335876E+02 0.12511570034E+02
 0.13024386168E+02 0.13539822944E+02 0.14030353627E+02 0.14603235201E+02 0.15037914598E+02
 0.15375046107E+02 0.15588237375E+02 0.15660944046E+02 0.15588188096E+02 0.15375086727E+02
 0.15038008175E+02 0.14603275653E+02 0.14030327805E+02 0.13539877023E+02 0.13024347858E+02
 0.12511590702E+02 0.12034398895E+02 0.11611818971E+02 0.11248860999E+02 0.10952835963E+02
 0.10305291406E+02 0.10120259160E+02 0.99836192288E+01 0.98870775823E+01 0.98226227399E+01
 0.97837676324E+01 0.97656512588E+01 0.97656541825E+01 0.97837348334E+01 0.98225281255E+01
 0.98869150344E+01 0.99835411377E+01 0.10120404807E+02 0.10305363311E+02 0.10547058139E+02
 0.10849413264E+02 0.11218183911E+02 0.11648821087E+02 0.12134475182E+02 0.12665005082E+02
 0.13211490378E+02 0.13741871012E+02 0.14233284250E+02 0.14822786693E+02 0.15225735245E+02
 0.15512374623E+02 0.15660944122E+02 0.15661008201E+02 0.15512383807E+02 0.15225715124E+02
 0.14822756509E+02 0.14233358773E+02 0.13741899409E+02 0.13211556571E+02 0.12665089658E+02
 0.12134453361E+02 0.11648953793E+02 0.11218090504E+02 0.10849421473E+02 0.10547268631E+02
 0.98767845062E+01 0.96872978930E+01 0.95448899747E+01 0.94434962193E+01 0.93759732624E+01
 0.93378729202E+01 0.93253215395E+01 0.93378600154E+01 0.93760245879E+01 0.94435778309E+01
 0.95450190466E+01 0.96872836371E+01 0.98765704532E+01 0.10120404736E+02 0.10422894367E+02
 0.10787800217E+02 0.11217250743E+02 0.11701797198E+02 0.12234826501E+02 0.12797926240E+02
 0.13357796359E+02 0.13885750564E+02 0.14481985836E+02 0.14937859974E+02 0.15290027669E+02
 0.15512398190E+02 0.15588188302E+02 0.15512383937E+02 0.15290093124E+02 0.14937868568E+02
 0.14482025444E+02 0.13885764152E+02 0.13357793434E+02 0.12797931756E+02 0.12234885231E+02
 0.11701783500E+02 0.11217327123E+02 0.10787908062E+02 0.10422747160E+02 0.10120451688E+02
 0.94483676600E+01 0.92612141141E+01 0.91205570780E+01 0.90206657524E+01 0.89570640346E+01
 0.89261603949E+01 0.89261622938E+01 0.89570511706E+01 0.90205805256E+01 0.91204457887E+01
 0.92610878499E+01 0.94483985595E+01 0.96872835797E+01 0.99835410173E+01 0.10338898936E+02
 0.10756962782E+02 0.11233031972E+02 0.11756728402E+02 0.12319363301E+02 0.12894889811E+02
 0.13450603138E+02 0.13960683306E+02 0.14532739525E+02 0.14937849644E+02 0.15225758189E+02
 0.15375072461E+02 0.15375087115E+02 0.15225715432E+02 0.14937868742E+02 0.14532815160E+02
 0.13960664319E+02 0.13450673282E+02 0.12894944811E+02 0.12319362991E+02 0.11756787630E+02
 0.11233031062E+02 0.10756944498E+02 0.10339021636E+02 0.99836149236E+01 0.96871283278E+01
 0.90316654400E+01 0.88525147228E+01 0.87193018309E+01 0.86275897084E+01 0.85741092594E+01
 0.85564664507E+01 0.85741141873E+01 0.86276005982E+01 0.87193908194E+01 0.88525812241E+01
 0.90317275133E+01 0.92610878069E+01 0.95450189500E+01 0.98869148909E+01 0.10286523760E+02
 0.10745216564E+02 0.11253579497E+02 0.11801379776E+02 0.12375215326E+02 0.12945969643E+02
 0.13482536900E+02 0.13960663182E+02 0.14482064083E+02 0.14822713063E+02 0.15037972834E+02
 0.15111412122E+02 0.15038008779E+02 0.14822757025E+02 0.14482025819E+02 0.13960664507E+02
 0.13482564095E+02 0.12945984512E+02 0.12375238941E+02 0.11801436442E+02 0.11253616450E+02
 0.10745271324E+02 0.10286474109E+02 0.98869059071E+01 0.95451355582E+01 0.92611994682E+01
 0.86370015971E+01 0.84703905412E+01 0.83491676570E+01 0.82702913487E+01 0.82314779911E+01
 0.82314557094E+01 0.82702873474E+01 0.83491094345E+01 0.84703020970E+01 0.86369148995E+01
 0.88525811929E+01 0.91204457216E+01 0.94435777245E+01 0.98225279929E+01 0.10256199871E+02
 0.10743190475E+02 0.11270065877E+02 0.11826233146E+02 0.12394656911E+02 0.12946009220E+02
 0.13450580244E+02 0.13885734203E+02 0.14233320977E+02 0.14603290646E+02 0.14742861790E+02
 0.14742875320E+02 0.14603276491E+02 0.14233359473E+02 0.13885764710E+02 0.13450673669E+02
 0.12945984708E+02 0.12394692453E+02 0.11826259622E+02 0.11270013481E+02 0.10743252461E+02
 0.10256268515E+02 0.98225748428E+01 0.94435224966E+01 0.91204105823E+01 0.88526054365E+01
 0.82719705787E+01 0.81212494555E+01 0.80160072636E+01 0.79536514279E+01 0.79331527103E+01
 0.79536595148E+01 0.80160300653E+01 0.81212845183E+01 0.82720401599E+01 0.84703020802E+01
 0.87193907791E+01 0.90205804612E+01 0.93760245034E+01 0.97837347484E+01 0.10241431516E+02
 0.10743889603E+02 0.11276152931E+02 0.11826256878E+02 0.12375155432E+02 0.12894964183E+02
 0.13357822998E+02 0.13741880959E+02 0.14030336700E+02 0.14209716814E+02 0.14270598644E+02
 0.14209678689E+02 0.14030328826E+02 0.13741900321E+02 0.13357794197E+02 0.12894945394E+02
 0.12375239326E+02 0.11826259807E+02 0.11276250428E+02 0.10743923295E+02 0.10241350905E+02
 0.97837819407E+01 0.93760932362E+01 0.90206258450E+01 0.87194017687E+01 0.84702870370E+01
 0.79423219892E+01 0.78103365374E+01 0.77234631683E+01 0.76804142339E+01 0.76804101655E+01
 0.77234384562E+01 0.78102966988E+01 0.79422755432E+01 0.81212845129E+01 0.83491094178E+01
 0.86276005702E+01 0.89570511376E+01 0.93378599882E+01 0.97656541843E+01 0.10236828470E+02
 0.10743909065E+02 0.11270048725E+02 0.11801459672E+02 0.12319311371E+02 0.12797914312E+02
 0.13211522009E+02 0.13539868862E+02 0.13767542082E+02 0.13884217805E+02 0.13884273543E+02
 0.13767627328E+02 0.13539878264E+02 0.13211557687E+02 0.12797932708E+02 0.12319363748E+02
 0.11801436989E+02 0.11270013822E+02 0.10743923453E+02 0.10236914046E+02 0.97656930316E+01
 0.93377739235E+01 0.89570927403E+01 0.86276087916E+01 0.83491346568E+01 0.81213465620E+01
 0.76523507144E+01 0.75407149575E+01 0.74743143400E+01 0.74522423945E+01 0.74743289380E+01
 0.75407297088E+01 0.76523944303E+01 0.78102967018E+01 0.80160300687E+01 0.82702873512E+01
 0.85741141985E+01 0.89261623225E+01 0.93253216026E+01 0.97656513839E+01 0.10241416386E+02
 0.10743231444E+02 0.11253484129E+02 0.11756843326E+02 0.12234839323E+02 0.12665046346E+02
 0.13024372917E+02 0.13294288859E+02 0.13461507947E+02 0.13518151136E+02 0.13461420140E+02
 0.13294231554E+02 0.13024349294E+02 0.12665090946E+02 0.12234886331E+02 0.11756788517E+02
 0.11253617120E+02 0.10743252927E+02 0.10241351186E+02 0.97656931548E+01 0.93253960686E+01
 0.89261993657E+01 0.85740678182E+01 0.82703307540E+01 0.80159747406E+01 0.78103045445E+01
 0.74047387510E+01 0.73146335563E+01 0.72698023989E+01 0.72697651374E+01 0.73146414747E+01
 0.74046774176E+01 0.75407297186E+01 0.77234384738E+01 0.79536595433E+01 0.82314557543E+01
 0.85564665239E+01 0.89261605135E+01 0.93378731043E+01 0.97837679125E+01 0.10256160198E+02
 0.10745355083E+02 0.11232950637E+02 0.11701800476E+02 0.12134520512E+02 0.12511586476E+02
 0.12813341821E+02 0.13023792408E+02 0.13131734408E+02 0.13131774519E+02 0.13023875499E+02
 0.12813458165E+02 0.12511592283E+02 0.12134454763E+02 0.11701784692E+02 0.11233032035E+02
 0.10745272080E+02 0.10256269063E+02 0.97837823056E+01 0.93377741351E+01 0.89261994558E+01
 0.85564907356E+01 0.82314927682E+01 0.79536745177E+01 0.77234749293E+01 0.75407319642E+01
 0.72011160166E+01 0.71332188602E+01 0.71106671408E+01 0.71332293990E+01 0.72011376996E+01
 0.73146414871E+01 0.74743289641E+01 0.76804102091E+01 0.79331527788E+01 0.82314780962E+01
 0.85741094177E+01 0.89570642669E+01 0.93759735912E+01 0.98226231979E+01 0.10286382949E+02
 0.10757087922E+02 0.11217283361E+02 0.11648812215E+02 0.12034359275E+02 0.12357125189E+02
 0.12600945886E+02 0.12752792190E+02 0.12804346785E+02 0.12752768281E+02 0.12600832900E+02
 0.12357052274E+02 0.12034400550E+02 0.11648955250E+02 0.11217328365E+02 0.10756945514E+02
 0.10286474903E+02 0.98225754330E+01 0.93760936499E+01 0.89570930050E+01 0.85740679655E+01
 0.82314928281E+01 0.79331121192E+01 0.76804345274E+01 0.74743143635E+01 0.73146285364E+01
 0.70424076820E+01 0.69970344486E+01 0.69970519710E+01 0.70423663852E+01 0.71332294120E+01
 0.72697651666E+01 0.74522424451E+01 0.76804143142E+01 0.79536515502E+01 0.82702915294E+01
 0.86275899670E+01 0.90206661152E+01 0.94434967100E+01 0.98870782304E+01 0.10338832541E+02
 0.10787765347E+02 0.11218304759E+02 0.11611885642E+02 0.11951600978E+02 0.12222230183E+02
 0.12410799685E+02 0.12507694610E+02 0.12507705225E+02 0.12410850619E+02 0.12222336629E+02
 0.11951671530E+02 0.11611820649E+02 0.11218091972E+02 0.10787909301E+02 0.10339022643E+02
 0.98869066988E+01 0.94435230938E+01 0.90206262721E+01 0.86276090788E+01 0.82703309306E+01
 0.79536746118E+01 0.76804345639E+01 0.74522241784E+01 0.72698055238E+01 0.71332237958E+01
 0.69289432235E+01 0.69062607568E+01 0.69289527922E+01 0.69970519821E+01 0.71106671676E+01
 0.72698024477E+01 0.74743144202E+01 0.77234632928E+01 0.80160074485E+01 0.83491679234E+01
 0.87193022018E+01 0.91205575800E+01 0.95448906330E+01 0.99836200701E+01 0.10423017704E+02
 0.10849310850E+02 0.11248670073E+02 0.11604676435E+02 0.11900875815E+02 0.12123367912E+02
 0.12261486797E+02 0.12308281490E+02 0.12261451531E+02 0.12123349993E+02 0.11900783190E+02
 0.11604637143E+02 0.11248862642E+02 0.10849422889E+02 0.10422748344E+02 0.99836158860E+01
 0.95451363128E+01 0.91204111512E+01 0.87194021801E+01 0.83491349394E+01 0.80159749223E+01
 0.77234750360E+01 0.74743144176E+01 0.72698055436E+01 0.71106555846E+01 0.69970440803E+01
 0.68608931997E+01 0.68608840417E+01 0.69062607642E+01 0.69970344689E+01 0.71332189006E+01
 0.73146336267E+01 0.75407150706E+01 0.78103367101E+01 0.81212497077E+01 0.84703908969E+01
 0.88525152068E+01 0.92612147548E+01 0.96872987159E+01 0.10120260184E+02 0.10547226842E+02
 0.10952951450E+02 0.11322931145E+02 0.11642319124E+02 0.11896768147E+02 0.12073784546E+02
 0.12164534960E+02 0.12164558142E+02 0.12073799987E+02 0.11896775005E+02 0.11642415132E+02
 0.11322870507E+02 0.10952837513E+02 0.10547269953E+02 0.10120452784E+02 0.96871292077E+01
 0.92612001525E+01 0.88526059514E+01 0.84702874097E+01 0.81213468199E+01 0.78103047139E+01
 0.75407320679E+01 0.73146285942E+01 0.71332238232E+01 0.69970440896E+01 0.69062617547E+01
 0.68629665845E+01 0.68860045041E+01 0.69551950191E+01 0.70705362816E+01 0.72320686757E+01
 0.74394540785E+01 0.76919750896E+01 0.79880566891E+01 0.83250539294E+01 0.86990132077E+01
 0.91040580174E+01 0.95321587160E+01 0.99737415904E+01 0.10416583398E+02 0.10845566996E+02
 0.11246158296E+02 0.11603265556E+02 0.11900913406E+02 0.12124800291E+02 0.12263765304E+02
 0.12310820360E+02 0.12263755752E+02 0.12124814453E+02 0.11900952079E+02 0.11603319469E+02