unknown system                          
   1.00000000000000     
     2.500784    0.000000    0.000000
     1.250392    2.165742    0.000000
     0.000000    0.000000    8.066662
   Co
     4
Direct
  0.333333  0.333333  0.875000
  0.666667  0.666667  0.625000
  0.333333  0.333333  0.375000
  0.666667  0.666667  0.125000
 
   40   40  120
 0.86357180522E-02 0.90446106975E-02 0.10320824540E-01 0.12607018598E-01 0.16144116275E-01
 0.21266283410E-01 0.28394893835E-01 0.38019383089E-01 0.50659628435E-01 0.66816749590E-01
 0.86881143297E-01 0.11102668387E+00 0.13911547966E+00 0.17056019725E+00 0.20422868690E+00
 0.23849154313E+00 0.27127739918E+00 0.30022912948E+00 0.32299448281E+00 0.33756000608E+00
 0.34257418246E+00 0.33756000608E+00 0.32299448281E+00 0.30022912948E+00 0.27127739918E+00
 0.23849154313E+00 0.20422868690E+00 0.17056019725E+00 0.13911547966E+00 0.11102668387E+00
 0.86881143297E-01 0.66816749590E-01 0.50659628435E-01 0.38019383088E-01 0.28394893835E-01
 0.21266283410E-01 0.16144116275E-01 0.12607018598E-01 0.10320824540E-01 0.90446106974E-02
 0.90446108947E-02 0.98879991095E-02 0.11673642468E-01 0.14600163674E-01 0.18966560020E-01
 0.25165774479E-01 0.33676867565E-01 0.45031790405E-01 0.59779961266E-01 0.78398139464E-01
 0.10121432138E+00 0.12828541602E+00 0.15923200147E+00 0.19320577729E+00 0.22879628015E+00
 0.26402536511E+00 0.29652387059E+00 0.32378680437E+00 0.34349006513E+00 0.35383536742E+00
 0.35383563625E+00 0.34349060922E+00 0.32378639959E+00 0.29652476578E+00 0.26402343451E+00
 0.22879362106E+00 0.19320735964E+00 0.15923457940E+00 0.12828099559E+00 0.10121533436E+00
 0.78398469982E-01 0.59777670830E-01 0.45033722873E-01 0.33675750978E-01 0.25166348010E-01
 0.18966152873E-01 0.14600535833E-01 0.11673491707E-01 0.98881915440E-02 0.90447011986E-02
 0.10320825292E-01 0.11673642949E-01 0.14109743098E-01 0.17904813531E-01 0.23442022043E-01
 0.31212307867E-01 0.41786013027E-01 0.55789971949E-01 0.73822605824E-01 0.96394327579E-01
 0.12376252911E+00 0.15580856484E+00 0.19193341815E+00 0.23088069127E+00 0.27073525842E+00
 0.30903423574E+00 0.34297783181E+00 0.36975153642E+00 0.38692474575E+00 0.39284393876E+00
 0.38692338002E+00 0.36975042522E+00 0.34297589662E+00 0.30903359925E+00 0.27073827081E+00
 0.23088046577E+00 0.19192648035E+00 0.15580986293E+00 0.12376492450E+00 0.96390657577E-01
 0.73825216203E-01 0.55788622256E-01 0.41785301285E-01 0.31212157348E-01 0.23441793902E-01
 0.17904550751E-01 0.14109403029E-01 0.11673548636E-01 0.10320453560E-01 0.98881921789E-02
 0.12607020181E-01 0.14600164737E-01 0.17904813950E-01 0.22903791376E-01 0.30108249051E-01
 0.40146299720E-01 0.53740054756E-01 0.71641252204E-01 0.94562937614E-01 0.12301753890E+00
 0.15719011265E+00 0.19676475042E+00 0.24068534572E+00 0.28711942919E+00 0.33349628569E+00
 0.37664575712E+00 0.41309770776E+00 0.43957578262E+00 0.45351601886E+00 0.45351679448E+00
 0.43957598944E+00 0.41309882775E+00 0.37664443670E+00 0.33349246398E+00 0.28711474414E+00
 0.24068845658E+00 0.19676538983E+00 0.15718570129E+00 0.12301784670E+00 0.94560759336E-01
 0.71640517619E-01 0.53739736869E-01 0.40146721398E-01 0.30107957684E-01 0.22903718493E-01
 0.17905207903E-01 0.14600182952E-01 0.12607477792E-01 0.11673549857E-01 0.11673493406E-01
 0.16144118782E-01 0.18966561511E-01 0.23442022450E-01 0.30108248768E-01 0.39649588827E-01
 0.52897601693E-01 0.70764448452E-01 0.94197623302E-01 0.12400351788E+00 0.16072713584E+00
 0.20440968460E+00 0.25428706010E+00 0.30872696825E+00 0.36513117993E+00 0.41992773153E+00
 0.46889977914E+00 0.50775633473E+00 0.53277367504E+00 0.54141398828E+00 0.53277215337E+00
 0.50775318071E+00 0.46889718326E+00 0.41992823863E+00 0.36513183556E+00 0.30872377668E+00
 0.25428275909E+00 0.20441000812E+00 0.16072422999E+00 0.12400482829E+00 0.94196614382E-01
 0.70764108591E-01 0.52896923916E-01 0.39648426000E-01 0.30108061851E-01 0.23441383679E-01
 0.18965976591E-01 0.16143566747E-01 0.14600185001E-01 0.14109406061E-01 0.14600538946E-01
 0.21266286681E-01 0.25165775861E-01 0.31212307349E-01 0.40146297849E-01 0.52897599701E-01
 0.70544690317E-01 0.94274832381E-01 0.12521393339E+00 0.16431727682E+00 0.21206410688E+00
 0.26811252027E+00 0.33120751505E+00 0.39884038606E+00 0.46713889550E+00 0.53120369938E+00
 0.58567322482E+00 0.62543428095E+00 0.64643815815E+00 0.64643843195E+00 0.62543481312E+00
 0.58567283678E+00 0.53120048463E+00 0.46713402415E+00 0.39883841514E+00 0.33120665050E+00
 0.26810845389E+00 0.21206412150E+00 0.16431507760E+00 0.12521111709E+00 0.94273871456E-01
 0.70543532274E-01 0.52897368068E-01 0.40146273590E-01 0.31212534297E-01 0.25165668038E-01
 0.21267394957E-01 0.18965979820E-01 0.17905212864E-01 0.17904556127E-01 0.18966157596E-01
 0.28394897319E-01 0.33676867807E-01 0.41786010044E-01 0.53740049237E-01 0.70764441881E-01
 0.94274827263E-01 0.12572030629E+00 0.16649102598E+00 0.21756720158E+00 0.27916873729E+00
 0.35058219089E+00 0.42958617160E+00 0.51225749350E+00 0.59323116504E+00 0.66615316958E+00
 0.72439477668E+00 0.76207270258E+00 0.77511495258E+00 0.76206999082E+00 0.72439216944E+00
 0.66615088641E+00 0.59322917894E+00 0.51225467964E+00 0.42958176381E+00 0.35058096629E+00
 0.27916591646E+00 0.21756424408E+00 0.16648934884E+00 0.12572018432E+00 0.94274141280E-01
 0.70763354135E-01 0.53739983522E-01 0.41784173945E-01 0.33676670184E-01 0.28393413614E-01
 0.25165672907E-01 0.23441391364E-01 0.22903727174E-01 0.23441801995E-01 0.25166354258E-01
 0.38019385718E-01 0.45031787830E-01 0.55789964218E-01 0.71641240118E-01 0.94197608570E-01
 0.12521391890E+00 0.16649101593E+00 0.21955796332E+00 0.28527571641E+00 0.36362097744E+00
 0.45291494916E+00 0.54951384744E+00 0.64792434566E+00 0.74104831478E+00 0.82081749608E+00
 0.87935763563E+00 0.91037515407E+00 0.91037603897E+00 0.87935647793E+00 0.82081394501E+00
 0.74104486301E+00 0.64792101131E+00 0.54950996360E+00 0.45291044990E+00 0.36361744514E+00
 0.28527201207E+00 0.21955697567E+00 0.16648919578E+00 0.12521065831E+00 0.94196815088E-01
 0.71639571948E-01 0.55789568996E-01 0.45032311065E-01 0.38019825828E-01 0.33676677234E-01
 0.31212545720E-01 0.30108075180E-01 0.30107970732E-01 0.31212168256E-01 0.33675758274E-01
 0.50659628474E-01 0.59779953453E-01 0.73822590225E-01 0.94562915117E-01 0.12400349045E+00
 0.16431724766E+00 0.21756717546E+00 0.28527569962E+00 0.36821046515E+00 0.46548101753E+00
 0.57405418558E+00 0.68872838187E+00 0.80207699829E+00 0.90491304068E+00 0.98745854168E+00
 0.10410144371E+01 0.10595777924E+01 0.10410122159E+01 0.98745689911E+00 0.90490945775E+00
 0.80207149119E+00 0.68872329367E+00 0.57405141900E+00 0.46547606299E+00 0.36820832668E+00
 0.28527271890E+00 0.21756307791E+00 0.16431580537E+00 0.12400265609E+00 0.94562336612E-01
 0.73822381916E-01 0.59779027861E-01 0.50657624973E-01 0.45032320926E-01 0.41784190287E-01
 0.40146293204E-01 0.39648445962E-01 0.40146739137E-01 0.41785314641E-01 0.45033730159E-01
 0.66816744509E-01 0.78398123170E-01 0.96394300158E-01 0.12301750138E+00 0.16072709032E+00
 0.21206405703E+00 0.27916868843E+00 0.36362093651E+00 0.46548099285E+00 0.58261922666E+00
 0.71053265495E+00 0.84201375462E+00 0.96728515706E+00 0.10750449836E+01 0.11542096551E+01
 0.11962266804E+01 0.11962257643E+01 0.11542059991E+01 0.10750408768E+01 0.96728130760E+00
 0.84200948993E+00 0.71052621079E+00 0.58261421961E+00 0.46547604017E+00 0.36361612641E+00
 0.27916594610E+00 0.21206197630E+00 0.16072559637E+00 0.12301503534E+00 0.96391957382E-01
 0.78396476002E-01 0.66817146422E-01 0.59779041190E-01 0.55789591528E-01 0.53740011272E-01
 0.52897397252E-01 0.52896951115E-01 0.53739759100E-01 0.55788637067E-01 0.59777676336E-01
 0.86881129748E-01 0.10121429258E+00 0.12376248528E+00 0.15719005490E+00 0.20440961536E+00
 0.26811244367E+00 0.35058211275E+00 0.45291487744E+00 0.57405412944E+00 0.71053262336E+00
 0.85591164916E+00 0.10005178257E+01 0.11321016163E+01 0.12379546424E+01 0.13069056393E+01
 0.13308627869E+01 0.13069051786E+01 0.12379518489E+01 0.11320957954E+01 0.10005117437E+01
 0.85590619299E+00 0.71052658723E+00 0.57404954813E+00 0.45291070820E+00 0.35057798826E+00
 0.26811000415E+00 0.20440622556E+00 0.15718692236E+00 0.12376224905E+00 0.10121537164E+00
 0.86879957064E-01 0.78396493332E-01 0.73822411901E-01 0.71639609738E-01 0.70763395065E-01
 0.70543571881E-01 0.70764142944E-01 0.71640543317E-01 0.73825230588E-01 0.78398471031E-01
 0.11102665767E+00 0.12828537017E+00 0.15580849972E+00 0.19676466733E+00 0.25428696199E+00
 0.33120740640E+00 0.42958605926E+00 0.54951374046E+00 0.68872829023E+00 0.84201368803E+00
 0.10005177914E+01 0.11519194730E+01 0.12825927050E+01 0.13792078272E+01 0.14306247023E+01
 0.14306231694E+01 0.13792034697E+01 0.12825884944E+01 0.11519140470E+01 0.10005107091E+01
 0.84200774511E+00 0.68872210805E+00 0.54950741495E+00 0.42958163094E+00 0.33120355058E+00
 0.25428231410E+00 0.19676369223E+00 0.15580844666E+00 0.12828081228E+00 0.11102374154E+00
 0.10121539345E+00 0.96391995864E-01 0.94562386254E-01 0.94196870246E-01 0.94274196439E-01
 0.94273921495E-01 0.94196654817E-01 0.94560786483E-01 0.96390668630E-01 0.10121532736E+00
 0.13911543613E+00 0.15923193389E+00 0.19193332711E+00 0.24068523315E+00 0.30872683747E+00
 0.39884024238E+00 0.51225734515E+00 0.64792420269E+00 0.80207687182E+00 0.96728505765E+00
 0.11321015515E+01 0.12825926756E+01 0.14043565350E+01 0.14837722485E+01 0.15112650996E+01
 0.14837698505E+01 0.14043529442E+01 0.12825870958E+01 0.11320957900E+01 0.96727773756E+00
 0.80207052338E+00 0.64791758348E+00 0.51225292904E+00 0.39883502235E+00 0.30872341486E+00
 0.24068449922E+00 0.19192756478E+00 0.15922942549E+00 0.13911766201E+00 0.12828083862E+00
 0.12376229650E+00 0.12301509802E+00 0.12400272750E+00 0.12521073184E+00 0.12572025352E+00
 0.12521117614E+00 0.12400487227E+00 0.12301787185E+00 0.12376492814E+00 0.12828097609E+00
 0.17056013164E+00 0.19320568372E+00 0.23088057096E+00 0.28711928474E+00 0.36513101529E+00
 0.46713871748E+00 0.59323098313E+00 0.74104814032E+00 0.90491288610E+00 0.10750448603E+01
 0.12379545572E+01 0.13792077802E+01 0.14837722322E+01 0.15391865559E+01 0.15391866687E+01
 0.14837695821E+01 0.13792015714E+01 0.12379471023E+01 0.10750385056E+01 0.90490542548E+00
 0.74104160394E+00 0.59322591988E+00 0.46713208688E+00 0.36512819890E+00 0.28711407205E+00
 0.23087642042E+00 0.19320720742E+00 0.17055745000E+00 0.15922945590E+00 0.15580850290E+00
 0.15718699847E+00 0.16072568537E+00 0.16431589956E+00 0.16648928734E+00 0.16648943035E+00
 0.16431514264E+00 0.16072427347E+00 0.15718571965E+00 0.15580985403E+00 0.15923454223E+00
 0.20422859502E+00 0.22879615762E+00 0.27073510750E+00 0.33349610971E+00 0.41992753565E+00
 0.53120349211E+00 0.66615296173E+00 0.82081730049E+00 0.98745837201E+00 0.11542095231E+01
 0.13069055503E+01 0.14306246552E+01 0.15112650851E+01 0.15391866708E+01 0.15112609110E+01
 0.14306206749E+01 0.13069017075E+01 0.11542028464E+01 0.98745128362E+00 0.82081079928E+00
 0.66614593029E+00 0.53119731782E+00 0.41992401634E+00 0.33349061778E+00 0.27073389562E+00
 0.22879375057E+00 0.20422281061E+00 0.19320724098E+00 0.19192762852E+00 0.19676378073E+00
 0.20440633174E+00 0.21206209173E+00 0.21756319349E+00 0.21955708230E+00 0.21756433355E+00
 0.21206418708E+00 0.20441004506E+00 0.19676539524E+00 0.19192645307E+00 0.19320729961E+00
 0.23849142210E+00 0.26402521285E+00 0.30903405564E+00 0.37664555347E+00 0.46889955889E+00
 0.58567299799E+00 0.72439455555E+00 0.87935743441E+00 0.10410142700E+01 0.11962265583E+01
 0.13308627136E+01 0.14306231415E+01 0.14837698563E+01 0.14837696041E+01 0.14306206941E+01
 0.13308566663E+01 0.11962198933E+01 0.10410067643E+01 0.87935103218E+00 0.72438774348E+00
 0.58566785766E+00 0.46889481300E+00 0.37663958847E+00 0.30903212637E+00 0.26401938139E+00
 0.23848920644E+00 0.22879378565E+00 0.23087648896E+00 0.24068459711E+00 0.25428243491E+00
 0.26811013937E+00 0.27916608561E+00 0.28527285194E+00 0.28527212832E+00 0.27916600713E+00
 0.26810851250E+00 0.25428278178E+00 0.24068844189E+00 0.23088041398E+00 0.22879353361E+00
 0.27127724827E+00 0.29652369058E+00 0.34297762713E+00 0.41309748411E+00 0.50775610083E+00
 0.62543404819E+00 0.76207248455E+00 0.91037496566E+00 0.10595776474E+01 0.11962256715E+01
 0.13069051396E+01 0.13792034778E+01 0.14043529853E+01 0.13792016265E+01 0.13069017575E+01
 0.11962199227E+01 0.10595727570E+01 0.91036900382E+00 0.76206529379E+00 0.62542865507E+00
 0.50774958276E+00 0.41309288430E+00 0.34297461618E+00 0.29651819247E+00 0.27127720013E+00
 0.26401941568E+00 0.27073396492E+00 0.28711417450E+00 0.30872354552E+00 0.33120370156E+00
 0.35057814895E+00 0.36361628465E+00 0.36820847003E+00 0.36361756245E+00 0.35058104883E+00
 0.33120669283E+00 0.30872377656E+00 0.28711470215E+00 0.27073818920E+00 0.26402331653E+00
 0.30022895079E+00 0.32378660158E+00 0.36975131500E+00 0.43957554976E+00 0.53277344094E+00
 0.64643793526E+00 0.77511475515E+00 0.91037588150E+00 0.10410121103E+01 0.11542059516E+01
 0.12379518574E+01 0.12825885490E+01 0.12825871799E+01 0.12379471960E+01 0.11542029309E+01
 0.10410068259E+01 0.91036903478E+00 0.77510826744E+00 0.64643315928E+00 0.53276709417E+00
 0.43957206377E+00 0.36974629562E+00 0.32378242089E+00 0.30022686610E+00 0.29651822321E+00
 0.30903219149E+00 0.33349071819E+00 0.36512833196E+00 0.39883518155E+00 0.42958180611E+00
 0.45291088648E+00 0.46547620739E+00 0.46547620555E+00 0.45291055645E+00 0.42958182663E+00
 0.39883843066E+00 0.36513180398E+00 0.33349238840E+00 0.30903348427E+00 0.29652461651E+00
 0.32299428145E+00 0.34348984730E+00 0.38692451794E+00 0.45351578944E+00 0.54141376839E+00
 0.64643823448E+00 0.76206982966E+00 0.87935636592E+00 0.98745684531E+00 0.10750408835E+01
 0.11320958568E+01 0.11519141500E+01 0.11320959163E+01 0.10750386357E+01 0.98745139949E+00
 0.87935112139E+00 0.76206535065E+00 0.64643318468E+00 0.54140752478E+00 0.45351233941E+00
 0.38691826651E+00 0.34348696792E+00 0.32298982632E+00 0.32378244534E+00 0.34297467165E+00
 0.37663967891E+00 0.41992414199E+00 0.46713224359E+00 0.51225310829E+00 0.54950760424E+00
 0.57404973231E+00 0.58261438282E+00 0.57405154704E+00 0.54951004591E+00 0.51225471055E+00
 0.46713400284E+00 0.41992816841E+00 0.37664432348E+00 0.34297574742E+00 0.32378622125E+00
 0.33755978987E+00 0.35383514438E+00 0.39284371608E+00 0.45351658120E+00 0.53277196080E+00
 0.62543465369E+00 0.72439205553E+00 0.82081388672E+00 0.90490946032E+00 0.96728136930E+00
 0.10005118552E+01 0.10005108550E+01 0.96727789867E+00 0.90490558262E+00 0.82081093658E+00
 0.72438785068E+00 0.62542872842E+00 0.53276713570E+00 0.45351235556E+00 0.39283842854E+00
 0.35383248224E+00 0.33755500124E+00 0.34348698370E+00 0.36974633616E+00 0.41309295648E+00
 0.46889492029E+00 0.53119745936E+00 0.59322608992E+00 0.64791777120E+00 0.68872229839E+00
 0.71052676289E+00 0.71052635485E+00 0.68872339238E+00 0.64792105605E+00 0.59322916707E+00
 0.53120041889E+00 0.46889707031E+00 0.41309867628E+00 0.36975024434E+00 0.34349040717E+00
 0.34257396107E+00 0.35383541866E+00 0.38692317364E+00 0.43957580324E+00 0.50775302533E+00
 0.58567272319E+00 0.66615082448E+00 0.74104485926E+00 0.80207154680E+00 0.84200959934E+00
 0.85590634413E+00 0.84200792110E+00 0.80207070546E+00 0.74104177464E+00 0.66614607620E+00
 0.58566797091E+00 0.50774966128E+00 0.43957211042E+00 0.38691828794E+00 0.35383248768E+00
 0.34256808531E+00 0.35383248768E+00 0.38691828794E+00 0.43957211042E+00 0.50774966128E+00
 0.58566797091E+00 0.66614607620E+00 0.74104177464E+00 0.80207070546E+00 0.84200792110E+00
 0.85590634413E+00 0.84200959934E+00 0.80207154680E+00 0.74104485926E+00 0.66615082447E+00
 0.58567272319E+00 0.50775302533E+00 0.43957580324E+00 0.38692317364E+00 0.35383541866E+00
 0.33755978987E+00 0.34349040717E+00 0.36975024434E+00 0.41309867628E+00 0.46889707031E+00
 0.53120041889E+00 0.59322916707E+00 0.64792105606E+00 0.68872339238E+00 0.71052635485E+00
 0.71052676289E+00 0.68872229839E+00 0.64791777120E+00 0.59322608992E+00 0.53119745936E+00
 0.46889492029E+00 0.41309295648E+00 0.36974633616E+00 0.34348698370E+00 0.33755500124E+00
 0.35383248224E+00 0.39283842854E+00 0.45351235556E+00 0.53276713570E+00 0.62542872842E+00
 0.72438785068E+00 0.82081093658E+00 0.90490558262E+00 0.96727789867E+00 0.10005108550E+01
 0.10005118552E+01 0.96728136930E+00 0.90490946032E+00 0.82081388672E+00 0.72439205553E+00
 0.62543465369E+00 0.53277196080E+00 0.45351658120E+00 0.39284371608E+00 0.35383514438E+00
 0.32299428145E+00 0.32378622125E+00 0.34297574742E+00 0.37664432348E+00 0.41992816841E+00
 0.46713400284E+00 0.51225471055E+00 0.54951004591E+00 0.57405154704E+00 0.58261438282E+00
 0.57404973231E+00 0.54950760424E+00 0.51225310829E+00 0.46713224359E+00 0.41992414199E+00
 0.37663967891E+00 0.34297467165E+00 0.32378244534E+00 0.32298982632E+00 0.34348696792E+00
 0.38691826651E+00 0.45351233941E+00 0.54140752478E+00 0.64643318468E+00 0.76206535065E+00
 0.87935112139E+00 0.98745139949E+00 0.10750386357E+01 0.11320959163E+01 0.11519141500E+01
 0.11320958568E+01 0.10750408835E+01 0.98745684531E+00 0.87935636592E+00 0.76206982966E+00
 0.64643823448E+00 0.54141376839E+00 0.45351578944E+00 0.38692451794E+00 0.34348984730E+00
 0.30022895079E+00 0.29652461651E+00 0.30903348427E+00 0.33349238840E+00 0.36513180398E+00
 0.39883843066E+00 0.42958182663E+00 0.45291055645E+00 0.46547620555E+00 0.46547620739E+00
 0.45291088648E+00 0.42958180611E+00 0.39883518155E+00 0.36512833196E+00 0.33349071819E+00
 0.30903219149E+00 0.29651822321E+00 0.30022686610E+00 0.32378242090E+00 0.36974629562E+00
 0.43957206377E+00 0.53276709417E+00 0.64643315928E+00 0.77510826744E+00 0.91036903478E+00
 0.10410068259E+01 0.11542029309E+01 0.12379471960E+01 0.12825871799E+01 0.12825885490E+01
 0.12379518574E+01 0.11542059516E+01 0.10410121103E+01 0.91037588150E+00 0.77511475515E+00
 0.64643793526E+00 0.53277344094E+00 0.43957554976E+00 0.36975131500E+00 0.32378660158E+00
 0.27127724827E+00 0.26402331653E+00 0.27073818920E+00 0.28711470215E+00 0.30872377656E+00
 0.33120669283E+00 0.35058104883E+00 0.36361756245E+00 0.36820847003E+00 0.36361628465E+00
 0.35057814895E+00 0.33120370156E+00 0.30872354553E+00 0.28711417450E+00 0.27073396492E+00
 0.26401941568E+00 0.27127720013E+00 0.29651819247E+00 0.34297461618E+00 0.41309288430E+00
 0.50774958276E+00 0.62542865507E+00 0.76206529379E+00 0.91036900382E+00 0.10595727570E+01
 0.11962199227E+01 0.13069017575E+01 0.13792016265E+01 0.14043529853E+01 0.13792034778E+01
 0.13069051396E+01 0.11962256715E+01 0.10595776474E+01 0.91037496566E+00 0.76207248455E+00
 0.62543404819E+00 0.50775610083E+00 0.41309748411E+00 0.34297762713E+00 0.29652369058E+00
 0.23849142210E+00 0.22879353361E+00 0.23088041398E+00 0.24068844189E+00 0.25428278178E+00
 0.26810851250E+00 0.27916600713E+00 0.28527212832E+00 0.28527285194E+00 0.27916608561E+00
 0.26811013937E+00 0.25428243491E+00 0.24068459711E+00 0.23087648896E+00 0.22879378565E+00
 0.23848920644E+00 0.26401938139E+00 0.30903212637E+00 0.37663958847E+00 0.46889481300E+00
 0.58566785766E+00 0.72438774348E+00 0.87935103218E+00 0.10410067643E+01 0.11962198933E+01
 0.13308566663E+01 0.14306206941E+01 0.14837696041E+01 0.14837698563E+01 0.14306231415E+01
 0.13308627136E+01 0.11962265583E+01 0.10410142700E+01 0.87935743441E+00 0.72439455555E+00
 0.58567299799E+00 0.46889955889E+00 0.37664555347E+00 0.30903405564E+00 0.26402521285E+00
 0.20422859502E+00 0.19320729961E+00 0.19192645307E+00 0.19676539524E+00 0.20441004506E+00
 0.21206418708E+00 0.21756433355E+00 0.21955708230E+00 0.21756319349E+00 0.21206209173E+00
 0.20440633174E+00 0.19676378073E+00 0.19192762852E+00 0.19320724098E+00 0.20422281061E+00
 0.22879375057E+00 0.27073389562E+00 0.33349061778E+00 0.41992401634E+00 0.53119731782E+00
 0.66614593029E+00 0.82081079928E+00 0.98745128362E+00 0.11542028464E+01 0.13069017075E+01
 0.14306206749E+01 0.15112609110E+01 0.15391866708E+01 0.15112650851E+01 0.14306246552E+01
 0.13069055503E+01 0.11542095231E+01 0.98745837201E+00 0.82081730049E+00 0.66615296173E+00
 0.53120349211E+00 0.41992753565E+00 0.33349610971E+00 0.27073510750E+00 0.22879615762E+00
 0.17056013164E+00 0.15923454223E+00 0.15580985403E+00 0.15718571965E+00 0.16072427347E+00
 0.16431514264E+00 0.16648943035E+00 0.16648928734E+00 0.16431589956E+00 0.16072568537E+00
 0.15718699847E+00 0.15580850290E+00 0.15922945590E+00 0.17055745000E+00 0.19320720743E+00
 0.23087642042E+00 0.28711407205E+00 0.36512819890E+00 0.46713208688E+00 0.59322591988E+00
 0.74104160394E+00 0.90490542548E+00 0.10750385056E+01 0.12379471023E+01 0.13792015714E+01
 0.14837695821E+01 0.15391866687E+01 0.15391865559E+01 0.14837722322E+01 0.13792077802E+01
 0.12379545572E+01 0.10750448603E+01 0.90491288610E+00 0.74104814032E+00 0.59323098313E+00
 0.46713871748E+00 0.36513101529E+00 0.28711928474E+00 0.23088057096E+00 0.19320568372E+00
 0.13911543613E+00 0.12828097609E+00 0.12376492814E+00 0.12301787185E+00 0.12400487227E+00
 0.12521117614E+00 0.12572025352E+00 0.12521073184E+00 0.12400272750E+00 0.12301509802E+00
 0.12376229650E+00 0.12828083862E+00 0.13911766201E+00 0.15922942549E+00 0.19192756478E+00
 0.24068449922E+00 0.30872341486E+00 0.39883502235E+00 0.51225292904E+00 0.64791758348E+00
 0.80207052338E+00 0.96727773756E+00 0.11320957900E+01 0.12825870958E+01 0.14043529442E+01
 0.14837698505E+01 0.15112650996E+01 0.14837722485E+01 0.14043565350E+01 0.12825926756E+01
 0.11321015515E+01 0.96728505765E+00 0.80207687182E+00 0.64792420269E+00 0.51225734515E+00
 0.39884024238E+00 0.30872683747E+00 0.24068523315E+00 0.19193332711E+00 0.15923193389E+00
 0.11102665767E+00 0.10121532736E+00 0.96390668630E-01 0.94560786483E-01 0.94196654817E-01
 0.94273921495E-01 0.94274196439E-01 0.94196870246E-01 0.94562386255E-01 0.96391995864E-01
 0.10121539345E+00 0.11102374154E+00 0.12828081228E+00 0.15580844666E+00 0.19676369223E+00
 0.25428231410E+00 0.33120355058E+00 0.42958163094E+00 0.54950741495E+00 0.68872210805E+00
 0.84200774511E+00 0.10005107091E+01 0.11519140470E+01 0.12825884944E+01 0.13792034697E+01
 0.14306231694E+01 0.14306247023E+01 0.13792078272E+01 0.12825927050E+01 0.11519194730E+01
 0.10005177914E+01 0.84201368803E+00 0.68872829023E+00 0.54951374046E+00 0.42958605926E+00
 0.33120740640E+00 0.25428696199E+00 0.19676466733E+00 0.15580849972E+00 0.12828537017E+00
 0.86881129748E-01 0.78398471032E-01 0.73825230588E-01 0.71640543317E-01 0.70764142944E-01
 0.70543571881E-01 0.70763395065E-01 0.71639609738E-01 0.73822411901E-01 0.78396493332E-01
 0.86879957064E-01 0.10121537164E+00 0.12376224905E+00 0.15718692236E+00 0.20440622557E+00
 0.26811000415E+00 0.35057798826E+00 0.45291070820E+00 0.57404954813E+00 0.71052658723E+00
 0.85590619299E+00 0.10005117437E+01 0.11320957954E+01 0.12379518489E+01 0.13069051786E+01
 0.13308627869E+01 0.13069056393E+01 0.12379546424E+01 0.11321016163E+01 0.10005178257E+01
 0.85591164916E+00 0.71053262336E+00 0.57405412944E+00 0.45291487744E+00 0.35058211275E+00
 0.26811244367E+00 0.20440961536E+00 0.15719005490E+00 0.12376248528E+00 0.10121429258E+00
 0.66816744509E-01 0.59777676336E-01 0.55788637067E-01 0.53739759100E-01 0.52896951115E-01
 0.52897397252E-01 0.53740011272E-01 0.55789591529E-01 0.59779041190E-01 0.66817146422E-01
 0.78396476002E-01 0.96391957382E-01 0.12301503534E+00 0.16072559637E+00 0.21206197630E+00
 0.27916594610E+00 0.36361612641E+00 0.46547604017E+00 0.58261421961E+00 0.71052621079E+00
 0.84200948993E+00 0.96728130760E+00 0.10750408768E+01 0.11542059991E+01 0.11962257643E+01
 0.11962266804E+01 0.11542096551E+01 0.10750449836E+01 0.96728515706E+00 0.84201375462E+00
 0.71053265495E+00 0.58261922666E+00 0.46548099285E+00 0.36362093651E+00 0.27916868843E+00
 0.21206405703E+00 0.16072709032E+00 0.12301750138E+00 0.96394300158E-01 0.78398123170E-01
 0.50659628474E-01 0.45033730159E-01 0.41785314641E-01 0.40146739137E-01 0.39648445962E-01
 0.40146293205E-01 0.41784190287E-01 0.45032320926E-01 0.50657624973E-01 0.59779027861E-01
 0.73822381916E-01 0.94562336613E-01 0.12400265609E+00 0.16431580536E+00 0.21756307791E+00
 0.28527271890E+00 0.36820832668E+00 0.46547606299E+00 0.57405141900E+00 0.68872329367E+00
 0.80207149119E+00 0.90490945775E+00 0.98745689911E+00 0.10410122159E+01 0.10595777924E+01
 0.10410144371E+01 0.98745854168E+00 0.90491304068E+00 0.80207699829E+00 0.68872838187E+00
 0.57405418558E+00 0.46548101753E+00 0.36821046515E+00 0.28527569962E+00 0.21756717546E+00
 0.16431724766E+00 0.12400349045E+00 0.94562915117E-01 0.73822590225E-01 0.59779953453E-01
 0.38019385718E-01 0.33675758274E-01 0.31212168256E-01 0.30107970733E-01 0.30108075180E-01
 0.31212545720E-01 0.33676677235E-01 0.38019825828E-01 0.45032311065E-01 0.55789568996E-01
 0.71639571948E-01 0.94196815088E-01 0.12521065831E+00 0.16648919578E+00 0.21955697567E+00
 0.28527201207E+00 0.36361744514E+00 0.45291044990E+00 0.54950996360E+00 0.64792101131E+00
 0.74104486301E+00 0.82081394501E+00 0.87935647793E+00 0.91037603897E+00 0.91037515407E+00
 0.87935763563E+00 0.82081749608E+00 0.74104831478E+00 0.64792434566E+00 0.54951384744E+00
 0.45291494916E+00 0.36362097744E+00 0.28527571641E+00 0.21955796332E+00 0.16649101593E+00
 0.12521391890E+00 0.94197608570E-01 0.71641240117E-01 0.55789964218E-01 0.45031787830E-01
 0.28394897319E-01 0.25166354258E-01 0.23441801995E-01 0.22903727173E-01 0.23441391365E-01
 0.25165672908E-01 0.28393413614E-01 0.33676670184E-01 0.41784173945E-01 0.53739983522E-01
 0.70763354135E-01 0.94274141280E-01 0.12572018432E+00 0.16648934884E+00 0.21756424408E+00
 0.27916591646E+00 0.35058096629E+00 0.42958176381E+00 0.51225467964E+00 0.59322917894E+00
 0.66615088641E+00 0.72439216944E+00 0.76206999082E+00 0.77511495258E+00 0.76207270258E+00
 0.72439477668E+00 0.66615316958E+00 0.59323116504E+00 0.51225749350E+00 0.42958617160E+00
 0.35058219089E+00 0.27916873729E+00 0.21756720158E+00 0.16649102598E+00 0.12572030629E+00
 0.94274827263E-01 0.70764441881E-01 0.53740049237E-01 0.41786010044E-01 0.33676867807E-01
 0.21266286681E-01 0.18966157596E-01 0.17904556127E-01 0.17905212864E-01 0.18965979820E-01
 0.21267394957E-01 0.25165668038E-01 0.31212534297E-01 0.40146273590E-01 0.52897368068E-01
 0.70543532274E-01 0.94273871456E-01 0.12521111709E+00 0.16431507760E+00 0.21206412150E+00
 0.26810845389E+00 0.33120665050E+00 0.39883841514E+00 0.46713402415E+00 0.53120048463E+00
 0.58567283678E+00 0.62543481312E+00 0.64643843195E+00 0.64643815815E+00 0.62543428095E+00
 0.58567322482E+00 0.53120369938E+00 0.46713889550E+00 0.39884038606E+00 0.33120751505E+00
 0.26811252027E+00 0.21206410688E+00 0.16431727682E+00 0.12521393339E+00 0.94274832381E-01
 0.70544690317E-01 0.52897599700E-01 0.40146297849E-01 0.31212307349E-01 0.25165775861E-01
 0.16144118782E-01 0.14600538946E-01 0.14109406061E-01 0.14600185001E-01 0.16143566747E-01
 0.18965976591E-01 0.23441383679E-01 0.30108061851E-01 0.39648426000E-01 0.52896923916E-01
 0.70764108591E-01 0.94196614382E-01 0.12400482829E+00 0.16072422999E+00 0.20441000812E+00
 0.25428275909E+00 0.30872377668E+00 0.36513183556E+00 0.41992823863E+00 0.46889718326E+00
 0.50775318071E+00 0.53277215337E+00 0.54141398828E+00 0.53277367504E+00 0.50775633473E+00
 0.46889977915E+00 0.41992773153E+00 0.36513117993E+00 0.30872696825E+00 0.25428706010E+00
 0.20440968460E+00 0.16072713584E+00 0.12400351788E+00 0.94197623302E-01 0.70764448452E-01
 0.52897601693E-01 0.39649588827E-01 0.30108248768E-01 0.23442022450E-01 0.18966561511E-01
 0.12607020181E-01 0.11673493406E-01 0.11673549857E-01 0.12607477792E-01 0.14600182952E-01
 0.17905207903E-01 0.22903718493E-01 0.30107957684E-01 0.40146721398E-01 0.53739736869E-01
 0.71640517619E-01 0.94560759336E-01 0.12301784670E+00 0.15718570129E+00 0.19676538983E+00
 0.24068845658E+00 0.28711474414E+00 0.33349246398E+00 0.37664443670E+00 0.41309882775E+00
 0.43957598944E+00 0.45351679448E+00 0.45351601886E+00 0.43957578262E+00 0.41309770776E+00
 0.37664575712E+00 0.33349628569E+00 0.28711942919E+00 0.24068534572E+00 0.19676475043E+00
 0.15719011265E+00 0.12301753890E+00 0.94562937614E-01 0.71641252204E-01 0.53740054756E-01
 0.40146299720E-01 0.30108249051E-01 0.22903791376E-01 0.17904813950E-01 0.14600164737E-01
 0.10320825292E-01 0.98881921790E-02 0.10320453560E-01 0.11673548636E-01 0.14109403029E-01
 0.17904550751E-01 0.23441793902E-01 0.31212157349E-01 0.41785301285E-01 0.55788622256E-01
 0.73825216203E-01 0.96390657577E-01 0.12376492450E+00 0.15580986293E+00 0.19192648035E+00
 0.23088046577E+00 0.27073827081E+00 0.30903359925E+00 0.34297589662E+00 0.36975042522E+00
 0.38692338002E+00 0.39284393876E+00 0.38692474575E+00 0.36975153642E+00 0.34297783181E+00
 0.30903423574E+00 0.27073525842E+00 0.23088069127E+00 0.19193341815E+00 0.15580856484E+00
 0.12376252911E+00 0.96394327579E-01 0.73822605824E-01 0.55789971948E-01 0.41786013026E-01
 0.31212307867E-01 0.23442022043E-01 0.17904813531E-01 0.14109743098E-01 0.11673642949E-01
 0.90446108947E-02 0.90447011987E-02 0.98881915441E-02 0.11673491707E-01 0.14600535833E-01
 0.18966152873E-01 0.25166348010E-01 0.33675750979E-01 0.45033722873E-01 0.59777670830E-01
 0.78398469982E-01 0.10121533436E+00 0.12828099559E+00 0.15923457940E+00 0.19320735963E+00
 0.22879362106E+00 0.26402343451E+00 0.29652476578E+00 0.32378639959E+00 0.34349060922E+00
 0.35383563625E+00 0.35383536742E+00 0.34349006513E+00 0.32378680437E+00 0.29652387059E+00
 0.26402536511E+00 0.22879628015E+00 0.19320577729E+00 0.15923200147E+00 0.12828541602E+00
 0.10121432138E+00 0.78398139464E-01 0.59779961266E-01 0.45031790405E-01 0.33676867564E-01
 0.25165774479E-01 0.18966560020E-01 0.14600163674E-01 0.11673642468E-01 0.98879991095E-02
 0.90911046584E-02 0.95305957977E-02 0.10901925440E-01 0.13365418914E-01 0.17188717400E-01
 0.22747895405E-01 0.30520394384E-01 0.41065491305E-01 0.54990783870E-01 0.72882859256E-01
 0.95223218413E-01 0.12226842009E+00 0.15389168294E+00 0.18946355162E+00 0.22777866949E+00
 0.26696220648E+00 0.30457930377E+00 0.33788250220E+00 0.36412644575E+00 0.38095100730E+00
 0.38674938462E+00 0.38095134466E+00 0.36412621601E+00 0.33788237846E+00 0.30457912859E+00