       N       E                     dE             d eps       ncg     rms          rms(c)
DAV:   1     0.567375859913E+02    0.56738E+02   -0.58116E+03  5890   0.842E+02
DAV:   2    -0.851051493233E+01   -0.65248E+02   -0.60397E+02  5526   0.172E+02
DAV:   3    -0.101049206919E+02   -0.15944E+01   -0.15714E+01  6176   0.327E+01
DAV:   4    -0.101261240919E+02   -0.21203E-01   -0.21198E-01  6610   0.327E+00
DAV:   5    -0.101266965240E+02   -0.57243E-03   -0.57242E-03  6234   0.501E-01    0.239E+01
DAV:   6    -0.114129910853E+02   -0.12863E+01   -0.82288E+00  5864   0.527E+01    0.536E+00
DAV:   7    -0.112042938026E+02    0.20870E+00   -0.11381E+00  6100   0.185E+01    0.307E+00
DAV:   8    -0.111761478431E+02    0.28146E-01   -0.27720E-02  7464   0.233E+00    0.142E+00
DAV:   9    -0.111676997764E+02    0.84481E-02   -0.22631E-03  8152   0.604E-01    0.704E-01
DAV:  10    -0.111640992225E+02    0.36006E-02   -0.47181E-04  6882   0.216E-01    0.782E-02
DAV:  11    -0.111641335151E+02   -0.34293E-04   -0.81823E-05  7404   0.129E-01    0.325E-02
DAV:  12    -0.111641281297E+02    0.53854E-05   -0.64403E-06  6444   0.278E-02    0.171E-02
DAV:  13    -0.111641245916E+02    0.35381E-05   -0.62154E-07  3470   0.102E-02    0.561E-03
DAV:  14    -0.111641248261E+02   -0.23452E-06   -0.36780E-07  3000   0.537E-03
   1 F= -.11164125E+02 E0= -.11145412E+02  d E =-.374253E-01  mag=     3.2375
