 vasp.5.4.4.18Apr17-6-g9f103f2a35 (build Apr 28 2018 00:24:27) complex          
  
 executed on             LinuxIFC date 2021.03.19  19:37:15
 running on    8 total cores
 distrk:  each k-point on    8 cores,    1 groups
 distr:  one band on NCORES_PER_BAND=   1 cores,    8 groups


--------------------------------------------------------------------------------------------------------


 INCAR:
 POTCAR:    PAW_PBE Ni 02Aug2007                  

 ----------------------------------------------------------------------------- 
|                                                                             |
|           W    W    AA    RRRRR   N    N  II  N    N   GGGG   !!!           |
|           W    W   A  A   R    R  NN   N  II  NN   N  G    G  !!!           |
|           W    W  A    A  R    R  N N  N  II  N N  N  G       !!!           |
|           W WW W  AAAAAA  RRRRR   N  N N  II  N  N N  G  GGG   !            |
|           WW  WW  A    A  R   R   N   NN  II  N   NN  G    G                |
|           W    W  A    A  R    R  N    N  II  N    N   GGGG   !!!           |
|                                                                             |
|      For optimal performance we recommend to set                            |
|        NCORE= 4 - approx SQRT( number of cores)                             |
|      NCORE specifies how many cores store one orbital (NPAR=cpu/NCORE).     |
|      This setting can  greatly improve the performance of VASP for DFT.     |
|      The default,   NCORE=1            might be grossly inefficient         |
|      on modern multi-core architectures or massively parallel machines.     |
|      Do your own testing !!!!                                               |
|      Unfortunately you need to use the default for GW and RPA calculations. |
|      (for HF NCORE is supported but not extensively tested yet)             |
|                                                                             |
 ----------------------------------------------------------------------------- 

 POTCAR:    PAW_PBE Ni 02Aug2007                  
   SHA256 =  0534bc51ca8003dfef23f56753fef9fdd3e22eac8d719fccacb59f3e6b7a69c7 Ni
   COPYR  = (c) Copyright 02Aug2007 Georg Kresse                                
   COPYR  = This file is part of the software VASP. Any use, copying, and all ot
   COPYR  = If you do not have a valid VASP license, you may not use, copy or di
   VRHFIN =Ni:                                                                  
   LEXCH  = PE                                                                  
   EATOM  =  1077.6739 eV,   79.2068 Ry                                         
                                                                                
   TITEL  = PAW_PBE Ni 02Aug2007                                                
   LULTRA =        F    use ultrasoft PP ?                                      
   IUNSCR =        1    unscreen: 0-lin 1-nonlin 2-no                           
   RPACOR =    2.000    partial core radius                                     
   POMASS =   58.690; ZVAL   =   10.000    mass and valenz                      
   RCORE  =    2.300    outmost cutoff radius                                   
   RWIGS  =    2.430; RWIGS  =    1.286    wigner-seitz radius (au A)           
   ENMAX  =  269.532; ENMIN  =  202.149 eV                                      
   RCLOC  =    1.201    cutoff for local pot                                    
   LCOR   =        T    correct aug charges                                     
   LPAW   =        T    paw PP                                                  
   EAUG   =  544.565                                                            
   DEXC   =    0.000                                                            
   RMAX   =    2.357    core radius for proj-oper                               
   RAUG   =    1.300    factor for augmentation sphere                          
   RDEP   =    2.390    radius for radial grids                                 
   RDEPT  =    1.838    core radius for aug-charge                              
                                                                                
   Atomic configuration                                                         
    9 entries                                                                   
     n  l   j            E        occ.                                          
     1  0  0.50     -8206.4253   2.0000                                         
     2  0  0.50      -976.1748   2.0000                                         
     2  1  1.50      -839.0571   6.0000                                         
     3  0  0.50      -105.9991   2.0000                                         
     3  1  1.50       -66.4603   6.0000                                         
     3  2  2.50        -4.6458   9.0000                                         
     4  0  0.50        -4.4926   1.0000                                         
     4  1  1.50        -4.0817   0.0000                                         
     4  3  2.50        -1.3606   0.0000                                         
   Description                                                                  
     l       E           TYP  RCUT    TYP  RCUT                                 
     2     -4.6457903     23  2.300                                             
     2     -6.0063729     23  2.300                                             
     0     -4.4925590     23  2.300                                             
     0      5.0102601     23  2.300                                             
     1     -2.7211652     23  2.300                                             
     1     16.5183231     23  2.300                                             
  local pseudopotential read in
  partial core-charges read in
  partial kinetic energy density read in
  atomic valenz-charges read in
  non local Contribution for L=           2  read in
    real space projection operators read in
  non local Contribution for L=           2  read in
    real space projection operators read in
  non local Contribution for L=           0  read in
    real space projection operators read in
  non local Contribution for L=           0  read in
    real space projection operators read in
  non local Contribution for L=           1  read in
    real space projection operators read in
  non local Contribution for L=           1  read in
    real space projection operators read in
    PAW grid and wavefunctions read in
 
   number of l-projection  operators is LMAX  =           6
   number of lm-projection operators is LMMAX =          18
 
  PAW_PBE Ni 02Aug2007                  :
 energy of atom  1       EATOM=-1077.6739
 kinetic energy error for atom=    0.0030 (will be added to EATOM!!)
 
 
 POSCAR: Ni1 str #: 1                            
  positions in direct lattice
  No initial velocities read in
 exchange correlation table for  LEXCH =        8
   RHO(1)=    0.500       N(1)  =     2000
   RHO(2)=  100.500       N(2)  =     4000
 


--------------------------------------------------------------------------------------------------------


 ion  position               nearest neighbor table
   1  0.000  0.000  0.000-   2 2.48   2 2.48   2 2.48   2 2.48   2 2.48   2 2.48
   2  0.000  0.500  0.500-   1 2.48   1 2.48   1 2.48   1 2.48   1 2.48   1 2.48
 
  LATTYP: Found a trigonal (rhomboedric) cell.
 ALAT       =     4.2897703036
 COS(alpha) =     0.8333333283
  
  Lattice vectors:
  
 A1 = (   1.2383501000,   0.7149617400,  -4.0444342000)
 A2 = (   0.0000001000,  -1.4299234600,  -4.0444342000)
 A3 = (  -1.2383500000,   0.7149617400,  -4.0444342000)


Analysis of symmetry for initial positions (statically):
=====================================================================
 Subroutine PRICEL returns following result:
 
  LATTYP: Found a face centered cubic cell.
 ALAT       =     3.5025828309
  
  Lattice vectors:
  
 A1 = (   1.2383500000,   2.1448852000,  -0.0000000000)
 A2 = (   0.0000000000,   1.4299234700,  -2.0222171000)
 A3 = (  -1.2383501000,   2.1448852000,  -0.0000000000)
 
   2 primitive cells build up your supercell.
 

 Routine SETGRP: Setting up the symmetry group for a 
 trigonal (rhombohedral) supercell.


 Subroutine GETGRP returns: Found 12 space group operations
 (whereof 12 operations were pure point group operations)
 out of a pool of 12 trial point group operations.


The static configuration has the point symmetry D_3d.


Analysis of symmetry for dynamics (positions and initial velocities):
=====================================================================
 Subroutine PRICEL returns following result:
 
  LATTYP: Found a face centered cubic cell.
 ALAT       =     3.5025828309
  
  Lattice vectors:
  
 A1 = (   1.2383500000,   2.1448852000,  -0.0000000000)
 A2 = (   0.0000000000,   1.4299234700,  -2.0222171000)
 A3 = (  -1.2383501000,   2.1448852000,  -0.0000000000)
 
   2 primitive cells build up your supercell.
 

 Routine SETGRP: Setting up the symmetry group for a 
 trigonal (rhombohedral) supercell.


 Subroutine GETGRP returns: Found 12 space group operations
 (whereof 12 operations were pure point group operations)
 out of a pool of 12 trial point group operations.


The dynamic configuration has the point symmetry D_3d.


Analysis of structural, dynamic, and magnetic symmetry:
=====================================================================
 Subroutine PRICEL returns following result:
 
  LATTYP: Found a face centered cubic cell.
 ALAT       =     3.5025828309
  
  Lattice vectors:
  
 A1 = (   1.2383500000,   2.1448852000,  -0.0000000000)
 A2 = (   0.0000000000,   1.4299234700,  -2.0222171000)
 A3 = (  -1.2383501000,   2.1448852000,  -0.0000000000)
 
   2 primitive cells build up your supercell.
 

 Routine SETGRP: Setting up the symmetry group for a 
 trigonal (rhombohedral) supercell.


 Subroutine GETGRP returns: Found 12 space group operations
 (whereof 12 operations were pure point group operations)
 out of a pool of 12 trial point group operations.


The magnetic configuration has the point symmetry D_3d.


 Subroutine INISYM returns: Found 12 space group operations
 (whereof 12 operations are pure point group operations),
 and found     2 'primitive' translations

 
 
 KPOINTS: k-points                                

Automatic generation of k-mesh.
Space group operators:
 irot       det(A)        alpha          n_x          n_y          n_z        tau_x        tau_y        tau_z
    1     1.000000     0.000001     1.000000     0.000000     0.000000     0.000000     0.000000     0.000000
    2    -1.000000     0.000001     1.000000     0.000000     0.000000     0.000000     0.000000     0.000000
    3     1.000000   180.000000    -0.500000     0.866025    -0.000000     0.000000     0.000000     0.000000
    4    -1.000000   180.000000    -0.500000     0.866025    -0.000000     0.000000     0.000000     0.000000
    5     1.000000   120.000000    -0.000000     0.000000     1.000000     0.000000     0.000000     0.000000
    6    -1.000000   120.000000    -0.000000     0.000000     1.000000     0.000000     0.000000     0.000000
    7     1.000000   180.000000     0.500000     0.866025     0.000000     0.000000     0.000000     0.000000
    8    -1.000000   180.000000     0.500000     0.866025     0.000000     0.000000     0.000000     0.000000
    9     1.000000   120.000000     0.000000     0.000000    -1.000000     0.000000     0.000000     0.000000
   10    -1.000000   120.000000     0.000000     0.000000    -1.000000     0.000000     0.000000     0.000000
   11     1.000000   180.000000     1.000000     0.000000     0.000000     0.000000     0.000000     0.000000
   12    -1.000000   180.000000     1.000000     0.000000     0.000000     0.000000     0.000000     0.000000
 
 Subroutine IBZKPT returns following result:
 ===========================================
 
 Found    146 irreducible k-points:
 
 Following reciprocal coordinates:
            Coordinates               Weight
  0.000000  0.000000  0.000000      1.000000
  0.090909  0.000000  0.000000      6.000000
  0.181818  0.000000  0.000000      6.000000
  0.272727  0.000000 -0.000000      6.000000
  0.363636  0.000000  0.000000      6.000000
  0.454545  0.000000  0.000000      6.000000
  0.000000  0.090909 -0.000000      6.000000
  0.181818  0.090909  0.000000     12.000000
  0.272727  0.090909 -0.000000     12.000000
  0.363636  0.090909  0.000000     12.000000
  0.454545  0.090909  0.000000     12.000000
 -0.454545  0.090909 -0.000000      6.000000
  0.000000  0.181818 -0.000000      6.000000
  0.090909  0.181818 -0.000000      6.000000
  0.272727  0.181818 -0.000000     12.000000
  0.363636  0.181818  0.000000     12.000000
  0.454545  0.181818  0.000000     12.000000
 -0.454545  0.181818  0.000000     12.000000
  0.000000  0.272727 -0.000000      6.000000
  0.090909  0.272727 -0.000000     12.000000
  0.363636  0.272727  0.000000     12.000000
  0.454545  0.272727  0.000000     12.000000
 -0.454545  0.272727  0.000000     12.000000
 -0.363636  0.272727 -0.000000      6.000000
  0.000000  0.363636 -0.000000      6.000000
  0.090909  0.363636  0.000000     12.000000
  0.181818  0.363636 -0.000000      6.000000
  0.454545  0.363636  0.000000     12.000000
 -0.454545  0.363636 -0.000000     12.000000
 -0.363636  0.363636 -0.000000     12.000000
  0.000000  0.454545 -0.000000      6.000000
  0.090909  0.454545  0.000000     12.000000
  0.181818  0.454545 -0.000000     12.000000
 -0.454545  0.454545 -0.000000     12.000000
 -0.363636  0.454545  0.000000     12.000000
 -0.272727  0.454545  0.000000      6.000000
  0.000000  0.000000  0.090909      2.000000
  0.181818  0.000000  0.090909      6.000000
  0.272727  0.000000  0.090909      6.000000
  0.363636  0.000000  0.090909      6.000000
  0.454545  0.000000  0.090909      6.000000
 -0.454545 -0.000000  0.090909      6.000000
 -0.363636 -0.000000  0.090909      6.000000
 -0.272727 -0.000000  0.090909      6.000000
 -0.181818 -0.000000  0.090909      6.000000
 -0.090909 -0.000000  0.090909      6.000000
  0.000000  0.090909  0.090909      6.000000
  0.272727  0.090909  0.090909     12.000000
  0.363636  0.090909  0.090909     12.000000
  0.454545  0.090909  0.090909     12.000000
 -0.454545  0.090909  0.090909     12.000000
 -0.363636  0.090909  0.090909     12.000000
 -0.272727  0.090909  0.090909     12.000000
 -0.181818  0.090909  0.090909     12.000000
 -0.090909  0.090909  0.090909     12.000000
  0.000000  0.181818  0.090909      6.000000
  0.363636  0.181818  0.090909     12.000000
  0.454545  0.181818  0.090909     12.000000
 -0.454545  0.181818  0.090909     12.000000
 -0.363636  0.181818  0.090909     12.000000
 -0.272727  0.181818  0.090909     12.000000
 -0.181818  0.181818  0.090909     12.000000
 -0.090909  0.181818  0.090909     12.000000
  0.000000  0.272727  0.090909      6.000000
  0.272727  0.272727  0.090909      6.000000
  0.454545  0.272727  0.090909     12.000000
 -0.454545  0.272727  0.090909     12.000000
 -0.363636  0.272727  0.090909     12.000000
 -0.272727  0.272727  0.090909     12.000000
 -0.181818  0.272727  0.090909     12.000000
 -0.090909  0.272727  0.090909     12.000000
  0.000000  0.363636  0.090909      6.000000
  0.272727  0.363636  0.090909     12.000000
  0.363636  0.363636  0.090909      6.000000
 -0.454545  0.363636  0.090909     12.000000
 -0.363636  0.363636  0.090909     12.000000
 -0.272727  0.363636  0.090909     12.000000
 -0.181818  0.363636  0.090909     12.000000
 -0.090909  0.363636  0.090909     12.000000
  0.000000  0.454545  0.090909      6.000000
  0.272727  0.454545  0.090909     12.000000
  0.363636  0.454545  0.090909     12.000000
  0.454545  0.454545  0.090909      6.000000
 -0.272727  0.454545  0.090909     12.000000
 -0.181818  0.454545  0.090909     12.000000
 -0.090909  0.454545  0.090909     12.000000
  0.000000  0.000000  0.181818      2.000000
  0.363636  0.000000  0.181818      6.000000
  0.454545  0.000000  0.181818      6.000000
 -0.454545 -0.000000  0.181818      6.000000
 -0.363636 -0.000000  0.181818      6.000000
 -0.272727 -0.000000  0.181818      6.000000
 -0.181818 -0.000000  0.181818      6.000000
 -0.090909 -0.000000  0.181818      6.000000
  0.000000  0.090909  0.181818      6.000000
  0.454545  0.090909  0.181818     12.000000
 -0.454545  0.090909  0.181818     12.000000
 -0.363636  0.090909  0.181818     12.000000
 -0.272727  0.090909  0.181818     12.000000
 -0.181818  0.090909  0.181818     12.000000
 -0.090909  0.090909  0.181818     12.000000
  0.000000  0.181818  0.181818      6.000000
 -0.454545  0.181818  0.181818     12.000000
 -0.363636  0.181818  0.181818     12.000000
 -0.272727  0.181818  0.181818     12.000000
 -0.181818  0.181818  0.181818     12.000000
 -0.090909  0.181818  0.181818     12.000000
  0.000000  0.272727  0.181818      6.000000
 -0.363636  0.272727  0.181818     12.000000
 -0.272727  0.272727  0.181818     12.000000
 -0.181818  0.272727  0.181818     12.000000
 -0.090909  0.272727  0.181818     12.000000
  0.000000  0.363636  0.181818      6.000000
 -0.181818  0.363636  0.181818     12.000000
 -0.090909  0.363636  0.181818     12.000000
  0.000000  0.454545  0.181818      6.000000
  0.454545  0.454545  0.181818      6.000000
 -0.090909  0.454545  0.181818     12.000000
  0.000000  0.000000  0.272727      2.000000
 -0.454545 -0.000000  0.272727      6.000000
 -0.363636 -0.000000  0.272727      6.000000
 -0.272727 -0.000000  0.272727      6.000000
 -0.181818 -0.000000  0.272727      6.000000
 -0.090909 -0.000000  0.272727      6.000000
  0.000000  0.090909  0.272727      6.000000
 -0.363636  0.090909  0.272727     12.000000
 -0.272727  0.090909  0.272727     12.000000
 -0.181818  0.090909  0.272727     12.000000
 -0.090909  0.090909  0.272727     12.000000
  0.000000  0.181818  0.272727      6.000000
 -0.272727  0.181818  0.272727     12.000000
 -0.181818  0.181818  0.272727     12.000000
 -0.090909  0.181818  0.272727     12.000000
  0.000000  0.272727  0.272727      6.000000
 -0.090909  0.272727  0.272727     12.000000
  0.000000  0.363636  0.272727      6.000000
  0.000000  0.000000  0.363636      2.000000
 -0.272727 -0.000000  0.363636      6.000000
 -0.181818 -0.000000  0.363636      6.000000
 -0.090909 -0.000000  0.363636      6.000000
  0.000000  0.090909  0.363636      6.000000
 -0.181818  0.090909  0.363636     12.000000
 -0.090909  0.090909  0.363636     12.000000
  0.000000  0.181818  0.363636      6.000000
  0.000000  0.000000  0.454545      2.000000
 -0.090909 -0.000000  0.454545      6.000000
 
 Following cartesian coordinates:
            Coordinates               Weight
  0.000000  0.000000  0.000000      1.000000
  0.036706 -0.021192 -0.014985      6.000000
  0.073411 -0.042384 -0.029970      6.000000
  0.110117 -0.063576 -0.044955      6.000000
  0.146823 -0.084768 -0.059940      6.000000
  0.183529 -0.105960 -0.074925      6.000000
  0.000000  0.042384  0.007493      6.000000
  0.073411  0.000000 -0.022478     12.000000
  0.110117 -0.021192 -0.037463     12.000000
  0.146823 -0.042384 -0.052448     12.000000
  0.183529 -0.063576 -0.067433     12.000000
 -0.183529  0.148344  0.082418      6.000000
  0.000000  0.084768  0.014985      6.000000
  0.036706  0.063576  0.000000      6.000000
  0.110117  0.021192 -0.029970     12.000000
  0.146823  0.000000 -0.044955     12.000000
  0.183529 -0.021192 -0.059940     12.000000
 -0.183529  0.190729  0.089910     12.000000
  0.000000  0.127152  0.022478      6.000000
  0.036706  0.105960  0.007493     12.000000
  0.146823  0.042384 -0.037463     12.000000
  0.183529  0.021192 -0.052448     12.000000
 -0.183529  0.233113  0.097403     12.000000
 -0.146823  0.211921  0.082418      6.000000
  0.000000  0.169537  0.029970      6.000000
  0.036706  0.148344  0.014985     12.000000
  0.073411  0.127152  0.000000      6.000000
  0.183529  0.063576 -0.044955     12.000000
 -0.183529  0.275497  0.104895     12.000000
 -0.146823  0.254305  0.089910     12.000000
  0.000000  0.211921  0.037463      6.000000
  0.036706  0.190729  0.022478     12.000000
  0.073411  0.169537  0.007493     12.000000
 -0.183529  0.317881  0.112388     12.000000
 -0.146823  0.296689  0.097403     12.000000
 -0.110117  0.275497  0.082418      6.000000
  0.000000  0.000000  0.022478      2.000000
  0.073411 -0.042384 -0.007493      6.000000
  0.110117 -0.063576 -0.022478      6.000000
  0.146823 -0.084768 -0.037463      6.000000
  0.183529 -0.105960 -0.052448      6.000000
 -0.183529  0.105960  0.097403      6.000000
 -0.146823  0.084768  0.082418      6.000000
 -0.110117  0.063576  0.067433      6.000000
 -0.073411  0.042384  0.052448      6.000000
 -0.036706  0.021192  0.037463      6.000000
  0.000000  0.042384  0.029970      6.000000
  0.110117 -0.021192 -0.014985     12.000000
  0.146823 -0.042384 -0.029970     12.000000
  0.183529 -0.063576 -0.044955     12.000000
 -0.183529  0.148344  0.104895     12.000000
 -0.146823  0.127152  0.089910     12.000000
 -0.110117  0.105960  0.074925     12.000000
 -0.073411  0.084768  0.059940     12.000000
 -0.036706  0.063576  0.044955     12.000000
  0.000000  0.084768  0.037463      6.000000
  0.146823  0.000000 -0.022478     12.000000
  0.183529 -0.021192 -0.037463     12.000000
 -0.183529  0.190729  0.112388     12.000000
 -0.146823  0.169537  0.097403     12.000000
 -0.110117  0.148344  0.082418     12.000000
 -0.073411  0.127152  0.067433     12.000000
 -0.036706  0.105960  0.052448     12.000000
  0.000000  0.127152  0.044955      6.000000
  0.110117  0.063576  0.000000      6.000000
  0.183529  0.021192 -0.029970     12.000000
 -0.183529  0.233113  0.119880     12.000000
 -0.146823  0.211921  0.104895     12.000000
 -0.110117  0.190729  0.089910     12.000000
 -0.073411  0.169537  0.074925     12.000000
 -0.036706  0.148344  0.059940     12.000000
  0.000000  0.169537  0.052448      6.000000
  0.110117  0.105960  0.007493     12.000000
  0.146823  0.084768 -0.007493      6.000000
 -0.183529  0.275497  0.127373     12.000000
 -0.146823  0.254305  0.112388     12.000000
 -0.110117  0.233113  0.097403     12.000000
 -0.073411  0.211921  0.082418     12.000000
 -0.036706  0.190729  0.067433     12.000000
  0.000000  0.211921  0.059940      6.000000
  0.110117  0.148344  0.014985     12.000000
  0.146823  0.127152  0.000000     12.000000
  0.183529  0.105960 -0.014985      6.000000
 -0.110117  0.275497  0.104895     12.000000
 -0.073411  0.254305  0.089910     12.000000
 -0.036706  0.233113  0.074925     12.000000
  0.000000  0.000000  0.044955      2.000000
  0.146823 -0.084768 -0.014985      6.000000
  0.183529 -0.105960 -0.029970      6.000000
 -0.183529  0.105960  0.119880      6.000000
 -0.146823  0.084768  0.104895      6.000000
 -0.110117  0.063576  0.089910      6.000000
 -0.073411  0.042384  0.074925      6.000000
 -0.036706  0.021192  0.059940      6.000000
  0.000000  0.042384  0.052448      6.000000
  0.183529 -0.063576 -0.022478     12.000000
 -0.183529  0.148344  0.127373     12.000000
 -0.146823  0.127152  0.112388     12.000000
 -0.110117  0.105960  0.097403     12.000000
 -0.073411  0.084768  0.082418     12.000000
 -0.036706  0.063576  0.067433     12.000000
  0.000000  0.084768  0.059940      6.000000
 -0.183529  0.190729  0.134865     12.000000
 -0.146823  0.169537  0.119880     12.000000
 -0.110117  0.148344  0.104895     12.000000
 -0.073411  0.127152  0.089910     12.000000
 -0.036706  0.105960  0.074925     12.000000
  0.000000  0.127152  0.067433      6.000000
 -0.146823  0.211921  0.127373     12.000000
 -0.110117  0.190729  0.112388     12.000000
 -0.073411  0.169537  0.097403     12.000000
 -0.036706  0.148344  0.082418     12.000000
  0.000000  0.169537  0.074925      6.000000
 -0.073411  0.211921  0.104895     12.000000
 -0.036706  0.190729  0.089910     12.000000
  0.000000  0.211921  0.082418      6.000000
  0.183529  0.105960  0.007493      6.000000
 -0.036706  0.233113  0.097403     12.000000
  0.000000  0.000000  0.067433      2.000000
 -0.183529  0.105960  0.142358      6.000000
 -0.146823  0.084768  0.127373      6.000000
 -0.110117  0.063576  0.112388      6.000000
 -0.073411  0.042384  0.097403      6.000000
 -0.036706  0.021192  0.082418      6.000000
  0.000000  0.042384  0.074925      6.000000
 -0.146823  0.127152  0.134865     12.000000
 -0.110117  0.105960  0.119880     12.000000
 -0.073411  0.084768  0.104895     12.000000
 -0.036706  0.063576  0.089910     12.000000
  0.000000  0.084768  0.082418      6.000000
 -0.110117  0.148344  0.127373     12.000000
 -0.073411  0.127152  0.112388     12.000000
 -0.036706  0.105960  0.097403     12.000000
  0.000000  0.127152  0.089910      6.000000
 -0.036706  0.148344  0.104895     12.000000
  0.000000  0.169537  0.097403      6.000000
  0.000000  0.000000  0.089910      2.000000
 -0.110117  0.063576  0.134865      6.000000
 -0.073411  0.042384  0.119880      6.000000
 -0.036706  0.021192  0.104895      6.000000
  0.000000  0.042384  0.097403      6.000000
 -0.073411  0.084768  0.127373     12.000000
 -0.036706  0.063576  0.112388     12.000000
  0.000000  0.084768  0.104895      6.000000
  0.000000  0.000000  0.112388      2.000000
 -0.036706  0.021192  0.127373      6.000000
 


--------------------------------------------------------------------------------------------------------




 Dimension of arrays:
   k-points           NKPTS =    146   k-points in BZ     NKDIM =    146   number of bands    NBANDS=     16
   number of dos      NEDOS =    301   number of ions     NIONS =      2
   non local maximal  LDIM  =      6   non local SUM 2l+1 LMDIM =     18
   total plane-waves  NPLWV =  10368
   max r-space proj   IRMAX =      1   max aug-charges    IRDMAX=  15840
   dimension x,y,z NGX =    18 NGY =   18 NGZ =   32
   dimension x,y,z NGXF=    36 NGYF=   36 NGZF=   64
   support grid    NGXF=    36 NGYF=   36 NGZF=   64
   ions per type =               2
   NGX,Y,Z   is equivalent  to a cutoff of  12.08, 12.08, 12.40 a.u.
   NGXF,Y,Z  is equivalent  to a cutoff of  24.16, 24.16, 24.80 a.u.

 SYSTEM =  unknown system                          
 POSCAR =  Ni1 str #: 1                            

 Startparameter for this run:
   NWRITE =      2    write-flag & timer
   PREC   = accura    normal or accurate (medium, high low for compatibility)
   ISTART =      0    job   : 0-new  1-cont  2-samecut
   ICHARG =      2    charge: 1-file 2-atom 10-const
   ISPIN  =      2    spin polarized calculation?
   LNONCOLLINEAR =      F non collinear calculations
   LSORBIT =      F    spin-orbit coupling
   INIWAV =      1    electr: 0-lowe 1-rand  2-diag
   LASPH  =      T    aspherical Exc in radial PAW
   METAGGA=      F    non-selfconsistent MetaGGA calc.

 Electronic Relaxation 1
   ENCUT  =  520.0 eV  38.22 Ry    6.18 a.u.   4.61  4.61  7.98*2*pi/ulx,y,z
   ENINI  =  520.0     initial cutoff
   ENAUG  =  544.6 eV  augmentation charge cutoff
   NELM   =     60;   NELMIN=  2; NELMDL= -5     # of ELM steps 
   EDIFF  = 0.1E-05   stopping-criterion for ELM
   LREAL  =      F    real-space projection
   NLSPLINE    = F    spline interpolate recip. space projectors
   LCOMPAT=      F    compatible to vasp.4.4
   GGA_COMPAT  = T    GGA compatible to vasp.4.4-vasp.4.6
   LMAXPAW     = -100 max onsite density
   LMAXMIX     =    2 max onsite mixed and CHGCAR
   VOSKOWN=      0    Vosko Wilk Nusair interpolation
   ROPT   =    0.00000
 Ionic relaxation
   EDIFFG = 0.1E-04   stopping-criterion for IOM
   NSW    =      0    number of steps for IOM
   NBLOCK =      1;   KBLOCK =      1    inner block; outer block 
   IBRION =     -1    ionic relax: 0-MD 1-quasi-New 2-CG
   NFREE  =      1    steps in history (QN), initial steepest desc. (CG)
   ISIF   =      2    stress and relaxation
   IWAVPR =     10    prediction:  0-non 1-charg 2-wave 3-comb
   ISYM   =      2    0-nonsym 1-usesym 2-fastsym
   LCORR  =      T    Harris-Foulkes like correction to forces

   POTIM  = 0.5000    time-step for ionic-motion
   TEIN   =    0.0    initial temperature
   TEBEG  =    0.0;   TEEND  =   0.0 temperature during run
   SMASS  =  -3.00    Nose mass-parameter (am)
   estimated Nose-frequenzy (Omega)   =  0.10E-29 period in steps =****** mass=  -0.140E-27a.u.
   SCALEE = 1.0000    scale energy and forces
   NPACO  =    256;   APACO  = 16.0  distance and # of slots for P.C.
   PSTRESS=    0.0 pullay stress

  Mass of Ions in am
   POMASS =  58.69
  Ionic Valenz
   ZVAL   =  10.00
  Atomic Wigner-Seitz radii
   RWIGS  =  -1.00
  virtual crystal weights 
   VCA    =   1.00
   NELECT =      20.0000    total number of electrons
   NUPDOWN=      -1.0000    fix difference up-down

 DOS related values:
   EMIN   =  10.00;   EMAX   =-10.00  energy-range for DOS
   EFERMI =   0.00
   ISMEAR =     1;   SIGMA  =   0.20  broadening in eV -4-tet -1-fermi 0-gaus

 Electronic relaxation 2 (details)
   IALGO  =     38    algorithm
   LDIAG  =      T    sub-space diagonalisation (order eigenvalues)
   LSUBROT=      F    optimize rotation matrix (better conditioning)
   TURBO    =      0    0=normal 1=particle mesh
   IRESTART =      0    0=no restart 2=restart with 2 vectors
   NREBOOT  =      0    no. of reboots
   NMIN     =      0    reboot dimension
   EREF     =   0.00    reference energy to select bands
   IMIX   =      4    mixing-type and parameters
     AMIX     =   0.40;   BMIX     =  1.00
     AMIX_MAG =   1.60;   BMIX_MAG =  1.00
     AMIN     =   0.10
     WC   =   100.;   INIMIX=   1;  MIXPRE=   1;  MAXMIX= -45

 Intra band minimization:
   WEIMIN = 0.0000     energy-eigenvalue tresh-hold
   EBREAK =  0.16E-07  absolut break condition
   DEPER  =   0.30     relativ break condition  

   TIME   =   0.40     timestep for ELM

  volume/ion in A,a.u.               =      10.74        72.49
  Fermi-wavevector in a.u.,A,eV,Ry     =   1.598477  3.020684 34.764640  2.555129
  Thomas-Fermi vector in A             =   2.695921
 
 Write flags
   LWAVE        =      F    write WAVECAR
   LDOWNSAMPLE  =      F    k-point downsampling of WAVECAR
   LCHARG       =      F    write CHGCAR
   LVTOT        =      F    write LOCPOT, total local potential
   LVHAR        =      F    write LOCPOT, Hartree potential only
   LELF         =      F    write electronic localiz. function (ELF)
   LORBIT       =     11    0 simple, 1 ext, 2 COOP (PROOUT), +10 PAW based schemes


 Dipole corrections
   LMONO  =      F    monopole corrections only (constant potential shift)
   LDIPOL =      F    correct potential (dipole corrections)
   IDIPOL =      0    1-x, 2-y, 3-z, 4-all directions 
   EPSILON=  1.0000000 bulk dielectric constant

 Exchange correlation treatment:
   GGA     =    --    GGA type
   LEXCH   =     8    internal setting for exchange type
   VOSKOWN=      0    Vosko Wilk Nusair interpolation
   LHFCALC =     F    Hartree Fock is set to
   LHFONE  =     F    Hartree Fock one center treatment
   AEXX    =    0.0000 exact exchange contribution

 Linear response parameters
   LEPSILON=     F    determine dielectric tensor
   LRPA    =     F    only Hartree local field effects (RPA)
   LNABLA  =     F    use nabla operator in PAW spheres
   LVEL    =     F    velocity operator in full k-point grid
   LINTERFAST=   F  fast interpolation
   KINTER  =     0    interpolate to denser k-point grid
   CSHIFT  =0.1000    complex shift for real part using Kramers Kronig
   OMEGAMAX=  -1.0    maximum frequency
   DEG_THRESHOLD= 0.2000000E-02 threshold for treating states as degnerate
   RTIME   =   -0.100 relaxation time in fs
  (WPLASMAI=    0.000 imaginary part of plasma frequency in eV, 0.658/RTIME)
   DFIELD  = 0.0000000 0.0000000 0.0000000 field for delta impulse in time
 
 Orbital magnetization related:
   ORBITALMAG=     F  switch on orbital magnetization
   LCHIMAG   =     F  perturbation theory with respect to B field
   DQ        =  0.001000  dq finite difference perturbation B field
   LLRAUG    =     F  two centre corrections for induced B field



--------------------------------------------------------------------------------------------------------


 Static calculation
 charge density and potential will be updated during run
 spin polarized calculation
 Variant of blocked Davidson
 Davidson routine will perform the subspace rotation
 perform sub-space diagonalisation
    after iterative eigenvector-optimisation
 modified Broyden-mixing scheme, WC =      100.0
 initial mixing is a Kerker type mixing with AMIX =  0.4000 and BMIX =      1.0000
 Hartree-type preconditioning will be used
 using additional bands            6
 reciprocal scheme for non local part
 use partial core corrections
 calculate Harris-corrections to forces 
   (improved forces if not selfconsistent)
 use gradient corrections 
 use of overlap-Matrix (Vanderbilt PP)
 Methfessel and Paxton  Order N= 1 SIGMA  =   0.20


--------------------------------------------------------------------------------------------------------


  energy-cutoff  :      520.00
  volume of cell :       21.48
      direct lattice vectors                 reciprocal lattice vectors
     2.476700100  0.000000000  0.000000000     0.403763056 -0.233112700 -0.164835576
     1.238350000  2.144885200  0.000000000     0.000000000  0.466225418  0.082417792
     1.238350000 -0.714961740  4.044434200     0.000000000  0.000000000  0.247253374

  length of vectors
     2.476700100  2.476700071  4.289770275     0.494506727  0.473454151  0.247253374


 
 k-points in units of 2pi/SCALE and weight: k-points                                
   0.00000000  0.00000000  0.00000000       0.001
   0.03670573 -0.02119206 -0.01498505       0.005
   0.07341146 -0.04238413 -0.02997010       0.005
   0.11011720 -0.06357619 -0.04495516       0.005
   0.14682293 -0.08476825 -0.05994021       0.005
   0.18352866 -0.10596032 -0.07492526       0.005
   0.00000000  0.04238413  0.00749253       0.005
   0.07341146  0.00000000 -0.02247758       0.009
   0.11011720 -0.02119206 -0.03746263       0.009
   0.14682293 -0.04238413 -0.05244768       0.009
   0.18352866 -0.06357619 -0.06743274       0.009
  -0.18352866  0.14834445  0.08241779       0.005
   0.00000000  0.08476826  0.01498505       0.005
   0.03670573  0.06357619  0.00000000       0.005
   0.11011720  0.02119207 -0.02997010       0.009
   0.14682293  0.00000000 -0.04495516       0.009
   0.18352866 -0.02119206 -0.05994021       0.009
  -0.18352866  0.19072858  0.08991031       0.009
   0.00000000  0.12715239  0.02247758       0.005
   0.03670573  0.10596032  0.00749253       0.009
   0.14682293  0.04238413 -0.03746263       0.009
   0.18352866  0.02119207 -0.05244768       0.009
  -0.18352866  0.23311270  0.09740284       0.009
  -0.14682293  0.21192064  0.08241779       0.005
   0.00000000  0.16953652  0.02997011       0.005
   0.03670573  0.14834445  0.01498505       0.009
   0.07341146  0.12715239  0.00000000       0.005
   0.18352866  0.06357620 -0.04495516       0.009
  -0.18352866  0.27549683  0.10489537       0.009
  -0.14682293  0.25430477  0.08991032       0.009
   0.00000000  0.21192064  0.03746263       0.005
   0.03670573  0.19072858  0.02247758       0.009
   0.07341146  0.16953652  0.00749253       0.009
  -0.18352866  0.31788096  0.11238789       0.009
  -0.14682293  0.29668890  0.09740284       0.009
  -0.11011720  0.27549684  0.08241779       0.005
   0.00000000  0.00000000  0.02247758       0.002
   0.07341146 -0.04238413 -0.00749253       0.005
   0.11011720 -0.06357619 -0.02247758       0.005
   0.14682293 -0.08476825 -0.03746263       0.005
   0.18352866 -0.10596032 -0.05244768       0.005
  -0.18352866  0.10596032  0.09740284       0.005
  -0.14682293  0.08476825  0.08241779       0.005
  -0.11011720  0.06357619  0.06743274       0.005
  -0.07341146  0.04238413  0.05244768       0.005
  -0.03670573  0.02119206  0.03746263       0.005
   0.00000000  0.04238413  0.02997011       0.005
   0.11011720 -0.02119206 -0.01498505       0.009
   0.14682293 -0.04238413 -0.02997010       0.009
   0.18352866 -0.06357619 -0.04495516       0.009
  -0.18352866  0.14834445  0.10489537       0.009
  -0.14682293  0.12715238  0.08991032       0.009
  -0.11011720  0.10596032  0.07492526       0.009
  -0.07341146  0.08476826  0.05994021       0.009
  -0.03670573  0.06357619  0.04495516       0.009
   0.00000000  0.08476826  0.03746263       0.005
   0.14682293  0.00000000 -0.02247758       0.009
   0.18352866 -0.02119206 -0.03746263       0.009
  -0.18352866  0.19072858  0.11238789       0.009
  -0.14682293  0.16953651  0.09740284       0.009
  -0.11011720  0.14834445  0.08241779       0.009
  -0.07341146  0.12715239  0.06743274       0.009
  -0.03670573  0.10596032  0.05244768       0.009
   0.00000000  0.12715239  0.04495516       0.005
   0.11011720  0.06357620  0.00000000       0.005
   0.18352866  0.02119207 -0.02997010       0.009
  -0.18352866  0.23311270  0.11988042       0.009
  -0.14682293  0.21192064  0.10489537       0.009
  -0.11011720  0.19072858  0.08991032       0.009
  -0.07341146  0.16953651  0.07492526       0.009
  -0.03670573  0.14834445  0.05994021       0.009
   0.00000000  0.16953652  0.05244769       0.005
   0.11011720  0.10596032  0.00749253       0.009
   0.14682293  0.08476826 -0.00749252       0.005
  -0.18352866  0.27549683  0.12737295       0.009
  -0.14682293  0.25430477  0.11238790       0.009
  -0.11011720  0.23311271  0.09740284       0.009
  -0.07341146  0.21192064  0.08241779       0.009
  -0.03670573  0.19072858  0.06743274       0.009
   0.00000000  0.21192064  0.05994021       0.005
   0.11011720  0.14834445  0.01498506       0.009
   0.14682293  0.12715239  0.00000000       0.009
   0.18352866  0.10596033 -0.01498505       0.005
  -0.11011720  0.27549684  0.10489537       0.009
  -0.07341146  0.25430477  0.08991032       0.009
  -0.03670573  0.23311271  0.07492526       0.009
   0.00000000  0.00000000  0.04495516       0.002
   0.14682293 -0.08476825 -0.01498505       0.005
   0.18352866 -0.10596032 -0.02997010       0.005
  -0.18352866  0.10596032  0.11988042       0.005
  -0.14682293  0.08476825  0.10489537       0.005
  -0.11011720  0.06357619  0.08991032       0.005
  -0.07341146  0.04238413  0.07492526       0.005
  -0.03670573  0.02119206  0.05994021       0.005
   0.00000000  0.04238413  0.05244769       0.005
   0.18352866 -0.06357619 -0.02247758       0.009
  -0.18352866  0.14834445  0.12737295       0.009
  -0.14682293  0.12715238  0.11238789       0.009
  -0.11011720  0.10596032  0.09740284       0.009
  -0.07341146  0.08476826  0.08241779       0.009
  -0.03670573  0.06357619  0.06743274       0.009
   0.00000000  0.08476826  0.05994021       0.005
  -0.18352866  0.19072858  0.13486547       0.009
  -0.14682293  0.16953651  0.11988042       0.009
  -0.11011720  0.14834445  0.10489537       0.009
  -0.07341146  0.12715239  0.08991032       0.009
  -0.03670573  0.10596032  0.07492526       0.009
   0.00000000  0.12715239  0.06743274       0.005
  -0.14682293  0.21192064  0.12737295       0.009
  -0.11011720  0.19072858  0.11238790       0.009
  -0.07341146  0.16953651  0.09740284       0.009
  -0.03670573  0.14834445  0.08241779       0.009
   0.00000000  0.16953652  0.07492526       0.005
  -0.07341146  0.21192064  0.10489537       0.009
  -0.03670573  0.19072858  0.08991032       0.009
   0.00000000  0.21192064  0.08241779       0.005
   0.18352866  0.10596033  0.00749253       0.005
  -0.03670573  0.23311271  0.09740284       0.009
   0.00000000  0.00000000  0.06743274       0.002
  -0.18352866  0.10596032  0.14235800       0.005
  -0.14682293  0.08476825  0.12737295       0.005
  -0.11011720  0.06357619  0.11238790       0.005
  -0.07341146  0.04238413  0.09740284       0.005
  -0.03670573  0.02119206  0.08241779       0.005
   0.00000000  0.04238413  0.07492526       0.005
  -0.14682293  0.12715238  0.13486547       0.009
  -0.11011720  0.10596032  0.11988042       0.009
  -0.07341146  0.08476826  0.10489537       0.009
  -0.03670573  0.06357619  0.08991032       0.009
   0.00000000  0.08476826  0.08241779       0.005
  -0.11011720  0.14834445  0.12737295       0.009
  -0.07341146  0.12715239  0.11238790       0.009
  -0.03670573  0.10596032  0.09740284       0.009
   0.00000000  0.12715239  0.08991032       0.005
  -0.03670573  0.14834445  0.10489537       0.009
   0.00000000  0.16953652  0.09740284       0.005
   0.00000000  0.00000000  0.08991032       0.002
  -0.11011720  0.06357619  0.13486547       0.005
  -0.07341146  0.04238413  0.11988042       0.005
  -0.03670573  0.02119206  0.10489537       0.005
   0.00000000  0.04238413  0.09740284       0.005
  -0.07341146  0.08476826  0.12737295       0.009
  -0.03670573  0.06357619  0.11238790       0.009
   0.00000000  0.08476826  0.10489537       0.005
   0.00000000  0.00000000  0.11238790       0.002
  -0.03670573  0.02119206  0.12737295       0.005
 
 k-points in reciprocal lattice and weights: k-points                                
   0.00000000  0.00000000  0.00000000       0.001
   0.09090909  0.00000000  0.00000000       0.005
   0.18181818  0.00000000  0.00000000       0.005
   0.27272727  0.00000000 -0.00000000       0.005
   0.36363636  0.00000000  0.00000000       0.005
   0.45454545  0.00000000  0.00000000       0.005
   0.00000000  0.09090909 -0.00000000       0.005
   0.18181818  0.09090909  0.00000000       0.009
   0.27272727  0.09090909 -0.00000000       0.009
   0.36363636  0.09090909  0.00000000       0.009
   0.45454545  0.09090909  0.00000000       0.009
  -0.45454545  0.09090909 -0.00000000       0.005
   0.00000000  0.18181818 -0.00000000       0.005
   0.09090909  0.18181818 -0.00000000       0.005
   0.27272727  0.18181818 -0.00000000       0.009
   0.36363636  0.18181818  0.00000000       0.009
   0.45454545  0.18181818  0.00000000       0.009
  -0.45454545  0.18181818  0.00000000       0.009
   0.00000000  0.27272727 -0.00000000       0.005
   0.09090909  0.27272727 -0.00000000       0.009
   0.36363636  0.27272727  0.00000000       0.009
   0.45454545  0.27272727  0.00000000       0.009
  -0.45454545  0.27272727  0.00000000       0.009
  -0.36363636  0.27272727 -0.00000000       0.005
   0.00000000  0.36363636 -0.00000000       0.005
   0.09090909  0.36363636  0.00000000       0.009
   0.18181818  0.36363636 -0.00000000       0.005
   0.45454545  0.36363636  0.00000000       0.009
  -0.45454545  0.36363636 -0.00000000       0.009
  -0.36363636  0.36363636 -0.00000000       0.009
   0.00000000  0.45454545 -0.00000000       0.005
   0.09090909  0.45454545  0.00000000       0.009
   0.18181818  0.45454545 -0.00000000       0.009
  -0.45454545  0.45454545 -0.00000000       0.009
  -0.36363636  0.45454545  0.00000000       0.009
  -0.27272727  0.45454545  0.00000000       0.005
   0.00000000  0.00000000  0.09090909       0.002
   0.18181818  0.00000000  0.09090909       0.005
   0.27272727  0.00000000  0.09090909       0.005
   0.36363636  0.00000000  0.09090909       0.005
   0.45454545  0.00000000  0.09090909       0.005
  -0.45454545 -0.00000000  0.09090909       0.005
  -0.36363636 -0.00000000  0.09090909       0.005
  -0.27272727 -0.00000000  0.09090909       0.005
  -0.18181818 -0.00000000  0.09090909       0.005
  -0.09090909 -0.00000000  0.09090909       0.005
   0.00000000  0.09090909  0.09090909       0.005
   0.27272727  0.09090909  0.09090909       0.009
   0.36363636  0.09090909  0.09090909       0.009
   0.45454545  0.09090909  0.09090909       0.009
  -0.45454545  0.09090909  0.09090909       0.009
  -0.36363636  0.09090909  0.09090909       0.009
  -0.27272727  0.09090909  0.09090909       0.009
  -0.18181818  0.09090909  0.09090909       0.009
  -0.09090909  0.09090909  0.09090909       0.009
   0.00000000  0.18181818  0.09090909       0.005
   0.36363636  0.18181818  0.09090909       0.009
   0.45454545  0.18181818  0.09090909       0.009
  -0.45454545  0.18181818  0.09090909       0.009
  -0.36363636  0.18181818  0.09090909       0.009
  -0.27272727  0.18181818  0.09090909       0.009
  -0.18181818  0.18181818  0.09090909       0.009
  -0.09090909  0.18181818  0.09090909       0.009
   0.00000000  0.27272727  0.09090909       0.005
   0.27272727  0.27272727  0.09090909       0.005
   0.45454545  0.27272727  0.09090909       0.009
  -0.45454545  0.27272727  0.09090909       0.009
  -0.36363636  0.27272727  0.09090909       0.009
  -0.27272727  0.27272727  0.09090909       0.009
  -0.18181818  0.27272727  0.09090909       0.009
  -0.09090909  0.27272727  0.09090909       0.009
   0.00000000  0.36363636  0.09090909       0.005
   0.27272727  0.36363636  0.09090909       0.009
   0.36363636  0.36363636  0.09090909       0.005
  -0.45454545  0.36363636  0.09090909       0.009
  -0.36363636  0.36363636  0.09090909       0.009
  -0.27272727  0.36363636  0.09090909       0.009
  -0.18181818  0.36363636  0.09090909       0.009
  -0.09090909  0.36363636  0.09090909       0.009
   0.00000000  0.45454545  0.09090909       0.005
   0.27272727  0.45454545  0.09090909       0.009
   0.36363636  0.45454545  0.09090909       0.009
   0.45454545  0.45454545  0.09090909       0.005
  -0.27272727  0.45454545  0.09090909       0.009
  -0.18181818  0.45454545  0.09090909       0.009
  -0.09090909  0.45454545  0.09090909       0.009
   0.00000000  0.00000000  0.18181818       0.002
   0.36363636  0.00000000  0.18181818       0.005
   0.45454545  0.00000000  0.18181818       0.005
  -0.45454545 -0.00000000  0.18181818       0.005
  -0.36363636 -0.00000000  0.18181818       0.005
  -0.27272727 -0.00000000  0.18181818       0.005
  -0.18181818 -0.00000000  0.18181818       0.005
  -0.09090909 -0.00000000  0.18181818       0.005
   0.00000000  0.09090909  0.18181818       0.005
   0.45454545  0.09090909  0.18181818       0.009
  -0.45454545  0.09090909  0.18181818       0.009
  -0.36363636  0.09090909  0.18181818       0.009
  -0.27272727  0.09090909  0.18181818       0.009
  -0.18181818  0.09090909  0.18181818       0.009
  -0.09090909  0.09090909  0.18181818       0.009
   0.00000000  0.18181818  0.18181818       0.005
  -0.45454545  0.18181818  0.18181818       0.009
  -0.36363636  0.18181818  0.18181818       0.009
  -0.27272727  0.18181818  0.18181818       0.009
  -0.18181818  0.18181818  0.18181818       0.009
  -0.09090909  0.18181818  0.18181818       0.009
   0.00000000  0.27272727  0.18181818       0.005
  -0.36363636  0.27272727  0.18181818       0.009
  -0.27272727  0.27272727  0.18181818       0.009
  -0.18181818  0.27272727  0.18181818       0.009
  -0.09090909  0.27272727  0.18181818       0.009
   0.00000000  0.36363636  0.18181818       0.005
  -0.18181818  0.36363636  0.18181818       0.009
  -0.09090909  0.36363636  0.18181818       0.009
   0.00000000  0.45454545  0.18181818       0.005
   0.45454545  0.45454545  0.18181818       0.005
  -0.09090909  0.45454545  0.18181818       0.009
   0.00000000  0.00000000  0.27272727       0.002
  -0.45454545 -0.00000000  0.27272727       0.005
  -0.36363636 -0.00000000  0.27272727       0.005
  -0.27272727 -0.00000000  0.27272727       0.005
  -0.18181818 -0.00000000  0.27272727       0.005
  -0.09090909 -0.00000000  0.27272727       0.005
   0.00000000  0.09090909  0.27272727       0.005
  -0.36363636  0.09090909  0.27272727       0.009
  -0.27272727  0.09090909  0.27272727       0.009
  -0.18181818  0.09090909  0.27272727       0.009
  -0.09090909  0.09090909  0.27272727       0.009
   0.00000000  0.18181818  0.27272727       0.005
  -0.27272727  0.18181818  0.27272727       0.009
  -0.18181818  0.18181818  0.27272727       0.009
  -0.09090909  0.18181818  0.27272727       0.009
   0.00000000  0.27272727  0.27272727       0.005
  -0.09090909  0.27272727  0.27272727       0.009
   0.00000000  0.36363636  0.27272727       0.005
   0.00000000  0.00000000  0.36363636       0.002
  -0.27272727 -0.00000000  0.36363636       0.005
  -0.18181818 -0.00000000  0.36363636       0.005
  -0.09090909 -0.00000000  0.36363636       0.005
   0.00000000  0.09090909  0.36363636       0.005
  -0.18181818  0.09090909  0.36363636       0.009
  -0.09090909  0.09090909  0.36363636       0.009
   0.00000000  0.18181818  0.36363636       0.005
   0.00000000  0.00000000  0.45454545       0.002
  -0.09090909 -0.00000000  0.45454545       0.005
 
 position of ions in fractional coordinates (direct lattice) 
   0.00000000  0.00000000  0.00000000
   0.00000000  0.50000000  0.50000000
 
 position of ions in cartesian coordinates  (Angst):
   0.00000000  0.00000000  0.00000000
   1.23835000  0.71496173  2.02221710
 


--------------------------------------------------------------------------------------------------------


 k-point  1 :   0.0000 0.0000 0.0000  plane waves:     555
 k-point  2 :   0.0909 0.0000 0.0000  plane waves:     578
 k-point  3 :   0.1818 0.0000 0.0000  plane waves:     586
 k-point  4 :   0.2727 0.0000-0.0000  plane waves:     584
 k-point  5 :   0.3636 0.0000 0.0000  plane waves:     575
 k-point  6 :   0.4545 0.0000 0.0000  plane waves:     582
 k-point  7 :   0.0000 0.0909-0.0000  plane waves:     583
 k-point  8 :   0.1818 0.0909 0.0000  plane waves:     583
 k-point  9 :   0.2727 0.0909-0.0000  plane waves:     581
 k-point 10 :   0.3636 0.0909 0.0000  plane waves:     581
 k-point 11 :   0.4545 0.0909 0.0000  plane waves:     574
 k-point 12 :  -0.4545 0.0909-0.0000  plane waves:     572
 k-point 13 :   0.0000 0.1818-0.0000  plane waves:     587
 k-point 14 :   0.0909 0.1818-0.0000  plane waves:     583
 k-point 15 :   0.2727 0.1818-0.0000  plane waves:     584
 k-point 16 :   0.3636 0.1818 0.0000  plane waves:     576
 k-point 17 :   0.4545 0.1818 0.0000  plane waves:     573
 k-point 18 :  -0.4545 0.1818 0.0000  plane waves:     573
 k-point 19 :   0.0000 0.2727-0.0000  plane waves:     581
 k-point 20 :   0.0909 0.2727-0.0000  plane waves:     579
 k-point 21 :   0.3636 0.2727 0.0000  plane waves:     575
 k-point 22 :   0.4545 0.2727 0.0000  plane waves:     575
 k-point 23 :  -0.4545 0.2727 0.0000  plane waves:     571
 k-point 24 :  -0.3636 0.2727-0.0000  plane waves:     568
 k-point 25 :   0.0000 0.3636-0.0000  plane waves:     575
 k-point 26 :   0.0909 0.3636 0.0000  plane waves:     575
 k-point 27 :   0.1818 0.3636-0.0000  plane waves:     579
 k-point 28 :   0.4545 0.3636 0.0000  plane waves:     575
 k-point 29 :  -0.4545 0.3636-0.0000  plane waves:     573
 k-point 30 :  -0.3636 0.3636-0.0000  plane waves:     569
 k-point 31 :   0.0000 0.4545-0.0000  plane waves:     577
 k-point 32 :   0.0909 0.4545 0.0000  plane waves:     571
 k-point 33 :   0.1818 0.4545-0.0000  plane waves:     573
 k-point 34 :  -0.4545 0.4545-0.0000  plane waves:     577
 k-point 35 :  -0.3636 0.4545 0.0000  plane waves:     576
 k-point 36 :  -0.2727 0.4545 0.0000  plane waves:     565
 k-point 37 :   0.0000 0.0000 0.0909  plane waves:     570
 k-point 38 :   0.1818 0.0000 0.0909  plane waves:     586
 k-point 39 :   0.2727 0.0000 0.0909  plane waves:     585
 k-point 40 :   0.3636 0.0000 0.0909  plane waves:     578
 k-point 41 :   0.4545 0.0000 0.0909  plane waves:     574
 k-point 42 :  -0.4545-0.0000 0.0909  plane waves:     576
 k-point 43 :  -0.3636-0.0000 0.0909  plane waves:     577
 k-point 44 :  -0.2727-0.0000 0.0909  plane waves:     585
 k-point 45 :  -0.1818-0.0000 0.0909  plane waves:     577
 k-point 46 :  -0.0909-0.0000 0.0909  plane waves:     579
 k-point 47 :   0.0000 0.0909 0.0909  plane waves:     580
 k-point 48 :   0.2727 0.0909 0.0909  plane waves:     584
 k-point 49 :   0.3636 0.0909 0.0909  plane waves:     582
 k-point 50 :   0.4545 0.0909 0.0909  plane waves:     572
 k-point 51 :  -0.4545 0.0909 0.0909  plane waves:     578
 k-point 52 :  -0.3636 0.0909 0.0909  plane waves:     574
 k-point 53 :  -0.2727 0.0909 0.0909  plane waves:     584
 k-point 54 :  -0.1818 0.0909 0.0909  plane waves:     584
 k-point 55 :  -0.0909 0.0909 0.0909  plane waves:     586
 k-point 56 :   0.0000 0.1818 0.0909  plane waves:     583
 k-point 57 :   0.3636 0.1818 0.0909  plane waves:     580
 k-point 58 :   0.4545 0.1818 0.0909  plane waves:     573
 k-point 59 :  -0.4545 0.1818 0.0909  plane waves:     573
 k-point 60 :  -0.3636 0.1818 0.0909  plane waves:     577
 k-point 61 :  -0.2727 0.1818 0.0909  plane waves:     576
 k-point 62 :  -0.1818 0.1818 0.0909  plane waves:     580
 k-point 63 :  -0.0909 0.1818 0.0909  plane waves:     587
 k-point 64 :   0.0000 0.2727 0.0909  plane waves:     582
 k-point 65 :   0.2727 0.2727 0.0909  plane waves:     580
 k-point 66 :   0.4545 0.2727 0.0909  plane waves:     574
 k-point 67 :  -0.4545 0.2727 0.0909  plane waves:     576
 k-point 68 :  -0.3636 0.2727 0.0909  plane waves:     570
 k-point 69 :  -0.2727 0.2727 0.0909  plane waves:     573
 k-point 70 :  -0.1818 0.2727 0.0909  plane waves:     579
 k-point 71 :  -0.0909 0.2727 0.0909  plane waves:     578
 k-point 72 :   0.0000 0.3636 0.0909  plane waves:     579
 k-point 73 :   0.2727 0.3636 0.0909  plane waves:     576
 k-point 74 :   0.3636 0.3636 0.0909  plane waves:     576
 k-point 75 :  -0.4545 0.3636 0.0909  plane waves:     571
 k-point 76 :  -0.3636 0.3636 0.0909  plane waves:     564
 k-point 77 :  -0.2727 0.3636 0.0909  plane waves:     571
 k-point 78 :  -0.1818 0.3636 0.0909  plane waves:     575
 k-point 79 :  -0.0909 0.3636 0.0909  plane waves:     579
 k-point 80 :   0.0000 0.4545 0.0909  plane waves:     578
 k-point 81 :   0.2727 0.4545 0.0909  plane waves:     575
 k-point 82 :   0.3636 0.4545 0.0909  plane waves:     571
 k-point 83 :   0.4545 0.4545 0.0909  plane waves:     569
 k-point 84 :  -0.2727 0.4545 0.0909  plane waves:     571
 k-point 85 :  -0.1818 0.4545 0.0909  plane waves:     574
 k-point 86 :  -0.0909 0.4545 0.0909  plane waves:     578
 k-point 87 :   0.0000 0.0000 0.1818  plane waves:     576
 k-point 88 :   0.3636 0.0000 0.1818  plane waves:     577
 k-point 89 :   0.4545 0.0000 0.1818  plane waves:     569
 k-point 90 :  -0.4545-0.0000 0.1818  plane waves:     578
 k-point 91 :  -0.3636-0.0000 0.1818  plane waves:     577
 k-point 92 :  -0.2727-0.0000 0.1818  plane waves:     584
 k-point 93 :  -0.1818-0.0000 0.1818  plane waves:     585
 k-point 94 :  -0.0909-0.0000 0.1818  plane waves:     585
 k-point 95 :   0.0000 0.0909 0.1818  plane waves:     581
 k-point 96 :   0.4545 0.0909 0.1818  plane waves:     571
 k-point 97 :  -0.4545 0.0909 0.1818  plane waves:     576
 k-point 98 :  -0.3636 0.0909 0.1818  plane waves:     577
 k-point 99 :  -0.2727 0.0909 0.1818  plane waves:     585
 k-point ** :  -0.1818 0.0909 0.1818  plane waves:     585
 k-point ** :  -0.0909 0.0909 0.1818  plane waves:     580
 k-point ** :   0.0000 0.1818 0.1818  plane waves:     584
 k-point ** :  -0.4545 0.1818 0.1818  plane waves:     573
 k-point ** :  -0.3636 0.1818 0.1818  plane waves:     576
 k-point ** :  -0.2727 0.1818 0.1818  plane waves:     576
 k-point ** :  -0.1818 0.1818 0.1818  plane waves:     580
 k-point ** :  -0.0909 0.1818 0.1818  plane waves:     584
 k-point ** :   0.0000 0.2727 0.1818  plane waves:     582
 k-point ** :  -0.3636 0.2727 0.1818  plane waves:     569
 k-point ** :  -0.2727 0.2727 0.1818  plane waves:     578
 k-point ** :  -0.1818 0.2727 0.1818  plane waves:     577
 k-point ** :  -0.0909 0.2727 0.1818  plane waves:     588
 k-point ** :   0.0000 0.3636 0.1818  plane waves:     583
 k-point ** :  -0.1818 0.3636 0.1818  plane waves:     575
 k-point ** :  -0.0909 0.3636 0.1818  plane waves:     580
 k-point ** :   0.0000 0.4545 0.1818  plane waves:     582
 k-point ** :   0.4545 0.4545 0.1818  plane waves:     575
 k-point ** :  -0.0909 0.4545 0.1818  plane waves:     576
 k-point ** :   0.0000 0.0000 0.2727  plane waves:     582
 k-point ** :  -0.4545-0.0000 0.2727  plane waves:     579
 k-point ** :  -0.3636-0.0000 0.2727  plane waves:     580
 k-point ** :  -0.2727-0.0000 0.2727  plane waves:     586
 k-point ** :  -0.1818-0.0000 0.2727  plane waves:     586
 k-point ** :  -0.0909-0.0000 0.2727  plane waves:     585
 k-point ** :   0.0000 0.0909 0.2727  plane waves:     589
 k-point ** :  -0.3636 0.0909 0.2727  plane waves:     577
 k-point ** :  -0.2727 0.0909 0.2727  plane waves:     581
 k-point ** :  -0.1818 0.0909 0.2727  plane waves:     583
 k-point ** :  -0.0909 0.0909 0.2727  plane waves:     587
 k-point ** :   0.0000 0.1818 0.2727  plane waves:     587
 k-point ** :  -0.2727 0.1818 0.2727  plane waves:     579
 k-point ** :  -0.1818 0.1818 0.2727  plane waves:     578
 k-point ** :  -0.0909 0.1818 0.2727  plane waves:     590
 k-point ** :   0.0000 0.2727 0.2727  plane waves:     585
 k-point ** :  -0.0909 0.2727 0.2727  plane waves:     583
 k-point ** :   0.0000 0.3636 0.2727  plane waves:     581
 k-point ** :   0.0000 0.0000 0.3636  plane waves:     582
 k-point ** :  -0.2727-0.0000 0.3636  plane waves:     586
 k-point ** :  -0.1818-0.0000 0.3636  plane waves:     589
 k-point ** :  -0.0909-0.0000 0.3636  plane waves:     594
 k-point ** :   0.0000 0.0909 0.3636  plane waves:     589
 k-point ** :  -0.1818 0.0909 0.3636  plane waves:     586
 k-point ** :  -0.0909 0.0909 0.3636  plane waves:     583
 k-point ** :   0.0000 0.1818 0.3636  plane waves:     590
 k-point ** :   0.0000 0.0000 0.4545  plane waves:     591
 k-point ** :  -0.0909-0.0000 0.4545  plane waves:     587

 maximum and minimum number of plane-waves per node :       594      555

 maximum number of plane-waves:       594
 maximum index in each direction: 
   IXMAX=    5   IYMAX=    4   IZMAX=    7
   IXMIN=   -5   IYMIN=   -5   IZMIN=   -8


 serial   3D FFT for wavefunctions
 parallel 3D FFT for charge:
    minimum data exchange during FFTs selected (reduces bandwidth)


 total amount of memory used by VASP MPI-rank0    50796. kBytes
=======================================================================

   base      :      30000. kBytes
   nonl-proj :      12633. kBytes
   fftplans  :        432. kBytes
   grid      :       1689. kBytes
   one-center:         62. kBytes
   wavefun   :       5980. kBytes
 
     INWAV:  cpu time    0.0000: real time    0.0001
 Broyden mixing: mesh for mixing (old mesh)
   NGX =  9   NGY =  9   NGZ = 15
  (NGX  = 36   NGY  = 36   NGZ  = 64)
  gives a total of   1215 points

 initial charge density was supplied:
 charge density of overlapping atoms calculated
 number of electron      20.0000000 magnetization       0.0000000
 keeping initial charge density in first step


--------------------------------------------------------------------------------------------------------


 Maximum index for augmentation-charges         2238 (set IRDMAX)


--------------------------------------------------------------------------------------------------------


 First call to EWALD:  gamma=   0.638
 Maximum number of real-space cells 4x 3x 2
 Maximum number of reciprocal cells 3x 3x 4

    FEWALD:  cpu time    0.0012: real time    0.0012


--------------------------------------- Iteration      1(   1)  ---------------------------------------


    POTLOK:  cpu time    0.0162: real time    0.0198
    SETDIJ:  cpu time    0.5053: real time    0.5065
     EDDAV:  cpu time    1.0997: real time    1.1072
       DOS:  cpu time    0.0026: real time    0.0026
    --------------------------------------------
      LOOP:  cpu time    1.6239: real time    1.6362

 eigenvalue-minimisations  :  9840
 total energy-change (2. order) : 0.8434282E+02  (-0.9473096E+03)
 number of electron      20.0000000 magnetization       0.0000000
 augmentation part       20.0000000 magnetization       0.0000000

 Free energy of the ion-electron system (eV)
  ---------------------------------------------------
  alpha Z        PSCENC =        94.94887387
  Ewald energy   TEWEN  =     -1884.92442377
  -Hartree energ DENC   =      -486.20987861
  -exchange      EXHF   =         0.00000000
  -V(xc)+E(xc)   XCENC  =        63.61846004
  PAW double counting   =      1925.66634721    -2059.34142455
  entropy T*S    EENTRO =         0.00028250
  eigenvalues    EBANDS =       275.24274911
  atomic energy  EATOM  =      2155.34183880
  Solvation  Ediel_sol  =         0.00000000
  ---------------------------------------------------
  free energy    TOTEN  =        84.34282460 eV

  energy without entropy =       84.34254209  energy(sigma->0) =       84.34273043


--------------------------------------------------------------------------------------------------------




--------------------------------------- Iteration      1(   2)  ---------------------------------------


     EDDAV:  cpu time    1.0655: real time    1.0697
       DOS:  cpu time    0.0029: real time    0.0029
    --------------------------------------------
      LOOP:  cpu time    1.0684: real time    1.0726

 eigenvalue-minimisations  :  9464
 total energy-change (2. order) :-0.9466079E+02  (-0.8947949E+02)
 number of electron      20.0000000 magnetization       0.0000000
 augmentation part       20.0000000 magnetization       0.0000000

 Free energy of the ion-electron system (eV)
  ---------------------------------------------------
  alpha Z        PSCENC =        94.94887387
  Ewald energy   TEWEN  =     -1884.92442377
  -Hartree energ DENC   =      -486.20987861
  -exchange      EXHF   =         0.00000000
  -V(xc)+E(xc)   XCENC  =        63.61846004
  PAW double counting   =      1925.66634721    -2059.34142455
  entropy T*S    EENTRO =        -0.00806235
  eigenvalues    EBANDS =       180.59029906
  atomic energy  EATOM  =      2155.34183880
  Solvation  Ediel_sol  =         0.00000000
  ---------------------------------------------------
  free energy    TOTEN  =       -10.31797030 eV

  energy without entropy =      -10.30990795  energy(sigma->0) =      -10.31528285


--------------------------------------------------------------------------------------------------------




--------------------------------------- Iteration      1(   3)  ---------------------------------------


     EDDAV:  cpu time    1.2786: real time    1.2819
       DOS:  cpu time    0.0028: real time    0.0028
    --------------------------------------------
      LOOP:  cpu time    1.2814: real time    1.2848

 eigenvalue-minimisations  : 11600
 total energy-change (2. order) :-0.2505722E+01  (-0.2454246E+01)
 number of electron      20.0000000 magnetization       0.0000000
 augmentation part       20.0000000 magnetization       0.0000000

 Free energy of the ion-electron system (eV)
  ---------------------------------------------------
  alpha Z        PSCENC =        94.94887387
  Ewald energy   TEWEN  =     -1884.92442377
  -Hartree energ DENC   =      -486.20987861
  -exchange      EXHF   =         0.00000000
  -V(xc)+E(xc)   XCENC  =        63.61846004
  PAW double counting   =      1925.66634721    -2059.34142455
  entropy T*S    EENTRO =        -0.01087642
  eigenvalues    EBANDS =       178.08739147
  atomic energy  EATOM  =      2155.34183880
  Solvation  Ediel_sol  =         0.00000000
  ---------------------------------------------------
  free energy    TOTEN  =       -12.82369196 eV

  energy without entropy =      -12.81281555  energy(sigma->0) =      -12.82006649


--------------------------------------------------------------------------------------------------------




--------------------------------------- Iteration      1(   4)  ---------------------------------------


     EDDAV:  cpu time    1.3433: real time    1.3466
       DOS:  cpu time    0.0029: real time    0.0029
    --------------------------------------------
      LOOP:  cpu time    1.3462: real time    1.3495

 eigenvalue-minimisations  : 12720
 total energy-change (2. order) :-0.2971429E-01  (-0.2970511E-01)
 number of electron      20.0000000 magnetization       0.0000000
 augmentation part       20.0000000 magnetization       0.0000000

 Free energy of the ion-electron system (eV)
  ---------------------------------------------------
  alpha Z        PSCENC =        94.94887387
  Ewald energy   TEWEN  =     -1884.92442377
  -Hartree energ DENC   =      -486.20987861
  -exchange      EXHF   =         0.00000000
  -V(xc)+E(xc)   XCENC  =        63.61846004
  PAW double counting   =      1925.66634721    -2059.34142455
  entropy T*S    EENTRO =        -0.01080857
  eigenvalues    EBANDS =       178.05760933
  atomic energy  EATOM  =      2155.34183880
  Solvation  Ediel_sol  =         0.00000000
  ---------------------------------------------------
  free energy    TOTEN  =       -12.85340625 eV

  energy without entropy =      -12.84259768  energy(sigma->0) =      -12.84980339


--------------------------------------------------------------------------------------------------------




--------------------------------------- Iteration      1(   5)  ---------------------------------------


     EDDAV:  cpu time    1.2464: real time    1.2495
       DOS:  cpu time    0.0028: real time    0.0028
    CHARGE:  cpu time    0.0868: real time    0.0870
    MIXING:  cpu time    0.0004: real time    0.0004
    --------------------------------------------
      LOOP:  cpu time    1.3364: real time    1.3397

 eigenvalue-minimisations  : 11488
 total energy-change (2. order) :-0.4038557E-03  (-0.4038405E-03)
 number of electron      19.9999987 magnetization       0.0000000
 augmentation part       11.2227300 magnetization       0.0000000

 Broyden mixing:
  rms(total) = 0.14266E+01    rms(broyden)= 0.14266E+01
  rms(prec ) = 0.25946E+01
  weight for this iteration     100.00

 Free energy of the ion-electron system (eV)
  ---------------------------------------------------
  alpha Z        PSCENC =        94.94887387
  Ewald energy   TEWEN  =     -1884.92442377
  -Hartree energ DENC   =      -486.20987861
  -exchange      EXHF   =         0.00000000
  -V(xc)+E(xc)   XCENC  =        63.61846004
  PAW double counting   =      1925.66634721    -2059.34142455
  entropy T*S    EENTRO =        -0.01080541
  eigenvalues    EBANDS =       178.05720232
  atomic energy  EATOM  =      2155.34183880
  Solvation  Ediel_sol  =         0.00000000
  ---------------------------------------------------
  free energy    TOTEN  =       -12.85381011 eV

  energy without entropy =      -12.84300470  energy(sigma->0) =      -12.85020830


--------------------------------------------------------------------------------------------------------




--------------------------------------- Iteration      1(   6)  ---------------------------------------


    POTLOK:  cpu time    0.0126: real time    0.0128
    SETDIJ:  cpu time    0.5130: real time    0.5142
     EDDAV:  cpu time    1.0717: real time    1.0744
       DOS:  cpu time    0.0027: real time    0.0027
    CHARGE:  cpu time    0.0855: real time    0.0857
    MIXING:  cpu time    0.0006: real time    0.0005
    --------------------------------------------
      LOOP:  cpu time    1.6860: real time    1.6904

 eigenvalue-minimisations  :  9584
 total energy-change (2. order) : 0.1368568E+01  (-0.1254447E+01)
 number of electron      19.9999986 magnetization      -0.0000000
 augmentation part       12.9651203 magnetization      -0.0000000

 Broyden mixing:
  rms(total) = 0.83877E+00    rms(broyden)= 0.83874E+00
  rms(prec ) = 0.12735E+01
  weight for this iteration     100.00

 eigenvalues of (default mixing * dielectric matrix)
  average eigenvalue GAMMA=   0.7283
  0.7283

 Free energy of the ion-electron system (eV)
  ---------------------------------------------------
  alpha Z        PSCENC =        94.94887387
  Ewald energy   TEWEN  =     -1884.92442377
  -Hartree energ DENC   =      -438.20785699
  -exchange      EXHF   =         0.00000000
  -V(xc)+E(xc)   XCENC  =        61.02728061
  PAW double counting   =      2063.30538946    -2188.23535362
  entropy T*S    EENTRO =        -0.00958445
  eigenvalues    EBANDS =       125.26859411
  atomic energy  EATOM  =      2155.34183880
  Solvation  Ediel_sol  =         0.00000000
  ---------------------------------------------------
  free energy    TOTEN  =       -11.48524197 eV

  energy without entropy =      -11.47565752  energy(sigma->0) =      -11.48204715


--------------------------------------------------------------------------------------------------------




--------------------------------------- Iteration      1(   7)  ---------------------------------------


    POTLOK:  cpu time    0.0127: real time    0.0128
    SETDIJ:  cpu time    0.5083: real time    0.5095
     EDDAV:  cpu time    1.0821: real time    1.0849
       DOS:  cpu time    0.0027: real time    0.0028
    CHARGE:  cpu time    0.0850: real time    0.0852
    MIXING:  cpu time    0.0004: real time    0.0004
    --------------------------------------------
      LOOP:  cpu time    1.6913: real time    1.6956

 eigenvalue-minimisations  :  9800
 total energy-change (2. order) : 0.6241135E+00  (-0.2505297E+00)
 number of electron      19.9999986 magnetization       0.0000000
 augmentation part       12.2355827 magnetization       0.0000000

 Broyden mixing:
  rms(total) = 0.26889E+00    rms(broyden)= 0.26888E+00
  rms(prec ) = 0.37084E+00
  weight for this iteration     100.00

 eigenvalues of (default mixing * dielectric matrix)
  average eigenvalue GAMMA=   0.9665
  1.3287  0.6044

 Free energy of the ion-electron system (eV)
  ---------------------------------------------------
  alpha Z        PSCENC =        94.94887387
  Ewald energy   TEWEN  =     -1884.92442377
  -Hartree energ DENC   =      -452.72611512
  -exchange      EXHF   =         0.00000000
  -V(xc)+E(xc)   XCENC  =        61.77554829
  PAW double counting   =      2138.65552401    -2271.41247643
  entropy T*S    EENTRO =        -0.01388526
  eigenvalues    EBANDS =       147.49398718
  atomic energy  EATOM  =      2155.34183880
  Solvation  Ediel_sol  =         0.00000000
  ---------------------------------------------------
  free energy    TOTEN  =       -10.86112842 eV

  energy without entropy =      -10.84724317  energy(sigma->0) =      -10.85650000


--------------------------------------------------------------------------------------------------------




--------------------------------------- Iteration      1(   8)  ---------------------------------------


    POTLOK:  cpu time    0.0120: real time    0.0122
    SETDIJ:  cpu time    0.5249: real time    0.5261
     EDDAV:  cpu time    1.5302: real time    1.5338
       DOS:  cpu time    0.0028: real time    0.0028
    CHARGE:  cpu time    0.0866: real time    0.0868
    MIXING:  cpu time    0.0005: real time    0.0005
    --------------------------------------------
      LOOP:  cpu time    2.1570: real time    2.1622

 eigenvalue-minimisations  : 14416
 total energy-change (2. order) : 0.2709499E-01  (-0.4555873E-02)
 number of electron      19.9999986 magnetization       0.0000000
 augmentation part       12.3021210 magnetization       0.0000000

 Broyden mixing:
  rms(total) = 0.10892E+00    rms(broyden)= 0.10892E+00
  rms(prec ) = 0.13632E+00
  weight for this iteration     100.00

 eigenvalues of (default mixing * dielectric matrix)
  average eigenvalue GAMMA=   1.0432
  1.8565  0.6366  0.6366

 Free energy of the ion-electron system (eV)
  ---------------------------------------------------
  alpha Z        PSCENC =        94.94887387
  Ewald energy   TEWEN  =     -1884.92442377
  -Hartree energ DENC   =      -447.64224707
  -exchange      EXHF   =         0.00000000
  -V(xc)+E(xc)   XCENC  =        61.50275341
  PAW double counting   =      2233.25409555    -2368.69155148
  entropy T*S    EENTRO =        -0.01498221
  eigenvalues    EBANDS =       145.39160947
  atomic energy  EATOM  =      2155.34183880
  Solvation  Ediel_sol  =         0.00000000
  ---------------------------------------------------
  free energy    TOTEN  =       -10.83403343 eV

  energy without entropy =      -10.81905122  energy(sigma->0) =      -10.82903936


--------------------------------------------------------------------------------------------------------




--------------------------------------- Iteration      1(   9)  ---------------------------------------


    POTLOK:  cpu time    0.0124: real time    0.0126
    SETDIJ:  cpu time    0.4999: real time    0.5011
     EDDAV:  cpu time    1.4826: real time    1.4865
       DOS:  cpu time    0.0029: real time    0.0029
    CHARGE:  cpu time    0.0916: real time    0.0918
    MIXING:  cpu time    0.0005: real time    0.0005
    --------------------------------------------
      LOOP:  cpu time    2.0899: real time    2.0954

 eigenvalue-minimisations  : 13952
 total energy-change (2. order) : 0.3806457E-02  (-0.4369213E-03)
 number of electron      19.9999986 magnetization      -0.0000000
 augmentation part       12.3164210 magnetization      -0.0000000

 Broyden mixing:
  rms(total) = 0.36682E-01    rms(broyden)= 0.36680E-01
  rms(prec ) = 0.51537E-01
  weight for this iteration     100.00

 eigenvalues of (default mixing * dielectric matrix)
  average eigenvalue GAMMA=   1.0629
  2.1241  0.8531  0.6812  0.5933

 Free energy of the ion-electron system (eV)
  ---------------------------------------------------
  alpha Z        PSCENC =        94.94887387
  Ewald energy   TEWEN  =     -1884.92442377
  -Hartree energ DENC   =      -446.20067871
  -exchange      EXHF   =         0.00000000
  -V(xc)+E(xc)   XCENC  =        61.42725051
  PAW double counting   =      2264.73799967    -2401.13329570
  entropy T*S    EENTRO =        -0.01586120
  eigenvalues    EBANDS =       144.98806956
  atomic energy  EATOM  =      2155.34183880
  Solvation  Ediel_sol  =         0.00000000
  ---------------------------------------------------
  free energy    TOTEN  =       -10.83022697 eV

  energy without entropy =      -10.81436577  energy(sigma->0) =      -10.82493990


--------------------------------------------------------------------------------------------------------




--------------------------------------- Iteration      1(  10)  ---------------------------------------


    POTLOK:  cpu time    0.0128: real time    0.0130
    SETDIJ:  cpu time    0.5303: real time    0.5316
     EDDAV:  cpu time    1.7214: real time    1.7256
       DOS:  cpu time    0.0028: real time    0.0028
    CHARGE:  cpu time    0.0969: real time    0.0971
    MIXING:  cpu time    0.0005: real time    0.0005
    --------------------------------------------
      LOOP:  cpu time    2.3647: real time    2.3706

 eigenvalue-minimisations  : 16232
 total energy-change (2. order) : 0.1105113E-02  (-0.1558912E-03)
 number of electron      19.9999986 magnetization       0.0000000
 augmentation part       12.3253757 magnetization       0.0000000

 Broyden mixing:
  rms(total) = 0.77795E-02    rms(broyden)= 0.77608E-02
  rms(prec ) = 0.90932E-02
  weight for this iteration     100.00

 eigenvalues of (default mixing * dielectric matrix)
  average eigenvalue GAMMA=   1.1011
  2.1827  1.0371  1.0371  0.6242  0.6242

 Free energy of the ion-electron system (eV)
  ---------------------------------------------------
  alpha Z        PSCENC =        94.94887387
  Ewald energy   TEWEN  =     -1884.92442377
  -Hartree energ DENC   =      -445.07262255
  -exchange      EXHF   =         0.00000000
  -V(xc)+E(xc)   XCENC  =        61.37044149
  PAW double counting   =      2292.14123687    -2429.34788810
  entropy T*S    EENTRO =        -0.01687260
  eigenvalues    EBANDS =       144.73029414
  atomic energy  EATOM  =      2155.34183880
  Solvation  Ediel_sol  =         0.00000000
  ---------------------------------------------------
  free energy    TOTEN  =       -10.82912186 eV

  energy without entropy =      -10.81224926  energy(sigma->0) =      -10.82349766


--------------------------------------------------------------------------------------------------------




--------------------------------------- Iteration      1(  11)  ---------------------------------------


    POTLOK:  cpu time    0.0125: real time    0.0126
    SETDIJ:  cpu time    0.5230: real time    0.5243
     EDDAV:  cpu time    1.4502: real time    1.4537
       DOS:  cpu time    0.0028: real time    0.0028
    CHARGE:  cpu time    0.0975: real time    0.0977
    MIXING:  cpu time    0.0006: real time    0.0006
    --------------------------------------------
      LOOP:  cpu time    2.0866: real time    2.0917

 eigenvalue-minimisations  : 13664
 total energy-change (2. order) :-0.5680082E-04  (-0.1564616E-04)
 number of electron      19.9999986 magnetization       0.0000000
 augmentation part       12.3250135 magnetization       0.0000000

 Broyden mixing:
  rms(total) = 0.39604E-02    rms(broyden)= 0.39520E-02
  rms(prec ) = 0.63934E-02
  weight for this iteration     100.00

 eigenvalues of (default mixing * dielectric matrix)
  average eigenvalue GAMMA=   1.1406
  2.2627  1.4368  0.6151  0.6427  0.9433  0.9433

 Free energy of the ion-electron system (eV)
  ---------------------------------------------------
  alpha Z        PSCENC =        94.94887387
  Ewald energy   TEWEN  =     -1884.92442377
  -Hartree energ DENC   =      -445.14665172
  -exchange      EXHF   =         0.00000000
  -V(xc)+E(xc)   XCENC  =        61.37477126
  PAW double counting   =      2291.24521316    -2428.39037062
  entropy T*S    EENTRO =        -0.01699138
  eigenvalues    EBANDS =       144.73856174
  atomic energy  EATOM  =      2155.34183880
  Solvation  Ediel_sol  =         0.00000000
  ---------------------------------------------------
  free energy    TOTEN  =       -10.82917866 eV

  energy without entropy =      -10.81218728  energy(sigma->0) =      -10.82351486


--------------------------------------------------------------------------------------------------------




--------------------------------------- Iteration      1(  12)  ---------------------------------------


    POTLOK:  cpu time    0.0128: real time    0.0129
    SETDIJ:  cpu time    0.5141: real time    0.5153
     EDDAV:  cpu time    1.5195: real time    1.5231
       DOS:  cpu time    0.0029: real time    0.0029
    CHARGE:  cpu time    0.0958: real time    0.0961
    MIXING:  cpu time    0.0006: real time    0.0006
    --------------------------------------------
      LOOP:  cpu time    2.1457: real time    2.1509

 eigenvalue-minimisations  : 14424
 total energy-change (2. order) : 0.6516621E-05  (-0.5566057E-05)
 number of electron      19.9999986 magnetization       0.0000000
 augmentation part       12.3264443 magnetization       0.0000000

 Broyden mixing:
  rms(total) = 0.24439E-02    rms(broyden)= 0.24350E-02
  rms(prec ) = 0.25547E-02
  weight for this iteration     100.00

 eigenvalues of (default mixing * dielectric matrix)
  average eigenvalue GAMMA=   1.1376
  2.4719  1.7292  0.9831  0.9831  0.6385  0.6121  0.5454

 Free energy of the ion-electron system (eV)
  ---------------------------------------------------
  alpha Z        PSCENC =        94.94887387
  Ewald energy   TEWEN  =     -1884.92442377
  -Hartree energ DENC   =      -445.01371227
  -exchange      EXHF   =         0.00000000
  -V(xc)+E(xc)   XCENC  =        61.36847947
  PAW double counting   =      2295.84754753    -2433.07299699
  entropy T*S    EENTRO =        -0.01722489
  eigenvalues    EBANDS =       144.69244610
  atomic energy  EATOM  =      2155.34183880
  Solvation  Ediel_sol  =         0.00000000
  ---------------------------------------------------
  free energy    TOTEN  =       -10.82917214 eV

  energy without entropy =      -10.81194726  energy(sigma->0) =      -10.82343051


--------------------------------------------------------------------------------------------------------




--------------------------------------- Iteration      1(  13)  ---------------------------------------


    POTLOK:  cpu time    0.0123: real time    0.0124
    SETDIJ:  cpu time    0.5098: real time    0.5110
     EDDAV:  cpu time    1.1432: real time    1.1459
       DOS:  cpu time    0.0029: real time    0.0029
    CHARGE:  cpu time    0.0971: real time    0.0973
    MIXING:  cpu time    0.0006: real time    0.0006
[...]
     16      33.9984      0.00000

 k-point   138 :      -0.2727   -0.0000    0.3636
  band No.  band energies     occupation 
      1       4.2156      1.00000
      2       4.8316      1.00000
      3       6.2408      1.00000
      4       6.8302      1.00000
      5       7.2518      1.00000
      6       7.9653      1.00000
      7       7.9815      1.00000
      8       8.4117      1.00000
      9       8.7392      1.00004
     10       8.7835      1.00016
     11       9.1007      1.03423
     12      10.2033     -0.00000
     13      21.0734      0.00000
     14      25.1997      0.00000
     15      26.6878      0.00000
     16      27.6063      0.00000

 k-point   139 :      -0.1818   -0.0000    0.3636
  band No.  band energies     occupation 
      1       3.5557      1.00000
      2       3.7403      1.00000
      3       6.5515      1.00000
      4       6.8307      1.00000
      5       7.4615      1.00000
      6       7.6821      1.00000
      7       7.9596      1.00000
      8       8.1349      1.00000
      9       8.2969      1.00000
     10       8.8360      1.00059
     11       9.0799      1.03085
     12       9.4096      0.31546
     13      24.5919      0.00000
     14      25.0812      0.00000
     15      25.8763      0.00000
     16      29.5925      0.00000

 k-point   140 :      -0.0909   -0.0000    0.3636
  band No.  band energies     occupation 
      1       2.3882      1.00000
      2       3.5494      1.00000
      3       6.8601      1.00000
      4       7.0956      1.00000
      5       7.4961      1.00000
      6       7.6204      1.00000
      7       7.7823      1.00000
      8       7.9406      1.00000
      9       8.3548      1.00000
     10       8.7848      1.00016
     11       8.9089      1.00293
     12       9.0249      1.01857
     13      22.5502      0.00000
     14      26.3015      0.00000
     15      30.2269      0.00000
     16      31.9191      0.00000

 k-point   141 :       0.0000    0.0909    0.3636
  band No.  band energies     occupation 
      1       2.1730      1.00000
      2       3.7856      1.00000
      3       6.9048      1.00000
      4       7.1075      1.00000
      5       7.4984      1.00000
      6       7.5986      1.00000
      7       7.8135      1.00000
      8       7.9140      1.00000
      9       8.3992      1.00000
     10       8.6099      1.00000
     11       8.8081      1.00030
     12       9.2899      0.79345
     13      21.8473      0.00000
     14      27.0768      0.00000
     15      29.6652      0.00000
     16      32.7042      0.00000

 k-point   142 :      -0.1818    0.0909    0.3636
  band No.  band energies     occupation 
      1       4.1173      1.00000
      2       4.3566      1.00000
      3       6.4221      1.00000
      4       6.6517      1.00000
      5       7.3217      1.00000
      6       7.5853      1.00000
      7       8.1939      1.00000
      8       8.3349      1.00000
      9       8.5622      1.00000
     10       8.6960      1.00001
     11       9.3506      0.55978
     12       9.7634     -0.00817
     13      23.2930      0.00000
     14      25.4409      0.00000
     15      25.6621      0.00000
     16      26.1869      0.00000

 k-point   143 :      -0.0909    0.0909    0.3636
  band No.  band energies     occupation 
      1       3.1020      1.00000
      2       3.7744      1.00000
      3       6.6876      1.00000
      4       6.8352      1.00000
      5       7.4366      1.00000
      6       7.6917      1.00000
      7       7.8731      1.00000
      8       8.1873      1.00000
      9       8.3428      1.00000
     10       8.5589      1.00000
     11       9.1068      1.03487
     12       9.3650      0.49879
     13      23.6870      0.00000
     14      25.9234      0.00000
     15      27.6567      0.00000
     16      27.9780      0.00000

 k-point   144 :       0.0000    0.1818    0.3636
  band No.  band energies     occupation 
      1       3.1139      1.00000
      2       4.2236      1.00000
      3       6.6245      1.00000
      4       6.7967      1.00000
      5       7.3772      1.00000
      6       7.7913      1.00000
      7       7.9250      1.00000
      8       8.1969      1.00000
      9       8.3740      1.00000
     10       8.4797      1.00000
     11       8.9618      1.00763
     12       9.7661     -0.00782
     13      23.1531      0.00000
     14      25.3332      0.00000
     15      26.8652      0.00000
     16      30.0208      0.00000

 k-point   145 :       0.0000    0.0000    0.4545
  band No.  band energies     occupation 
      1       2.3518      1.00000
      2       3.0700      1.00000
      3       6.9523      1.00000
      4       7.2737      1.00000
      5       7.5066      1.00000
      6       7.5066      1.00000
      7       7.8337      1.00000
      8       7.8337      1.00000
      9       8.5956      1.00000
     10       8.5956      1.00000
     11       8.8039      1.00027
     12       8.8039      1.00027
     13      23.0723      0.00000
     14      25.3207      0.00000
     15      33.2149      0.00000
     16      33.6406      0.00000

 k-point   146 :      -0.0909   -0.0000    0.4545
  band No.  band energies     occupation 
      1       2.8402      1.00000
      2       3.0805      1.00000
      3       6.8384      1.00000
      4       7.0643      1.00000
      5       7.5269      1.00000
      6       7.6281      1.00000
      7       7.7979      1.00000
      8       7.9578      1.00000
      9       8.4475      1.00000
     10       8.5600      1.00000
     11       8.8955      1.00224
     12       9.0667      1.02808
     13      24.0219      0.00000
     14      24.7698      0.00000
     15      29.8883      0.00000
     16      32.3209      0.00000


--------------------------------------------------------------------------------------------------------


 soft charge-density along one line, spin component           1
         0         1         2         3         4         5         6         7         8         9
 total charge-density along one line
 
 soft charge-density along one line, spin component           2
         0         1         2         3         4         5         6         7         8         9
 total charge-density along one line
 
 pseudopotential strength for first ion, spin component:           1
 -0.286  -0.000  -0.000  -0.004  -0.000  -0.976  -0.000  -0.000
 -0.000  -0.193  -0.000  -0.000  -0.004  -0.000  -0.888  -0.000
 -0.000  -0.000  -0.302   0.000  -0.000  -0.000  -0.000  -0.992
 -0.004  -0.000   0.000  -0.193  -0.000  -0.004  -0.000   0.000
 -0.000  -0.004  -0.000  -0.000  -0.286  -0.000  -0.004  -0.000
 -0.976  -0.000  -0.000  -0.004  -0.000  -1.595  -0.000  -0.000
 -0.000  -0.888  -0.000  -0.000  -0.004  -0.000  -1.511  -0.000
 -0.000  -0.000  -0.992   0.000  -0.000  -0.000  -0.000  -1.610
 -0.004  -0.000   0.000  -0.888  -0.000  -0.004  -0.000   0.000
 -0.000  -0.004  -0.000  -0.000  -0.976  -0.000  -0.004  -0.000
 -0.000  -0.000  -0.007   0.000  -0.000  -0.000  -0.000  -0.007
 -0.000  -0.000  -0.012   0.000  -0.000  -0.000  -0.000  -0.012
 -0.000  -0.000   0.000  -0.000  -0.000  -0.000   0.000   0.000
 -0.000  -0.000   0.000  -0.000   0.000  -0.000  -0.000   0.000
 -0.000  -0.000   0.000   0.000  -0.000  -0.000  -0.000   0.000
 -0.000   0.000   0.000  -0.000  -0.000  -0.000   0.000   0.000
 -0.000  -0.000   0.000  -0.000   0.000  -0.000  -0.000   0.000
 -0.000  -0.000   0.000   0.000  -0.000  -0.000  -0.000   0.000
 pseudopotential strength for first ion, spin component:           2
 -0.007  -0.000  -0.000  -0.022  -0.000  -0.711  -0.000  -0.000
 -0.000  -0.065  -0.000   0.000  -0.022  -0.000  -0.766  -0.000
 -0.000  -0.000   0.011   0.000  -0.000  -0.000  -0.000  -0.694
 -0.022   0.000   0.000  -0.065  -0.000  -0.021   0.000   0.000
 -0.000  -0.022  -0.000  -0.000  -0.007  -0.000  -0.021  -0.000
 -0.711  -0.000  -0.000  -0.021  -0.000  -1.342  -0.000  -0.000
 -0.000  -0.766  -0.000   0.000  -0.021  -0.000  -1.394  -0.000
 -0.000  -0.000  -0.694   0.000  -0.000  -0.000  -0.000  -1.326
 -0.021   0.000   0.000  -0.766  -0.000  -0.020   0.000   0.000
 -0.000  -0.021  -0.000  -0.000  -0.711  -0.000  -0.020  -0.000
 -0.000   0.000   0.005  -0.000  -0.000  -0.000   0.000   0.005
 -0.000   0.000   0.009  -0.000  -0.000  -0.000   0.000   0.009
 -0.000  -0.000   0.000  -0.000  -0.000  -0.000  -0.000   0.000
 -0.000  -0.000  -0.000  -0.000  -0.000  -0.000  -0.000  -0.000
 -0.000  -0.000   0.000  -0.000  -0.000  -0.000  -0.000   0.000
 -0.000  -0.000   0.000   0.000  -0.000  -0.000  -0.000   0.000
  0.000  -0.000  -0.000  -0.000   0.000   0.000  -0.000  -0.000
 -0.000   0.000   0.000  -0.000  -0.000  -0.000   0.000   0.000
 total augmentation occupancy for first ion, spin component:           1
  2.963  -0.000   0.000  -0.385   0.000  -1.358   0.000  -0.000   0.180  -0.000  -0.000  -0.000   0.000   0.000  -0.000  -0.000
 -0.000   3.241  -0.000  -0.000  -0.385   0.000  -1.477   0.000   0.000   0.181   0.000   0.000   0.000   0.000   0.000   0.000
  0.000  -0.000   2.699  -0.000  -0.000  -0.000   0.000  -1.241   0.000   0.000  -0.008  -0.001  -0.000  -0.000   0.000   0.000
 -0.385  -0.000  -0.000   3.241  -0.000   0.181   0.000   0.000  -1.477   0.000   0.000   0.000   0.000  -0.000  -0.000   0.000
  0.000  -0.385  -0.000  -0.000   2.963  -0.000   0.180   0.000   0.000  -1.358   0.000   0.000   0.000  -0.000   0.000   0.000
 -1.358   0.000  -0.000   0.181  -0.000   1.498  -0.000   0.000  -0.028   0.000   0.000   0.000   0.000   0.000   0.000   0.000
  0.000  -1.477   0.000   0.000   0.180  -0.000   1.509  -0.000  -0.000  -0.028  -0.000  -0.000  -0.000  -0.000   0.000  -0.000
 -0.000   0.000  -1.241   0.000   0.000   0.000  -0.000   1.490  -0.000  -0.000   0.004   0.001   0.000  -0.000   0.000   0.000
  0.180   0.000   0.000  -1.477   0.000  -0.028  -0.000  -0.000   1.509  -0.000  -0.000  -0.000   0.000  -0.000  -0.000  -0.000
 -0.000   0.181   0.000   0.000  -1.358   0.000  -0.028  -0.000  -0.000   1.498  -0.000  -0.000   0.000   0.000   0.000  -0.000
 -0.000   0.000  -0.008   0.000   0.000   0.000  -0.000   0.004  -0.000  -0.000   2.333  -0.327   0.000   0.000   0.000  -0.000
 -0.000   0.000  -0.001   0.000   0.000   0.000  -0.000   0.001  -0.000  -0.000  -0.327   0.053   0.000   0.000   0.000   0.000
  0.000  -0.000   0.000   0.000  -0.000   0.000  -0.000   0.000  -0.000   0.000   0.000   0.000   0.310  -0.000  -0.000  -0.034
  0.000   0.000   0.000  -0.000   0.000  -0.000   0.000  -0.000  -0.000   0.000   0.000  -0.000  -0.000   0.310  -0.000   0.000
  0.000   0.000   0.000   0.000   0.000   0.000   0.000   0.000   0.000   0.000   0.000   0.000  -0.000  -0.000   0.310   0.000
 -0.000   0.000  -0.000   0.000   0.000   0.000   0.000  -0.000   0.000   0.000   0.000   0.000  -0.034   0.000   0.000   0.004
 -0.000   0.000   0.000  -0.000  -0.000   0.000   0.000   0.000   0.000   0.000  -0.000  -0.000   0.000  -0.034   0.000  -0.000
  0.000  -0.000  -0.000   0.000   0.000  -0.000  -0.000   0.000   0.000  -0.000   0.000   0.000   0.000   0.000  -0.034  -0.000
 total augmentation occupancy for first ion, spin component:           2
  0.571  -0.000   0.000  -0.083   0.000  -0.305   0.000  -0.000   0.048  -0.000  -0.000  -0.000   0.000   0.000  -0.000  -0.000
 -0.000   0.009  -0.000  -0.000  -0.083   0.000   0.005   0.000  -0.000   0.056   0.000   0.000   0.000   0.000   0.000   0.000
  0.000  -0.000   0.585  -0.000  -0.000  -0.000   0.000  -0.312   0.000   0.000  -0.004  -0.002   0.000   0.000   0.000  -0.000
 -0.083  -0.000  -0.000   0.009   0.000   0.056  -0.000   0.000   0.005  -0.000   0.000   0.000   0.000   0.000   0.000  -0.000
  0.000  -0.083  -0.000   0.000   0.571  -0.000   0.048   0.000  -0.000  -0.305   0.000   0.000   0.000   0.000  -0.000   0.000
 -0.305   0.000  -0.000   0.056  -0.000   0.132  -0.000   0.000  -0.032   0.000   0.000   0.000  -0.000   0.000   0.000  -0.000
  0.000   0.005   0.000  -0.000   0.048  -0.000  -0.021  -0.000   0.000  -0.032  -0.000  -0.000   0.000   0.000   0.000   0.000
 -0.000   0.000  -0.312   0.000   0.000   0.000  -0.000   0.135  -0.000  -0.000   0.005   0.003   0.000   0.000   0.000   0.000
  0.048  -0.000   0.000   0.005  -0.000  -0.032   0.000  -0.000  -0.021   0.000  -0.000  -0.000   0.000   0.000   0.000  -0.000
 -0.000   0.056   0.000  -0.000  -0.305   0.000  -0.032  -0.000   0.000   0.132  -0.000  -0.000   0.000  -0.000   0.000   0.000
 -0.000   0.000  -0.004   0.000   0.000   0.000  -0.000   0.005  -0.000  -0.000  -0.043   0.016  -0.000   0.000   0.000   0.000
 -0.000   0.000  -0.002   0.000   0.000   0.000  -0.000   0.003  -0.000  -0.000   0.016  -0.003   0.000   0.000  -0.000  -0.000
 -0.000   0.000   0.000   0.000   0.000   0.000   0.000  -0.000   0.000  -0.000  -0.000   0.000  -0.003  -0.000   0.000   0.001
 -0.000  -0.000   0.000   0.000   0.000   0.000   0.000   0.000  -0.000  -0.000   0.000   0.000  -0.000   0.000  -0.000  -0.000
  0.000   0.000   0.000   0.000   0.000   0.000  -0.000   0.000   0.000   0.000   0.000   0.000   0.000  -0.000  -0.003  -0.000
  0.000   0.000   0.000   0.000   0.000  -0.000   0.000   0.000   0.000  -0.000   0.000  -0.000   0.001  -0.000  -0.000  -0.000
 -0.000   0.000   0.000  -0.000   0.000   0.000   0.000   0.000   0.000   0.000   0.000   0.000  -0.000   0.001  -0.000   0.000
 -0.000  -0.000  -0.000  -0.000   0.000   0.000   0.000   0.000  -0.000   0.000   0.000   0.000  -0.000  -0.000   0.001   0.000


------------------------ aborting loop because EDIFF is reached ----------------------------------------


 


 total charge     
 
# of ion       s       p       d       tot
------------------------------------------
    1        0.501   0.506   8.327   9.334
    2        0.501   0.506   8.327   9.334
--------------------------------------------------
tot          1.001   1.013  16.653  18.668
 


 magnetization (x)
 
# of ion       s       p       d       tot
------------------------------------------
    1       -0.001  -0.000   0.263   0.262
    2        0.001   0.000  -0.263  -0.262
--------------------------------------------------
tot         -0.000  -0.000  -0.000  -0.000
 
    CHARGE:  cpu time    0.0982: real time    0.0984
    FORLOC:  cpu time    0.0003: real time    0.0003
    FORNL :  cpu time    0.0985: real time    0.0987
    STRESS:  cpu time    0.3581: real time    0.3590
    FORCOR:  cpu time    0.0119: real time    0.0120
    FORHAR:  cpu time    0.0012: real time    0.0012
    MIXING:  cpu time    0.0005: real time    0.0005
    OFIELD:  cpu time    0.0000: real time    0.0000

  FORCE on cell =-STRESS in cart. coord.  units (eV):
  Direction    XX          YY          ZZ          XY          YZ          ZX
  --------------------------------------------------------------------------------------
  Alpha Z    94.94887    94.94887    94.94887
  Ewald    -628.30859  -628.30859  -628.30856     0.00001    -0.00000     0.00001
  Hartree   148.31453   148.31450   148.38769    -0.00002    -0.00000     0.00000
  E(xc)    -110.05628  -110.05628  -110.06268     0.00000    -0.00000     0.00000
  Local       2.41046     2.41044     2.08139     0.00015    -0.00003     0.00005
  n-local   -14.98198   -15.75669   -15.58213     1.08433     2.09280    -0.43080
  augment   351.87640   351.87665   352.20622     0.00010     0.00015    -0.00025
  Kinetic   156.66754   156.17793   156.60695    -2.16789     1.08850    -0.08828
  Fock        0.00000     0.00000     0.00000     0.00000     0.00000     0.00000
  -------------------------------------------------------------------------------------
  Total       0.23891     0.23891     0.27776    -0.00000    -0.00000    -0.00000
  in kB      17.81617    17.81617    20.71324    -0.00000    -0.00000    -0.00000
  external pressure =       18.78 kB  Pullay stress =        0.00 kB


 VOLUME and BASIS-vectors are now :
 -----------------------------------------------------------------------------
  energy-cutoff  :      520.00
  volume of cell :       21.48
      direct lattice vectors                 reciprocal lattice vectors
     2.476700100  0.000000000  0.000000000     0.403763056 -0.233112700 -0.164835576
     1.238350000  2.144885200  0.000000000     0.000000000  0.466225418  0.082417792
     1.238350000 -0.714961740  4.044434200     0.000000000  0.000000000  0.247253374

  length of vectors
     2.476700100  2.476700071  4.289770275     0.494506727  0.473454151  0.247253374


 FORCES acting on ions
    electron-ion (+dipol)            ewald-force                    non-local-force                 convergence-correction
 -----------------------------------------------------------------------------------------------
   0.783E-13 0.416E-13 0.206E-13   0.880E-14 -.262E-14 -.321E-13   -.114E-22 0.517E-24 0.000E+00   0.747E-13 0.289E-13 0.305E-13
   0.355E-12 0.367E-12 0.309E-12   0.852E-14 -.302E-14 0.322E-13   0.269E-23 0.116E-22 0.000E+00   0.825E-13 0.211E-13 0.470E-14
 -----------------------------------------------------------------------------------------------
   0.433E-12 0.409E-12 0.329E-12   0.173E-13 -.564E-14 0.651E-16   -.869E-23 0.121E-22 0.000E+00   0.157E-12 0.500E-13 0.352E-13
 
 
 POSITION                                       TOTAL-FORCE (eV/Angst)
 -----------------------------------------------------------------------------------
      0.00000      0.00000      0.00000        -0.000000     -0.000000      0.000000
      1.23835      0.71496      2.02222         0.000000      0.000000      0.000000
 -----------------------------------------------------------------------------------
    total drift:                                0.000000      0.000000      0.000000


--------------------------------------------------------------------------------------------------------



  FREE ENERGIE OF THE ION-ELECTRON SYSTEM (eV)
  ---------------------------------------------------
  free  energy   TOTEN  =       -10.82918626 eV

  energy  without entropy=      -10.81179715  energy(sigma->0) =      -10.82338989
 


--------------------------------------------------------------------------------------------------------


    POTLOK:  cpu time    0.5222: real time    0.5235


--------------------------------------------------------------------------------------------------------


     LOOP+:  cpu time   25.5738: real time   25.6521
    4ORBIT:  cpu time    0.0000: real time    0.0000
 


 total charge     
 
# of ion       s       p       d       tot
------------------------------------------
    1        0.501   0.506   8.327   9.334
    2        0.501   0.506   8.327   9.334
--------------------------------------------------
tot          1.001   1.013  16.653  18.668
 


 magnetization (x)
 
# of ion       s       p       d       tot
------------------------------------------
    1       -0.001  -0.000   0.263   0.262
    2        0.001   0.000  -0.263  -0.262
--------------------------------------------------
tot         -0.000  -0.000  -0.000  -0.000
 

 total amount of memory used by VASP MPI-rank0    50796. kBytes
=======================================================================

   base      :      30000. kBytes
   nonl-proj :      12633. kBytes
   fftplans  :        432. kBytes
   grid      :       1689. kBytes
   one-center:         62. kBytes
   wavefun   :       5980. kBytes
 
  
  
 General timing and accounting informations for this job:
 ========================================================
  
                  Total CPU time used (sec):       26.956
                            User time (sec):       26.600
                          System time (sec):        0.356
                         Elapsed time (sec):       28.041
  
                   Maximum memory used (kb):       78996.
                   Average memory used (kb):           0.
  
                          Minor page faults:        20465
                          Major page faults:            0
                 Voluntary context switches:         1333
