=========================================
SLURM_JOB_ID = 51706461
SLURM_JOB_NODELIST = lnode43
SLURM_GPUS = 
SLURM_CPUS_ON_NODE = 24
SLURM_JOB_PARTITION = lenovo
SLURM_TASK_PID = 454298
CUDA_VISIBLE_DEVICES = 
==========================================
 running on   24 total cores
 distrk:  each k-point on   24 cores,    1 groups
 distr:  one band on    4 cores,    6 groups
 using from now: INCAR     
 vasp.5.4.4.18Apr17-6-g9f103f2a35 (build Apr 28 2018 00:24:27) complex          
  
 POSCAR found type information on POSCAR  Fe O 
 POSCAR found :  2 types and      30 ions
 scaLAPACK will be used
 LDA part: xc-table for Pade appr. of Perdew
 POSCAR, INCAR and KPOINTS ok, starting setup
 FFT: planning ...
 WAVECAR not read
 entering main loop
       N       E                     dE             d eps       ncg     rms          rms(c)
DAV:   1     0.485362844262E+04    0.48536E+04   -0.17161E+05 11448   0.238E+03
DAV:   2     0.587711258291E+03   -0.42659E+04   -0.39015E+04 11424   0.651E+02
DAV:   3    -0.233453698869E+03   -0.82116E+03   -0.71481E+03 11844   0.268E+02
DAV:   4    -0.293800383647E+03   -0.60347E+02   -0.59617E+02 12960   0.707E+01
DAV:   5    -0.294498520966E+03   -0.69814E+00   -0.69614E+00 12780   0.857E+00    0.809E+01
DAV:   6    -0.235298363928E+03    0.59200E+02   -0.25298E+02 14796   0.810E+01    0.912E+01
DAV:   7    -0.212051883778E+03    0.23246E+02   -0.11409E+02 12228   0.635E+01    0.437E+01
DAV:   8    -0.218308853206E+03   -0.62570E+01   -0.21392E+01 12120   0.172E+01    0.265E+01
DAV:   9    -0.222494787771E+03   -0.41859E+01   -0.81927E+00 12588   0.169E+01    0.271E+01
DAV:  10    -0.222162355471E+03    0.33243E+00   -0.24537E+00 12600   0.689E+00    0.186E+01
DAV:  11    -0.221599940542E+03    0.56241E+00   -0.22674E-01 14268   0.281E+00    0.122E+01
DAV:  12    -0.221397766830E+03    0.20217E+00   -0.19569E-01 15276   0.240E+00    0.844E+00
DAV:  13    -0.221396318496E+03    0.14483E-02   -0.11159E-01 13944   0.224E+00    0.470E+00
DAV:  14    -0.221440735045E+03   -0.44417E-01   -0.15305E-01 14988   0.201E+00    0.182E+00
DAV:  15    -0.221458741962E+03   -0.18007E-01   -0.63589E-02 12660   0.677E-01    0.144E+00
DAV:  16    -0.221453669128E+03    0.50728E-02   -0.90403E-03 14328   0.706E-01    0.382E-01
DAV:  17    -0.221454289513E+03   -0.62038E-03   -0.48094E-03 12468   0.181E-01    0.194E-01
DAV:  18    -0.221454528773E+03   -0.23926E-03   -0.25465E-04 14052   0.812E-02    0.872E-02
DAV:  19    -0.221454585239E+03   -0.56466E-04   -0.10028E-04 13596   0.433E-02    0.171E-02
DAV:  20    -0.221454594061E+03   -0.88213E-05   -0.23176E-05 12444   0.144E-02    0.918E-03
DAV:  21    -0.221454591876E+03    0.21844E-05   -0.24066E-06 12636   0.893E-03    0.111E-02
DAV:  22    -0.221454592999E+03   -0.11231E-05   -0.95204E-07 10716   0.508E-03    0.513E-03
DAV:  23    -0.221454593184E+03   -0.18474E-06   -0.29599E-07  9756   0.329E-03    0.643E-04
DAV:  24    -0.221454592785E+03    0.39920E-06   -0.92031E-08  6540   0.868E-04    0.460E-04
DAV:  25    -0.221454592671E+03    0.11421E-06   -0.64666E-09  6216   0.317E-04    0.268E-04
DAV:  26    -0.221454592579E+03    0.91924E-07   -0.10692E-09  6204   0.112E-04
   1 F= -.22145459E+03 E0= -.22145459E+03  d E =0.000000E+00  mag=    42.3353
