 vasp.5.4.4.18Apr17-6-g9f103f2a35 (build Apr 28 2018 00:24:27) complex          
  
 executed on             LinuxIFC date 2021.09.06  03:48:13
 running on   24 total cores
 distrk:  each k-point on   24 cores,    1 groups
 distr:  one band on NCORES_PER_BAND=   4 cores,    6 groups


--------------------------------------------------------------------------------------------------------


 INCAR:
 POTCAR:    PAW_PBE Fe_pv 02Aug2007               
 POTCAR:    PAW_PBE O 08Apr2002                   
 POTCAR:    PAW_PBE Fe_pv 02Aug2007               
   VRHFIN =Fe:  3pd7s1                                                          
   LEXCH  = PE                                                                  
   EATOM  =  2457.4239 eV,  180.6156 Ry                                         
                                                                                
   TITEL  = PAW_PBE Fe_pv 02Aug2007                                             
   LULTRA =        F    use ultrasoft PP ?                                      
   IUNSCR =        1    unscreen: 0-lin 1-nonlin 2-no                           
   RPACOR =    1.750    partial core radius                                     
   POMASS =   55.847; ZVAL   =   14.000    mass and valenz                      
   RCORE  =    2.200    outmost cutoff radius                                   
   RWIGS  =    2.200; RWIGS  =    1.164    wigner-seitz radius (au A)           
   ENMAX  =  293.238; ENMIN  =  219.928 eV                                      
   ICORE  =        3    local potential                                         
   LCOR   =        T    correct aug charges                                     
   LPAW   =        T    paw PP                                                  
   EAUG   =  578.342                                                            
   DEXC   =    0.000                                                            
   RMAX   =    2.249    core radius for proj-oper                               
   RAUG   =    1.300    factor for augmentation sphere                          
   RDEP   =    2.296    radius for radial grids                                 
   RDEPT  =    1.766    core radius for aug-charge                              
                                                                                
   Atomic configuration                                                         
    8 entries                                                                   
     n  l   j            E        occ.                                          
     1  0  0.50     -6993.8440   2.0000                                         
     2  0  0.50      -814.6047   2.0000                                         
     2  1  1.50      -693.3689   6.0000                                         
     3  0  0.50       -89.4732   2.0000                                         
     3  1  1.50       -55.6373   6.0000                                         
     3  2  2.50        -3.8151   7.0000                                         
     4  0  0.50        -4.2551   1.0000                                         
     4  3  2.50        -1.3606   0.0000                                         
   Description                                                                  
     l       E           TYP  RCUT    TYP  RCUT                                 
     1    -55.6372668     23  2.000                                             
     1     -5.4423304     23  2.000                                             
     2     -3.8151096     23  2.200                                             
     2     -5.1756922     23  2.200                                             
     0     -4.2550951     23  2.200                                             
     0     27.2116520     23  2.200                                             
     3     -1.3605826     23  2.200                                             
  local pseudopotential read in
  partial core-charges read in
  partial kinetic energy density read in
  atomic valenz-charges read in
  non local Contribution for L=           1  read in
    real space projection operators read in
  non local Contribution for L=           1  read in
    real space projection operators read in
  non local Contribution for L=           2  read in
    real space projection operators read in
  non local Contribution for L=           2  read in
    real space projection operators read in
  non local Contribution for L=           0  read in
    real space projection operators read in
  non local Contribution for L=           0  read in
    real space projection operators read in
    PAW grid and wavefunctions read in
 
   number of l-projection  operators is LMAX  =           6
   number of lm-projection operators is LMMAX =          18
 
 POTCAR:    PAW_PBE O 08Apr2002                   
   VRHFIN =O: s2p4                                                              
   LEXCH  = PE                                                                  
   EATOM  =   432.3788 eV,   31.7789 Ry                                         
                                                                                
   TITEL  = PAW_PBE O 08Apr2002                                                 
   LULTRA =        F    use ultrasoft PP ?                                      
   IUNSCR =        1    unscreen: 0-lin 1-nonlin 2-no                           
   RPACOR =    1.200    partial core radius                                     
   POMASS =   16.000; ZVAL   =    6.000    mass and valenz                      
   RCORE  =    1.520    outmost cutoff radius                                   
   RWIGS  =    1.550; RWIGS  =    0.820    wigner-seitz radius (au A)           
   ENMAX  =  400.000; ENMIN  =  300.000 eV                                      
   ICORE  =        2    local potential                                         
   LCOR   =        T    correct aug charges                                     
   LPAW   =        T    paw PP                                                  
   EAUG   =  605.392                                                            
   DEXC   =    0.000                                                            
   RMAX   =    1.553    core radius for proj-oper                               
   RAUG   =    1.300    factor for augmentation sphere                          
   RDEP   =    1.550    radius for radial grids                                 
   RDEPT  =    1.329    core radius for aug-charge                              
                                                                                
   Atomic configuration                                                         
    4 entries                                                                   
     n  l   j            E        occ.                                          
     1  0  0.50      -514.6923   2.0000                                         
     2  0  0.50       -23.9615   2.0000                                         
     2  1  0.50        -9.0305   4.0000                                         
     3  2  1.50        -9.5241   0.0000                                         
   Description                                                                  
     l       E           TYP  RCUT    TYP  RCUT                                 
     0    -23.9615318     23  1.200                                             
     0     -9.5240782     23  1.200                                             
     1     -9.0304911     23  1.520                                             
     1      8.1634956     23  1.520                                             
     2     -9.5240782      7  1.500                                             
  local pseudopotential read in
  partial core-charges read in
  partial kinetic energy density read in
  kinetic energy density of atom read in
  atomic valenz-charges read in
  non local Contribution for L=           0  read in
    real space projection operators read in
  non local Contribution for L=           0  read in
    real space projection operators read in
  non local Contribution for L=           1  read in
    real space projection operators read in
  non local Contribution for L=           1  read in
    real space projection operators read in
    PAW grid and wavefunctions read in
 
   number of l-projection  operators is LMAX  =           4
   number of lm-projection operators is LMMAX =           8
 
 Optimization of the real space projectors (new method)

 maximal supplied QI-value         = 17.01
 optimisation between [QCUT,QGAM] = [ 14.12, 28.23] = [ 55.80,223.20] Ry 
 Optimized for a Real-space Cutoff    1.27 Angstroem

   l    n(q)    QCUT    max X(q) W(low)/X(q) W(high)/X(q)  e(spline) 
   1     10    14.116     4.267    0.41E-04    0.20E-03    0.42E-06
   1     10    14.116     5.750    0.69E-04    0.31E-03    0.63E-06
   2     10    14.116    53.656    0.62E-04    0.17E-03    0.42E-06
   2     10    14.116    49.521    0.64E-04    0.17E-03    0.43E-06
   0     11    14.116    31.246    0.25E-04    0.61E-04    0.45E-06
   0     11    14.116    12.201    0.18E-04    0.51E-04    0.37E-06
 Optimization of the real space projectors (new method)

 maximal supplied QI-value         = 24.76
 optimisation between [QCUT,QGAM] = [ 14.11, 28.22] = [ 55.76,223.02] Ry 
 Optimized for a Real-space Cutoff    0.97 Angstroem

   l    n(q)    QCUT    max X(q) W(low)/X(q) W(high)/X(q)  e(spline) 
   0      8    14.111    20.381    0.14E-03    0.38E-03    0.59E-07
   0      8    14.111    15.268    0.15E-03    0.41E-03    0.61E-07
   1      8    14.111     5.964    0.66E-04    0.35E-03    0.12E-06
   1      8    14.111     5.382    0.63E-04    0.29E-03    0.11E-06
  PAW_PBE Fe_pv 02Aug2007               :
 energy of atom  1       EATOM=-2457.4239
 kinetic energy error for atom=    0.0014 (will be added to EATOM!!)
  PAW_PBE O 08Apr2002                   :
 energy of atom  2       EATOM= -432.3788
 kinetic energy error for atom=    0.0055 (will be added to EATOM!!)
 
 
 POSCAR: Fe12 O18                                
  positions in direct lattice
  No initial velocities read in
 exchange correlation table for  LEXCH =        8
   RHO(1)=    0.500       N(1)  =     2000
   RHO(2)=  100.500       N(2)  =     4000
 


--------------------------------------------------------------------------------------------------------


 ion  position               nearest neighbor table
   1  0.000  0.000  0.355-  17 1.94  23 1.94  28 1.94  25 2.12  19 2.12  13 2.12
   2  0.000  0.000  0.645-  16 1.94  22 1.94  29 1.94  26 2.12  20 2.12  14 2.12
   3  0.333  0.667  0.022-  30 1.94  24 1.94  18 1.94  27 2.12  21 2.12  15 2.12
   4  0.667  0.333  0.689-  14 1.94  20 1.94  26 1.94  22 2.12  29 2.12  16 2.12
   5  0.333  0.667  0.311-  13 1.94  19 1.94  25 1.94  23 2.12  28 2.12  17 2.12
   6  0.667  0.333  0.978-  27 1.94  21 1.94  15 1.94  30 2.12  24 2.12  18 2.12
   7  0.000  0.000  0.145-  24 1.94  18 1.94  30 1.94  25 2.12  19 2.12  13 2.12
   8  0.000  0.000  0.855-  21 1.94  15 1.94  27 1.94  26 2.12  20 2.12  14 2.12
   9  0.333  0.667  0.811-  20 1.94  14 1.94  26 1.94  27 2.12  21 2.12  15 2.12
  10  0.333  0.667  0.522-  29 1.94  16 1.94  22 1.94  23 2.12  28 2.12  17 2.12
  11  0.667  0.333  0.478-  28 1.94  17 1.94  23 1.94  22 2.12  29 2.12  16 2.12
  12  0.667  0.333  0.189-  19 1.94  13 1.94  25 1.94  30 2.12  24 2.12  18 2.12
  13  0.306  0.000  0.250-   5 1.94  12 1.94   7 2.12   1 2.12
  14  0.694  0.000  0.750-   4 1.94   9 1.94   8 2.12   2 2.12
  15  0.640  0.667  0.917-   6 1.94   8 1.94   9 2.12   3 2.12
  16  0.973  0.333  0.583-  10 1.94   2 1.94   4 2.12  11 2.12
  17  0.027  0.667  0.417-  11 1.94   1 1.94   5 2.12  10 2.12
  18  0.360  0.333  0.083-   3 1.94   7 1.94  12 2.12   6 2.12
  19  0.000  0.306  0.250-  12 1.94   5 1.94   7 2.12   1 2.12
  20  0.000  0.694  0.750-   9 1.94   4 1.94   8 2.12   2 2.12
  21  0.333  0.973  0.917-   6 1.94   8 1.94   9 2.12   3 2.12
  22  0.667  0.640  0.583-  10 1.94   2 1.94   4 2.12  11 2.12
  23  0.333  0.360  0.417-  11 1.94   1 1.94   5 2.12  10 2.12
  24  0.667  0.027  0.083-   3 1.94   7 1.94  12 2.12   6 2.12
  25  0.694  0.694  0.250-  12 1.94   5 1.94   7 2.12   1 2.12
  26  0.306  0.306  0.750-   9 1.94   4 1.94   8 2.12   2 2.12
  27  0.027  0.360  0.917-   6 1.94   8 1.94   9 2.12   3 2.12
  28  0.640  0.973  0.417-  11 1.94   1 1.94   5 2.12  10 2.12
  29  0.360  0.027  0.583-  10 1.94   2 1.94   4 2.12  11 2.12
  30  0.973  0.640  0.083-   3 1.94   7 1.94  12 2.12   6 2.12
 
  LATTYP: Found a hexagonal cell.
 ALAT       =     5.0350995578
 C/A-ratio  =     2.7324385232
  
  Lattice vectors:
  
 A1 = (   5.0351000000,   0.0000000000,   0.0000000000)
 A2 = (  -2.5175500000,   4.3605240000,   0.0000000000)
 A3 = (   0.0000000000,   0.0000000000,  13.7581000000)


Analysis of symmetry for initial positions (statically):
=====================================================================
 Subroutine PRICEL returns following result:
 
  LATTYP: Found a trigonal (rhomboedric) cell.
 ALAT       =     5.4297801492
 COS(alpha) =     0.5700456062
  
  Lattice vectors:
  
 A1 = (  -2.5175449649,  -1.4535109070,  -4.5860425054)
 A2 = (  -0.0000025175,   2.9070174535,  -4.5860287473)
 A3 = (   2.5175474825,  -1.4535065465,  -4.5860287473)
 
   3 primitive cells build up your supercell.
 

 Routine SETGRP: Setting up the symmetry group for a 
 hexagonal supercell.


 Subroutine GETGRP returns: Found 12 space group operations
 (whereof  6 operations were pure point group operations)
 out of a pool of 24 trial point group operations.


The static configuration has the point symmetry S_6 .
 The point group associated with its full space group is D_3d.


Analysis of symmetry for dynamics (positions and initial velocities):
=====================================================================
 Subroutine PRICEL returns following result:
 
  LATTYP: Found a trigonal (rhomboedric) cell.
 ALAT       =     5.4297801492
 COS(alpha) =     0.5700456062
  
  Lattice vectors:
  
 A1 = (  -2.5175449649,  -1.4535109070,  -4.5860425054)
 A2 = (  -0.0000025175,   2.9070174535,  -4.5860287473)
 A3 = (   2.5175474825,  -1.4535065465,  -4.5860287473)
 
   3 primitive cells build up your supercell.
 

 Routine SETGRP: Setting up the symmetry group for a 
 hexagonal supercell.


 Subroutine GETGRP returns: Found 12 space group operations
 (whereof  6 operations were pure point group operations)
 out of a pool of 24 trial point group operations.


The dynamic configuration has the point symmetry S_6 .
 The point group associated with its full space group is D_3d.


Analysis of structural, dynamic, and magnetic symmetry:
=====================================================================
 Subroutine PRICEL returns following result:
 
  LATTYP: Found a trigonal (rhomboedric) cell.
 ALAT       =     5.4297801492
 COS(alpha) =     0.5700456062
  
  Lattice vectors:
  
 A1 = (  -2.5175449649,  -1.4535109070,  -4.5860425054)
 A2 = (  -0.0000025175,   2.9070174535,  -4.5860287473)
 A3 = (   2.5175474825,  -1.4535065465,  -4.5860287473)
 
   3 primitive cells build up your supercell.
 

 Routine SETGRP: Setting up the symmetry group for a 
 hexagonal supercell.


 Subroutine GETGRP returns: Found 12 space group operations
 (whereof  6 operations were pure point group operations)
 out of a pool of 24 trial point group operations.


The magnetic configuration has the point symmetry S_6 .
 The point group associated with its full space group is D_3d.


 Subroutine INISYM returns: Found 12 space group operations
 (whereof  6 operations are pure point group operations),
 and found     3 'primitive' translations

 
 
 KPOINTS: pymatgen with grid density = 2464 / numb

Automatic generation of k-mesh.
Space group operators:
 irot       det(A)        alpha          n_x          n_y          n_z        tau_x        tau_y        tau_z
    1     1.000000     0.000000     1.000000     0.000000     0.000000     0.000000     0.000000     0.000000
    2    -1.000000     0.000000     1.000000     0.000000     0.000000     0.000000     0.000000     0.000000
    3     1.000000   120.000000     0.000000     0.000000    -1.000000     0.000000     0.000000     0.000000
    4    -1.000000   120.000000     0.000000     0.000000    -1.000000     0.000000     0.000000     0.000000
    5     1.000000   120.000000     0.000000     0.000000     1.000000     0.000000     0.000000     0.000000
    6    -1.000000   120.000000     0.000000     0.000000     1.000000     0.000000     0.000000     0.000000
    7     1.000000   180.000000     1.000000     0.000000     0.000000     0.000001    -0.000000    -0.500000
    8    -1.000000   180.000000     1.000000     0.000000     0.000000     0.000001    -0.000000    -0.500000
    9     1.000000   180.000000     0.500000    -0.866025     0.000000     0.000000     0.000000    -0.500000
   10    -1.000000   180.000000     0.500000    -0.866025     0.000000     0.000000     0.000000    -0.500000
   11     1.000000   180.000000    -0.500000    -0.866025     0.000000     0.000000     0.000000    -0.500000
   12    -1.000000   180.000000    -0.500000    -0.866025     0.000000     0.000000     0.000000    -0.500000
 
 Subroutine IBZKPT returns following result:
 ===========================================
 
 Found     14 irreducible k-points:
 
 Following reciprocal coordinates:
            Coordinates               Weight
  0.000000  0.000000  0.000000      1.000000
  0.166667  0.000000  0.000000      6.000000
  0.333333  0.000000  0.000000      6.000000
  0.500000  0.000000  0.000000      3.000000
  0.166667  0.166667  0.000000      6.000000
  0.333333  0.166667  0.000000     12.000000
  0.333333  0.333333  0.000000      2.000000
  0.000000  0.000000  0.500000      1.000000
  0.166667  0.000000  0.500000      6.000000
  0.333333  0.000000  0.500000      6.000000
  0.500000  0.000000  0.500000      3.000000
  0.166667  0.166667  0.500000      6.000000
  0.333333  0.166667  0.500000     12.000000
  0.333333  0.333333  0.500000      2.000000
 
 Following cartesian coordinates:
            Coordinates               Weight
  0.000000  0.000000  0.000000      1.000000
  0.033101  0.019111  0.000000      6.000000
  0.066202  0.038222  0.000000      6.000000
  0.099303  0.057333  0.000000      3.000000
  0.033101  0.057333  0.000000      6.000000
  0.066202  0.076443  0.000000     12.000000
  0.066202  0.114665  0.000000      2.000000
  0.000000  0.000000  0.036342      1.000000
  0.033101  0.019111  0.036342      6.000000
  0.066202  0.038222  0.036342      6.000000
  0.099303  0.057333  0.036342      3.000000
  0.033101  0.057333  0.036342      6.000000
  0.066202  0.076443  0.036342     12.000000
  0.066202  0.114665  0.036342      2.000000
 
 TETIRR: Found     71 inequivalent tetrahedra from      432


--------------------------------------------------------------------------------------------------------




 Dimension of arrays:
   k-points           NKPTS =     14   k-points in BZ     NKDIM =     14   number of bands    NBANDS=    204
   number of dos      NEDOS =    301   number of ions     NIONS =     30
   non local maximal  LDIM  =      6   non local SUM 2l+1 LMDIM =     18
   total plane-waves  NPLWV = 290304
   max r-space proj   IRMAX =   8271   max aug-charges    IRDMAX=  28660
   dimension x,y,z NGX =    48 NGY =   48 NGZ =  126
   dimension x,y,z NGXF=    96 NGYF=   96 NGZF=  252
   support grid    NGXF=    96 NGYF=   96 NGZF=  252
   ions per type =              12  18
   NGX,Y,Z   is equivalent  to a cutoff of  15.85, 15.85, 15.23 a.u.
   NGXF,Y,Z  is equivalent  to a cutoff of  31.70, 31.70, 30.45 a.u.

 SYSTEM =  unknown system                          
 POSCAR =  Fe12 O18                                

 Startparameter for this run:
   NWRITE =      2    write-flag & timer
   PREC   = accura    normal or accurate (medium, high low for compatibility)
   ISTART =      0    job   : 0-new  1-cont  2-samecut
   ICHARG =      2    charge: 1-file 2-atom 10-const
   ISPIN  =      2    spin polarized calculation?
   LNONCOLLINEAR =      F non collinear calculations
   LSORBIT =      F    spin-orbit coupling
   INIWAV =      1    electr: 0-lowe 1-rand  2-diag
   LASPH  =      F    aspherical Exc in radial PAW
   METAGGA=      F    non-selfconsistent MetaGGA calc.

 Electronic Relaxation 1
   ENCUT  =  760.0 eV  55.86 Ry    7.47 a.u.  11.32 11.32 30.93*2*pi/ulx,y,z
   ENINI  =  760.0     initial cutoff
   ENAUG  =  605.4 eV  augmentation charge cutoff
   NELM   =    100;   NELMIN=  2; NELMDL= -5     # of ELM steps 
   EDIFF  = 0.1E-06   stopping-criterion for ELM
   LREAL  =      T    real-space projection
   NLSPLINE    = F    spline interpolate recip. space projectors
   LCOMPAT=      F    compatible to vasp.4.4
   GGA_COMPAT  = T    GGA compatible to vasp.4.4-vasp.4.6
   LMAXPAW     = -100 max onsite density
   LMAXMIX     =    2 max onsite mixed and CHGCAR
   VOSKOWN=      0    Vosko Wilk Nusair interpolation
   ROPT   =   -0.00025  -0.00025
 Ionic relaxation
   EDIFFG = 0.1E-05   stopping-criterion for IOM
   NSW    =      0    number of steps for IOM
   NBLOCK =      1;   KBLOCK =      1    inner block; outer block 
   IBRION =     -1    ionic relax: 0-MD 1-quasi-New 2-CG
   NFREE  =      0    steps in history (QN), initial steepest desc. (CG)
   ISIF   =      3    stress and relaxation
   IWAVPR =     10    prediction:  0-non 1-charg 2-wave 3-comb
   ISYM   =      2    0-nonsym 1-usesym 2-fastsym
   LCORR  =      T    Harris-Foulkes like correction to forces

   POTIM  = 0.5000    time-step for ionic-motion
   TEIN   =    0.0    initial temperature
   TEBEG  =    0.0;   TEEND  =   0.0 temperature during run
   SMASS  =  -3.00    Nose mass-parameter (am)
   estimated Nose-frequenzy (Omega)   =  0.10E-29 period in steps =****** mass=  -0.579E-27a.u.
   SCALEE = 1.0000    scale energy and forces
   NPACO  =    256;   APACO  = 16.0  distance and # of slots for P.C.
   PSTRESS=    0.0 pullay stress

  Mass of Ions in am
   POMASS =  55.85 16.00
  Ionic Valenz
   ZVAL   =  14.00  6.00
  Atomic Wigner-Seitz radii
   RWIGS  =  -1.00 -1.00
  virtual crystal weights 
   VCA    =   1.00  1.00
   NELECT =     276.0000    total number of electrons
   NUPDOWN=      -1.0000    fix difference up-down

 DOS related values:
   EMIN   =  10.00;   EMAX   =-10.00  energy-range for DOS
   EFERMI =   0.00
   ISMEAR =    -5;   SIGMA  =   0.05  broadening in eV -4-tet -1-fermi 0-gaus

 Electronic relaxation 2 (details)
   IALGO  =     38    algorithm
   LDIAG  =      T    sub-space diagonalisation (order eigenvalues)
   LSUBROT=      F    optimize rotation matrix (better conditioning)
   TURBO    =      0    0=normal 1=particle mesh
   IRESTART =      0    0=no restart 2=restart with 2 vectors
   NREBOOT  =      0    no. of reboots
   NMIN     =      0    reboot dimension
   EREF     =   0.00    reference energy to select bands
   IMIX   =      4    mixing-type and parameters
     AMIX     =   0.40;   BMIX     =  1.00
     AMIX_MAG =   1.60;   BMIX_MAG =  1.00
     AMIN     =   0.10
     WC   =   100.;   INIMIX=   1;  MIXPRE=   1;  MAXMIX= -45

 Intra band minimization:
   WEIMIN = 0.0000     energy-eigenvalue tresh-hold
   EBREAK =  0.12E-09  absolut break condition
   DEPER  =   0.30     relativ break condition  

   TIME   =   0.40     timestep for ELM

  volume/ion in A,a.u.               =      10.07        67.95
  Fermi-wavevector in a.u.,A,eV,Ry     =   1.588581  3.001983 34.335534  2.523591
  Thomas-Fermi vector in A             =   2.687563
 
 Write flags
   LWAVE        =      F    write WAVECAR
   LDOWNSAMPLE  =      F    k-point downsampling of WAVECAR
   LCHARG       =      F    write CHGCAR
   LVTOT        =      F    write LOCPOT, total local potential
   LVHAR        =      F    write LOCPOT, Hartree potential only
   LELF         =      F    write electronic localiz. function (ELF)
   LORBIT       =     11    0 simple, 1 ext, 2 COOP (PROOUT), +10 PAW based schemes


 Dipole corrections
   LMONO  =      F    monopole corrections only (constant potential shift)
   LDIPOL =      F    correct potential (dipole corrections)
   IDIPOL =      0    1-x, 2-y, 3-z, 4-all directions 
   EPSILON=  1.0000000 bulk dielectric constant

 Exchange correlation treatment:
   GGA     =    --    GGA type
   LEXCH   =     8    internal setting for exchange type
   VOSKOWN=      0    Vosko Wilk Nusair interpolation
   LHFCALC =     F    Hartree Fock is set to
   LHFONE  =     F    Hartree Fock one center treatment
   AEXX    =    0.0000 exact exchange contribution

 Linear response parameters
   LEPSILON=     F    determine dielectric tensor
   LRPA    =     F    only Hartree local field effects (RPA)
   LNABLA  =     F    use nabla operator in PAW spheres
   LVEL    =     F    velocity operator in full k-point grid
   LINTERFAST=   F  fast interpolation
   KINTER  =     0    interpolate to denser k-point grid
   CSHIFT  =0.1000    complex shift for real part using Kramers Kronig
   OMEGAMAX=  -1.0    maximum frequency
   DEG_THRESHOLD= 0.2000000E-02 threshold for treating states as degnerate
   RTIME   =   -0.100 relaxation time in fs
  (WPLASMAI=    0.000 imaginary part of plasma frequency in eV, 0.658/RTIME)
   DFIELD  = 0.0000000 0.0000000 0.0000000 field for delta impulse in time
 
 Orbital magnetization related:
   ORBITALMAG=     F  switch on orbital magnetization
   LCHIMAG   =     F  perturbation theory with respect to B field
   DQ        =  0.001000  dq finite difference perturbation B field
   LLRAUG    =     F  two centre corrections for induced B field



--------------------------------------------------------------------------------------------------------


 Static calculation
 charge density and potential will be updated during run
 spin polarized calculation
 Variant of blocked Davidson
 Davidson routine will perform the subspace rotation
 perform sub-space diagonalisation
    after iterative eigenvector-optimisation
 modified Broyden-mixing scheme, WC =      100.0
 initial mixing is a Kerker type mixing with AMIX =  0.4000 and BMIX =      1.0000
 Hartree-type preconditioning will be used
 using additional bands           66
 real space projection scheme for non local part
 use partial core corrections
 calculate Harris-corrections to forces 
   (improved forces if not selfconsistent)
 use gradient corrections 
 use of overlap-Matrix (Vanderbilt PP)
 Fermi weights with tetrahedron method with Bloechl corrections


--------------------------------------------------------------------------------------------------------


  energy-cutoff  :      760.00
  volume of cell :      302.07
      direct lattice vectors                 reciprocal lattice vectors
     5.035100000  0.000000000  0.000000000     0.198605787  0.114665118  0.000000000
    -2.517550000  4.360524000  0.000000000     0.000000000  0.229330236  0.000000000
     0.000000000  0.000000000 13.758100000     0.000000000  0.000000000  0.072684455

  length of vectors
     5.035100000  5.035099558 13.758100000     0.229330216  0.229330236  0.072684455


 
 k-points in units of 2pi/SCALE and weight: pymatgen with grid density = 2464 / numb
   0.00000000  0.00000000  0.00000000       0.014
   0.03310096  0.01911085  0.00000000       0.083
   0.06620193  0.03822171  0.00000000       0.083
   0.09930289  0.05733256  0.00000000       0.042
   0.03310096  0.05733256  0.00000000       0.083
   0.06620193  0.07644341  0.00000000       0.167
   0.06620193  0.11466512  0.00000000       0.028
   0.00000000  0.00000000  0.03634223       0.014
   0.03310096  0.01911085  0.03634223       0.083
   0.06620193  0.03822171  0.03634223       0.083
   0.09930289  0.05733256  0.03634223       0.042
   0.03310096  0.05733256  0.03634223       0.083
   0.06620193  0.07644341  0.03634223       0.167
   0.06620193  0.11466512  0.03634223       0.028
 
 k-points in reciprocal lattice and weights: pymatgen with grid density = 2464 / numb
   0.00000000  0.00000000  0.00000000       0.014
   0.16666667  0.00000000  0.00000000       0.083
   0.33333333  0.00000000  0.00000000       0.083
   0.50000000  0.00000000  0.00000000       0.042
   0.16666667  0.16666667  0.00000000       0.083
   0.33333333  0.16666667  0.00000000       0.167
   0.33333333  0.33333333  0.00000000       0.028
   0.00000000  0.00000000  0.50000000       0.014
   0.16666667  0.00000000  0.50000000       0.083
   0.33333333  0.00000000  0.50000000       0.083
   0.50000000  0.00000000  0.50000000       0.042
   0.16666667  0.16666667  0.50000000       0.083
   0.33333333  0.16666667  0.50000000       0.167
   0.33333333  0.33333333  0.50000000       0.028
 
 position of ions in fractional coordinates (direct lattice) 
   0.00000000  0.00000000  0.35532000
   0.00000000  0.00000000  0.64468000
   0.33333300  0.66666700  0.02198700
   0.66666700  0.33333300  0.68865300
   0.33333300  0.66666700  0.31134700
   0.66666700  0.33333300  0.97801300
   0.00000000  0.00000000  0.14468000
   0.00000000  0.00000000  0.85532000
   0.33333300  0.66666700  0.81134700
   0.33333300  0.66666700  0.52198700
   0.66666700  0.33333300  0.47801300
   0.66666700  0.33333300  0.18865300
   0.30618000  0.00000000  0.25000000
   0.69382000  0.00000000  0.75000000
   0.63951300  0.66666700  0.91666700
   0.97284700  0.33333300  0.58333300
   0.02715300  0.66666700  0.41666700
   0.36048700  0.33333300  0.08333300
   0.00000000  0.30618000  0.25000000
   0.00000000  0.69382000  0.75000000
   0.33333300  0.97284700  0.91666700
   0.66666700  0.63951300  0.58333300
   0.33333300  0.36048700  0.41666700
   0.66666700  0.02715300  0.08333300
   0.69382000  0.69382000  0.25000000
   0.30618000  0.30618000  0.75000000
   0.02715300  0.36048700  0.91666700
   0.63951300  0.97284700  0.41666700
   0.36048700  0.02715300  0.58333300
   0.97284700  0.63951300  0.08333300
 
 position of ions in cartesian coordinates  (Angst):
   0.00000000  0.00000000  4.88852809
   0.00000000  0.00000000  8.86957191
  -0.00000252  2.90701745  0.30249934
   2.51755252  1.45350655  9.47455684
  -0.00000252  2.90701745  4.28354316
   2.51755252  1.45350655 13.45560066
   0.00000000  0.00000000  1.99052191
   0.00000000  0.00000000 11.76757809
  -0.00000252  2.90701745 11.16259316
  -0.00000252  2.90701745  7.18154934
   2.51755252  1.45350655  6.57655066
   2.51755252  1.45350655  2.59550684
   1.54164692  0.00000000  3.43952500
   3.49345308  0.00000000 10.31857500
   1.54164440  2.90701745 12.61159625
   4.05919944  1.45350655  8.02555375
  -1.54164944  2.90701745  5.73254625
   0.97590560  1.45350655  1.14650375
  -0.77082346  1.33510524  3.43952500
  -1.74672654  3.02541876 10.31857500
  -0.77082598  4.24212269 12.61159625
   1.74672906  2.78861178  8.02555375
   0.77082094  1.57191222  5.73254625
   3.28837598  0.11840131  1.14650375
   1.74672654  3.02541876  3.43952500
   0.77082346  1.33510524 10.31857500
  -0.77082598  1.57191222 12.61159625
   0.77082094  4.24212269  5.73254625
   1.74672906  0.11840131  8.02555375
   3.28837598  2.78861178  1.14650375
 


--------------------------------------------------------------------------------------------------------


 k-point  1 :   0.0000 0.0000 0.0000  plane waves:   14401
 k-point  2 :   0.1667 0.0000 0.0000  plane waves:   14389
 k-point  3 :   0.3333 0.0000 0.0000  plane waves:   14350
 k-point  4 :   0.5000 0.0000 0.0000  plane waves:   14404
 k-point  5 :   0.1667 0.1667 0.0000  plane waves:   14349
 k-point  6 :   0.3333 0.1667 0.0000  plane waves:   14374
 k-point  7 :   0.3333 0.3333 0.0000  plane waves:   14379
 k-point  8 :   0.0000 0.0000 0.5000  plane waves:   14390
 k-point  9 :   0.1667 0.0000 0.5000  plane waves:   14390
 k-point 10 :   0.3333 0.0000 0.5000  plane waves:   14352
 k-point 11 :   0.5000 0.0000 0.5000  plane waves:   14348
 k-point 12 :   0.1667 0.1667 0.5000  plane waves:   14384
 k-point 13 :   0.3333 0.1667 0.5000  plane waves:   14352
 k-point 14 :   0.3333 0.3333 0.5000  plane waves:   14370

 maximum and minimum number of plane-waves per node :      3629     3554

 maximum number of plane-waves:     14404
 maximum index in each direction: 
   IXMAX=   11   IYMAX=   11   IZMAX=   30
   IXMIN=  -11   IYMIN=  -11   IZMIN=  -31


 real space projection operators:
  total allocation   :      17478.56 KBytes
  max/ min on nodes  :       4407.56       4317.75


 parallel 3D FFT for wavefunctions:
    minimum data exchange during FFTs selected (reduces bandwidth)
 parallel 3D FFT for charge:
    minimum data exchange during FFTs selected (reduces bandwidth)


 total amount of memory used by VASP MPI-rank0   115277. kBytes
=======================================================================

   base      :      30000. kBytes
   nonlr-proj:       9616. kBytes
   fftplans  :       5410. kBytes
   grid      :      13615. kBytes
   one-center:        248. kBytes
   wavefun   :      56388. kBytes
 
     INWAV:  cpu time    0.0000: real time    0.0002
 Broyden mixing: mesh for mixing (old mesh)
   NGX = 23   NGY = 23   NGZ = 61
  (NGX  = 96   NGY  = 96   NGZ  =252)
  gives a total of  32269 points

 initial charge density was supplied:
 charge density of overlapping atoms calculated
 number of electron     276.0000000 magnetization      70.8000000
 keeping initial charge density in first step


--------------------------------------------------------------------------------------------------------


 Maximum index for non-local projection operator         2011
 Maximum index for augmentation-charges         1260 (set IRDMAX)


--------------------------------------------------------------------------------------------------------


 First call to EWALD:  gamma=   0.264
 Maximum number of real-space cells 4x 4x 2
 Maximum number of reciprocal cells 2x 2x 5

    FEWALD:  cpu time    0.0020: real time    0.0020


--------------------------------------- Iteration      1(   1)  ---------------------------------------


    POTLOK:  cpu time    0.1379: real time    0.1395
    SETDIJ:  cpu time    0.0166: real time    0.0167
     EDDAV:  cpu time   20.6908: real time   20.7530
 BZINTS: Fermi energy: 31.769920;276.000000 electrons
         Band energy:1837.016080;  BLOECHL correction: -0.063280
       DOS:  cpu time    0.0485: real time    0.0486
    --------------------------------------------
      LOOP:  cpu time   20.8938: real time   20.9579

 eigenvalue-minimisations  : 11448
 total energy-change (2. order) : 0.4853628E+04  (-0.1716120E+05)
 number of electron     276.0000000 magnetization      70.8000000
 augmentation part      276.0000000 magnetization      70.8000000

 Free energy of the ion-electron system (eV)
  ---------------------------------------------------
  alpha Z        PSCENC =      1362.55286497
  Ewald energy   TEWEN  =    -25513.06237826
  -Hartree energ DENC   =    -10371.14386019
  -exchange      EXHF   =         0.00000000
  -V(xc)+E(xc)   XCENC  =      1375.27778339
  PAW double counting   =     30224.59406688   -31333.39571732
  entropy T*S    EENTRO =         0.00000000
  eigenvalues    EBANDS =      1837.01607996
  atomic energy  EATOM  =     37271.78960320
  Solvation  Ediel_sol  =         0.00000000
  ---------------------------------------------------
  free energy    TOTEN  =      4853.62844262 eV

  energy without entropy =     4853.62844262  energy(sigma->0) =     4853.62844262


--------------------------------------------------------------------------------------------------------




--------------------------------------- Iteration      1(   2)  ---------------------------------------


     EDDAV:  cpu time   20.8358: real time   20.8922
 BZINTS: Fermi energy: 11.977374;276.000000 electrons
         Band energy:***********;  BLOECHL correction: -0.021236
       DOS:  cpu time    0.0544: real time    0.0545
    --------------------------------------------
      LOOP:  cpu time   20.8902: real time   20.9466

 eigenvalue-minimisations  : 11424
 total energy-change (2. order) :-0.4265917E+04  (-0.3901452E+04)
 number of electron     276.0000000 magnetization      70.8000000
 augmentation part      276.0000000 magnetization      70.8000000

 Free energy of the ion-electron system (eV)
  ---------------------------------------------------
  alpha Z        PSCENC =      1362.55286497
  Ewald energy   TEWEN  =    -25513.06237826
  -Hartree energ DENC   =    -10371.14386019
  -exchange      EXHF   =         0.00000000
  -V(xc)+E(xc)   XCENC  =      1375.27778339
  PAW double counting   =     30224.59406688   -31333.39571732
  entropy T*S    EENTRO =         0.00000000
  eigenvalues    EBANDS =     -2428.90110437
  atomic energy  EATOM  =     37271.78960320
  Solvation  Ediel_sol  =         0.00000000
  ---------------------------------------------------
  free energy    TOTEN  =       587.71125829 eV

  energy without entropy =      587.71125829  energy(sigma->0) =      587.71125829


--------------------------------------------------------------------------------------------------------




--------------------------------------- Iteration      1(   3)  ---------------------------------------


     EDDAV:  cpu time   21.4944: real time   21.5528
 BZINTS: Fermi energy:  8.635303;276.000000 electrons
         Band energy:***********;  BLOECHL correction:  0.000000
       DOS:  cpu time    0.0083: real time    0.0083
    --------------------------------------------
      LOOP:  cpu time   21.5027: real time   21.5611

 eigenvalue-minimisations  : 11844
 total energy-change (2. order) :-0.8211650E+03  (-0.7148051E+03)
 number of electron     276.0000000 magnetization      70.8000000
 augmentation part      276.0000000 magnetization      70.8000000

 Free energy of the ion-electron system (eV)
  ---------------------------------------------------
  alpha Z        PSCENC =      1362.55286497
  Ewald energy   TEWEN  =    -25513.06237826
  -Hartree energ DENC   =    -10371.14386019
  -exchange      EXHF   =         0.00000000
  -V(xc)+E(xc)   XCENC  =      1375.27778339
  PAW double counting   =     30224.59406688   -31333.39571732
  entropy T*S    EENTRO =         0.00000000
  eigenvalues    EBANDS =     -3250.06606153
  atomic energy  EATOM  =     37271.78960320
  Solvation  Ediel_sol  =         0.00000000
  ---------------------------------------------------
  free energy    TOTEN  =      -233.45369887 eV

  energy without entropy =     -233.45369887  energy(sigma->0) =     -233.45369887


--------------------------------------------------------------------------------------------------------




--------------------------------------- Iteration      1(   4)  ---------------------------------------


     EDDAV:  cpu time   23.1743: real time   23.2364
 BZINTS: Fermi energy:  8.244512;276.000000 electrons
         Band energy:***********;  BLOECHL correction:  0.000000
       DOS:  cpu time    0.0070: real time    0.0071
    --------------------------------------------
      LOOP:  cpu time   23.1814: real time   23.2435

 eigenvalue-minimisations  : 12960
 total energy-change (2. order) :-0.6034668E+02  (-0.5961730E+02)
 number of electron     276.0000000 magnetization      70.8000000
 augmentation part      276.0000000 magnetization      70.8000000

 Free energy of the ion-electron system (eV)
  ---------------------------------------------------
  alpha Z        PSCENC =      1362.55286497
  Ewald energy   TEWEN  =    -25513.06237826
  -Hartree energ DENC   =    -10371.14386019
  -exchange      EXHF   =         0.00000000
  -V(xc)+E(xc)   XCENC  =      1375.27778339
  PAW double counting   =     30224.59406688   -31333.39571732
  entropy T*S    EENTRO =         0.00000000
  eigenvalues    EBANDS =     -3310.41274631
  atomic energy  EATOM  =     37271.78960320
  Solvation  Ediel_sol  =         0.00000000
  ---------------------------------------------------
  free energy    TOTEN  =      -293.80038365 eV

  energy without entropy =     -293.80038365  energy(sigma->0) =     -293.80038365


--------------------------------------------------------------------------------------------------------




--------------------------------------- Iteration      1(   5)  ---------------------------------------


     EDDAV:  cpu time   23.0267: real time   23.0967
 BZINTS: Fermi energy:  8.310608;276.000000 electrons
         Band energy:***********;  BLOECHL correction:  0.000000
       DOS:  cpu time    0.0083: real time    0.0084
    CHARGE:  cpu time    0.8187: real time    0.8208
    MIXING:  cpu time    0.0036: real time    0.0036
    --------------------------------------------
      LOOP:  cpu time   23.8573: real time   23.9295

 eigenvalue-minimisations  : 12780
 total energy-change (2. order) :-0.6981373E+00  (-0.6961381E+00)
 number of electron     275.9999956 magnetization      67.8179396
 augmentation part      108.0147223 magnetization      47.0427450

 Broyden mixing:
  rms(total) = 0.80922E+01    rms(broyden)= 0.80921E+01
  rms(prec ) = 0.88383E+01
  weight for this iteration     100.00

 Free energy of the ion-electron system (eV)
  ---------------------------------------------------
  alpha Z        PSCENC =      1362.55286497
  Ewald energy   TEWEN  =    -25513.06237826
  -Hartree energ DENC   =    -10371.14386019
  -exchange      EXHF   =         0.00000000
  -V(xc)+E(xc)   XCENC  =      1375.27778339
  PAW double counting   =     30224.59406688   -31333.39571732
  entropy T*S    EENTRO =         0.00000000
  eigenvalues    EBANDS =     -3311.11088363
  atomic energy  EATOM  =     37271.78960320
  Solvation  Ediel_sol  =         0.00000000
  ---------------------------------------------------
  free energy    TOTEN  =      -294.49852097 eV

  energy without entropy =     -294.49852097  energy(sigma->0) =     -294.49852097


--------------------------------------------------------------------------------------------------------




--------------------------------------- Iteration      1(   6)  ---------------------------------------


    POTLOK:  cpu time    0.1344: real time    0.1353
    SETDIJ:  cpu time    0.0168: real time    0.0168
     EDDAV:  cpu time   25.4311: real time   25.4956
 BZINTS: Fermi energy:  5.534672;276.000000 electrons
         Band energy:***********;  BLOECHL correction: -0.054580
       DOS:  cpu time    0.0534: real time    0.0535
    CHARGE:  cpu time    0.8300: real time    0.8321
    MIXING:  cpu time    0.0034: real time    0.0034
    --------------------------------------------
      LOOP:  cpu time   26.4690: real time   26.5367

 eigenvalue-minimisations  : 14796
 total energy-change (2. order) : 0.5920016E+02  (-0.2529756E+02)
 number of electron     275.9999915 magnetization      62.9819005
 augmentation part      120.7128343 magnetization      54.4165698

 Broyden mixing:
  rms(total) = 0.91236E+01    rms(broyden)= 0.91235E+01
  rms(prec ) = 0.97726E+01
  weight for this iteration     100.00

 eigenvalues of (default mixing * dielectric matrix)
  average eigenvalue GAMMA=   0.3184
  0.3184

 Free energy of the ion-electron system (eV)
  ---------------------------------------------------
  alpha Z        PSCENC =      1362.55286497
  Ewald energy   TEWEN  =    -25513.06237826
  -Hartree energ DENC   =     -9965.69725383
  -exchange      EXHF   =         0.00000000
  -V(xc)+E(xc)   XCENC  =      1376.63889554
  PAW double counting   =     31438.10347448   -32504.98066826
  entropy T*S    EENTRO =         0.00000000
  eigenvalues    EBANDS =     -3700.64290175
  atomic energy  EATOM  =     37271.78960320
  Solvation  Ediel_sol  =         0.00000000
  ---------------------------------------------------
  free energy    TOTEN  =      -235.29836393 eV

  energy without entropy =     -235.29836393  energy(sigma->0) =     -235.29836393


--------------------------------------------------------------------------------------------------------




--------------------------------------- Iteration      1(   7)  ---------------------------------------


    POTLOK:  cpu time    0.1248: real time    0.1258
    SETDIJ:  cpu time    0.0157: real time    0.0157
     EDDAV:  cpu time   21.9145: real time   21.9703
 BZINTS: Fermi energy:  7.079237;276.000000 electrons
         Band energy:***********;  BLOECHL correction: -0.036417
       DOS:  cpu time    0.0540: real time    0.0542
    CHARGE:  cpu time    0.8050: real time    0.8108
    MIXING:  cpu time    0.0034: real time    0.0034
    --------------------------------------------
      LOOP:  cpu time   22.9173: real time   22.9801

 eigenvalue-minimisations  : 12228
 total energy-change (2. order) : 0.2324648E+02  (-0.1140874E+02)
 number of electron     275.9999943 magnetization      58.7867092
 augmentation part      109.3469832 magnetization      40.3329310

 Broyden mixing:
  rms(total) = 0.43694E+01    rms(broyden)= 0.43694E+01
  rms(prec ) = 0.45291E+01
  weight for this iteration     100.00

 eigenvalues of (default mixing * dielectric matrix)
  average eigenvalue GAMMA=   0.6787
  1.0270  0.3303

 Free energy of the ion-electron system (eV)
  ---------------------------------------------------
  alpha Z        PSCENC =      1362.55286497
  Ewald energy   TEWEN  =    -25513.06237826
  -Hartree energ DENC   =    -10207.56124019
  -exchange      EXHF   =         0.00000000
  -V(xc)+E(xc)   XCENC  =      1372.38584584
  PAW double counting   =     32871.10881920   -33999.52285864
  entropy T*S    EENTRO =         0.00000000
  eigenvalues    EBANDS =     -3369.74253990
  atomic energy  EATOM  =     37271.78960320
  Solvation  Ediel_sol  =         0.00000000
  ---------------------------------------------------
  free energy    TOTEN  =      -212.05188378 eV

  energy without entropy =     -212.05188378  energy(sigma->0) =     -212.05188378


--------------------------------------------------------------------------------------------------------




--------------------------------------- Iteration      1(   8)  ---------------------------------------


    POTLOK:  cpu time    0.1270: real time    0.1277
    SETDIJ:  cpu time    0.0159: real time    0.0160
     EDDAV:  cpu time   21.6696: real time   21.7284
 BZINTS: Fermi energy:  6.445480;276.000000 electrons
         Band energy:***********;  BLOECHL correction: -0.034141
       DOS:  cpu time    0.0548: real time    0.0549
    CHARGE:  cpu time    0.8484: real time    0.8506
    MIXING:  cpu time    0.0034: real time    0.0034
    --------------------------------------------
      LOOP:  cpu time   22.7191: real time   22.7809

 eigenvalue-minimisations  : 12120
 total energy-change (2. order) :-0.6256969E+01  (-0.2139186E+01)
 number of electron     275.9999940 magnetization      51.9513277
 augmentation part      111.2681240 magnetization      35.0308181

 Broyden mixing:
  rms(total) = 0.26527E+01    rms(broyden)= 0.26527E+01
  rms(prec ) = 0.27129E+01
  weight for this iteration     100.00

 eigenvalues of (default mixing * dielectric matrix)
  average eigenvalue GAMMA=   1.0721
  2.2530  0.5800  0.3834

 Free energy of the ion-electron system (eV)
  ---------------------------------------------------
  alpha Z        PSCENC =      1362.55286497
  Ewald energy   TEWEN  =    -25513.06237826
  -Hartree energ DENC   =    -10072.29474794
  -exchange      EXHF   =         0.00000000
  -V(xc)+E(xc)   XCENC  =      1366.37104180
  PAW double counting   =     34230.63433770   -35370.76900095
  entropy T*S    EENTRO =         0.00000000
  eigenvalues    EBANDS =     -3493.53057372
  atomic energy  EATOM  =     37271.78960320
  Solvation  Ediel_sol  =         0.00000000
  ---------------------------------------------------
  free energy    TOTEN  =      -218.30885321 eV

  energy without entropy =     -218.30885321  energy(sigma->0) =     -218.30885321


--------------------------------------------------------------------------------------------------------




--------------------------------------- Iteration      1(   9)  ---------------------------------------


    POTLOK:  cpu time    0.1342: real time    0.1346
    SETDIJ:  cpu time    0.0170: real time    0.0170
     EDDAV:  cpu time   22.3950: real time   22.4556
 BZINTS: Fermi energy:  5.881533;276.000000 electrons
         Band energy:***********;  BLOECHL correction: -0.038370
       DOS:  cpu time    0.0531: real time    0.0532
    CHARGE:  cpu time    0.8369: real time    0.8391
    MIXING:  cpu time    0.0036: real time    0.0036
    --------------------------------------------
      LOOP:  cpu time   23.4397: real time   23.5032

 eigenvalue-minimisations  : 12588
 total energy-change (2. order) :-0.4185935E+01  (-0.8192653E+00)
 number of electron     275.9999932 magnetization      50.9234613
 augmentation part      114.1272634 magnetization      37.7918742

 Broyden mixing:
  rms(total) = 0.27065E+01    rms(broyden)= 0.27064E+01
  rms(prec ) = 0.28357E+01
  weight for this iteration     100.00

 eigenvalues of (default mixing * dielectric matrix)
  average eigenvalue GAMMA=   1.1014
  2.8504  0.8032  0.3761  0.3761

 Free energy of the ion-electron system (eV)
  ---------------------------------------------------
  alpha Z        PSCENC =      1362.55286497
  Ewald energy   TEWEN  =    -25513.06237826
  -Hartree energ DENC   =     -9933.63195544
  -exchange      EXHF   =         0.00000000
  -V(xc)+E(xc)   XCENC  =      1362.36963245
  PAW double counting   =     36517.48190612   -37686.42931521
  entropy T*S    EENTRO =         0.00000000
  eigenvalues    EBANDS =     -3603.56514561
  atomic energy  EATOM  =     37271.78960320
  Solvation  Ediel_sol  =         0.00000000
  ---------------------------------------------------
  free energy    TOTEN  =      -222.49478777 eV

  energy without entropy =     -222.49478777  energy(sigma->0) =     -222.49478777


--------------------------------------------------------------------------------------------------------




--------------------------------------- Iteration      1(  10)  ---------------------------------------


    POTLOK:  cpu time    0.1318: real time    0.1325
    SETDIJ:  cpu time    0.0163: real time    0.0164
     EDDAV:  cpu time   22.4252: real time   22.4850
 BZINTS: Fermi energy:  5.958809;276.000000 electrons
         Band energy:***********;  BLOECHL correction: -0.037110
       DOS:  cpu time    0.0574: real time    0.0575
    CHARGE:  cpu time    0.8280: real time    0.8308
    MIXING:  cpu time    0.0039: real time    0.0039
    --------------------------------------------
      LOOP:  cpu time   23.4626: real time   23.5260

 eigenvalue-minimisations  : 12600
 total energy-change (2. order) : 0.3324323E+00  (-0.2453657E+00)
 number of electron     275.9999933 magnetization      50.6200623
 augmentation part      113.4180239 magnetization      37.3079467

 Broyden mixing:
  rms(total) = 0.18593E+01    rms(broyden)= 0.18593E+01
  rms(prec ) = 0.19698E+01
  weight for this iteration     100.00

 eigenvalues of (default mixing * dielectric matrix)
  average eigenvalue GAMMA=   1.0180
  2.6175  0.3740  0.7702  0.6642  0.6642

 Free energy of the ion-electron system (eV)
  ---------------------------------------------------
  alpha Z        PSCENC =      1362.55286497
  Ewald energy   TEWEN  =    -25513.06237826
  -Hartree energ DENC   =     -9949.14743547
  -exchange      EXHF   =         0.00000000
  -V(xc)+E(xc)   XCENC  =      1360.91942404
  PAW double counting   =     36555.13452904   -37727.45373353
  entropy T*S    EENTRO =         0.00000000
  eigenvalues    EBANDS =     -3582.89522946
  atomic energy  EATOM  =     37271.78960320
  Solvation  Ediel_sol  =         0.00000000
  ---------------------------------------------------
  free energy    TOTEN  =      -222.16235547 eV

  energy without entropy =     -222.16235547  energy(sigma->0) =     -222.16235547


--------------------------------------------------------------------------------------------------------




--------------------------------------- Iteration      1(  11)  ---------------------------------------


    POTLOK:  cpu time    0.1328: real time    0.1338
    SETDIJ:  cpu time    0.0163: real time    0.0163
     EDDAV:  cpu time   24.8186: real time   24.8851
 BZINTS: Fermi energy:  6.019824;276.000000 electrons
         Band energy:***********;  BLOECHL correction: -0.033996
       DOS:  cpu time    0.0542: real time    0.0544
    CHARGE:  cpu time    0.8186: real time    0.8213
    MIXING:  cpu time    0.0036: real time    0.0036
    --------------------------------------------
      LOOP:  cpu time   25.8441: real time   25.9146

 eigenvalue-minimisations  : 14268
 total energy-change (2. order) : 0.5624149E+00  (-0.2267422E-01)
 number of electron     275.9999935 magnetization      49.3127441
 augmentation part      112.9999170 magnetization      35.6173082

 Broyden mixing:
  rms(total) = 0.12193E+01    rms(broyden)= 0.12193E+01
  rms(prec ) = 0.12926E+01
  weight for this iteration     100.00

 eigenvalues of (default mixing * dielectric matrix)
  average eigenvalue GAMMA=   1.0450
  2.5828  0.9707  0.9707  0.3791  0.7997  0.5671

 Free energy of the ion-electron system (eV)
  ---------------------------------------------------
  alpha Z        PSCENC =      1362.55286497
  Ewald energy   TEWEN  =    -25513.06237826
  -Hartree energ DENC   =     -9960.23309088
  -exchange      EXHF   =         0.00000000
  -V(xc)+E(xc)   XCENC  =      1360.24815469
  PAW double counting   =     36385.82814015   -37556.14964185
  entropy T*S    EENTRO =         0.00000000
  eigenvalues    EBANDS =     -3572.57359256
  atomic energy  EATOM  =     37271.78960320
  Solvation  Ediel_sol  =         0.00000000
  ---------------------------------------------------
  free energy    TOTEN  =      -221.59994054 eV

  energy without entropy =     -221.59994054  energy(sigma->0) =     -221.59994054


--------------------------------------------------------------------------------------------------------




--------------------------------------- Iteration      1(  12)  ---------------------------------------


    POTLOK:  cpu time    0.1300: real time    0.1304
    SETDIJ:  cpu time    0.0164: real time    0.0164
     EDDAV:  cpu time   26.2450: real time   26.3162
 BZINTS: Fermi energy:  6.079322;276.000000 electrons
         Band energy:***********;  BLOECHL correction: -0.033311
       DOS:  cpu time    0.0544: real time    0.0547
    CHARGE:  cpu time    0.8296: real time    0.8316
    MIXING:  cpu time    0.0044: real time    0.0044
    --------------------------------------------
      LOOP:  cpu time   27.2797: real time   27.3537

 eigenvalue-minimisations  : 15276
 total energy-change (2. order) : 0.2021737E+00  (-0.1956908E-01)
 number of electron     275.9999935 magnetization      46.8896740
 augmentation part      112.6802696 magnetization      33.0916528

 Broyden mixing:
  rms(total) = 0.84429E+00    rms(broyden)= 0.84429E+00
  rms(prec ) = 0.88531E+00
  weight for this iteration     100.00

 eigenvalues of (default mixing * dielectric matrix)
  average eigenvalue GAMMA=   1.0967
  2.1626  1.5566  1.5566  0.3777  0.7530  0.6353  0.6353

 Free energy of the ion-electron system (eV)
  ---------------------------------------------------
  alpha Z        PSCENC =      1362.55286497
  Ewald energy   TEWEN  =    -25513.06237826
  -Hartree energ DENC   =     -9973.17379207
  -exchange      EXHF   =         0.00000000
  -V(xc)+E(xc)   XCENC  =      1359.60060732
  PAW double counting   =     36270.66914631   -37439.93740192
  entropy T*S    EENTRO =         0.00000000
  eigenvalues    EBANDS =     -3559.83641639
  atomic energy  EATOM  =     37271.78960320
  Solvation  Ediel_sol  =         0.00000000
  ---------------------------------------------------
  free energy    TOTEN  =      -221.39776683 eV

  energy without entropy =     -221.39776683  energy(sigma->0) =     -221.39776683


--------------------------------------------------------------------------------------------------------




--------------------------------------- Iteration      1(  13)  ---------------------------------------


    POTLOK:  cpu time    0.1329: real time    0.1335
    SETDIJ:  cpu time    0.0164: real time    0.0165
     EDDAV:  cpu time   24.7232: real time   24.7888
 BZINTS: Fermi energy:  6.138534;276.000000 electrons
         Band energy:***********;  BLOECHL correction: -0.034422
       DOS:  cpu time    0.0529: real time    0.0530
    CHARGE:  cpu time    0.8301: real time    0.8322
    MIXING:  cpu time    0.0041: real time    0.0041
    --------------------------------------------
      LOOP:  cpu time   25.7596: real time   25.8281

 eigenvalue-minimisations  : 13944
 total energy-change (2. order) : 0.1448334E-02  (-0.1115865E-01)
 number of electron     275.9999936 magnetization      43.9853932
 augmentation part      112.4108621 magnetization      30.4327853

 Broyden mixing:
  rms(total) = 0.46996E+00    rms(broyden)= 0.46996E+00
  rms(prec ) = 0.49335E+00
  weight for this iteration     100.00

 eigenvalues of (default mixing * dielectric matrix)
  average eigenvalue GAMMA=   1.3933
  3.4301  3.4301  0.3780  0.9294  0.9294  0.7249  0.7249  0.6000

 Free energy of the ion-electron system (eV)
  ---------------------------------------------------
  alpha Z        PSCENC =      1362.55286497
  Ewald energy   TEWEN  =    -25513.06237826
  -Hartree energ DENC   =     -9991.09537055
  -exchange      EXHF   =         0.00000000
  -V(xc)+E(xc)   XCENC  =      1358.78599618
  PAW double counting   =     36043.14385024   -37209.40027130
  entropy T*S    EENTRO =         0.00000000
  eigenvalues    EBANDS =     -3544.11061297
  atomic energy  EATOM  =     37271.78960320
  Solvation  Ediel_sol  =         0.00000000
  ---------------------------------------------------
  free energy    TOTEN  =      -221.39631850 eV

  energy without entropy =     -221.39631850  energy(sigma->0) =     -221.39631850


--------------------------------------------------------------------------------------------------------




--------------------------------------- Iteration      1(  14)  ---------------------------------------


    POTLOK:  cpu time    0.1325: real time    0.1329
    SETDIJ:  cpu time    0.0163: real time    0.0164
     EDDAV:  cpu time   25.8197: real time   25.8940
 BZINTS: Fermi energy:  6.171235;276.000000 electrons
         Band energy:***********;  BLOECHL correction: -0.032762
       DOS:  cpu time    0.0525: real time    0.0526
    CHARGE:  cpu time    0.8283: real time    0.8305
    MIXING:  cpu time    0.0045: real time    0.0046
    --------------------------------------------
      LOOP:  cpu time   26.8539: real time   26.9310

 eigenvalue-minimisations  : 14988
 total energy-change (2. order) :-0.4441655E-01  (-0.1530485E-01)
 number of electron     275.9999936 magnetization      43.0736589
 augmentation part      112.2253301 magnetization      29.9062961

 Broyden mixing:
  rms(total) = 0.18184E+00    rms(broyden)= 0.18184E+00
  rms(prec ) = 0.18951E+00
  weight for this iteration     100.00

 eigenvalues of (default mixing * dielectric matrix)
  average eigenvalue GAMMA=   1.5049
  5.3549  2.7786  1.2184  0.3780  0.8409  0.8409  0.8831  0.6245  0.6245

 Free energy of the ion-electron system (eV)
  ---------------------------------------------------
  alpha Z        PSCENC =      1362.55286497
  Ewald energy   TEWEN  =    -25513.06237826
  -Hartree energ DENC   =    -10003.85082469
  -exchange      EXHF   =         0.00000000
  -V(xc)+E(xc)   XCENC  =      1357.69237677
  PAW double counting   =     35841.47219516   -37004.69012622
  entropy T*S    EENTRO =         0.00000000
  eigenvalues    EBANDS =     -3533.34444597
  atomic energy  EATOM  =     37271.78960320
  Solvation  Ediel_sol  =         0.00000000
  ---------------------------------------------------
  free energy    TOTEN  =      -221.44073505 eV

  energy without entropy =     -221.44073505  energy(sigma->0) =     -221.44073505


--------------------------------------------------------------------------------------------------------




--------------------------------------- Iteration      1(  15)  ---------------------------------------


    POTLOK:  cpu time    0.1333: real time    0.1337
    SETDIJ:  cpu time    0.0163: real time    0.0163
     EDDAV:  cpu time   22.6193: real time   22.6817
 BZINTS: Fermi energy:  6.157213;276.000000 electrons
         Band energy:***********;  BLOECHL correction: -0.032955
       DOS:  cpu time    0.0564: real time    0.0565
    CHARGE:  cpu time    0.8454: real time    0.8476
    MIXING:  cpu time    0.0045: real time    0.0045
    --------------------------------------------
      LOOP:  cpu time   23.6753: real time   23.7405

 eigenvalue-minimisations  : 12660
 total energy-change (2. order) :-0.1800692E-01  (-0.6358924E-02)
 number of electron     275.9999936 magnetization      42.6361318
 augmentation part      112.2766353 magnetization      29.6420645

 Broyden mixing:
  rms(total) = 0.14401E+00    rms(broyden)= 0.14401E+00
  rms(prec ) = 0.15251E+00
  weight for this iteration     100.00

 eigenvalues of (default mixing * dielectric matrix)
  average eigenvalue GAMMA=   1.5464
  6.1228  2.8512  1.3631  1.0674  0.3780  0.8496  0.8496  0.6934  0.6934  0.5958

 Free energy of the ion-electron system (eV)
  ---------------------------------------------------
  alpha Z        PSCENC =      1362.55286497
  Ewald energy   TEWEN  =    -25513.06237826
  -Hartree energ DENC   =    -10002.52745486
  -exchange      EXHF   =         0.00000000
  -V(xc)+E(xc)   XCENC  =      1357.19853392
  PAW double counting   =     35828.42026378   -36991.26866857
  entropy T*S    EENTRO =         0.00000000
  eigenvalues    EBANDS =     -3534.56150613
  atomic energy  EATOM  =     37271.78960320
  Solvation  Ediel_sol  =         0.00000000
  ---------------------------------------------------
  free energy    TOTEN  =      -221.45874196 eV

  energy without entropy =     -221.45874196  energy(sigma->0) =     -221.45874196


--------------------------------------------------------------------------------------------------------




--------------------------------------- Iteration      1(  16)  ---------------------------------------


    POTLOK:  cpu time    0.1328: real time    0.1333
    SETDIJ:  cpu time    0.0164: real time    0.0165
     EDDAV:  cpu time   24.8540: real time   24.9227
 BZINTS: Fermi energy:  6.178468;276.000000 electrons
         Band energy:***********;  BLOECHL correction: -0.032839
       DOS:  cpu time    0.0544: real time    0.0545
    CHARGE:  cpu time    0.8278: real time    0.8299
    MIXING:  cpu time    0.0045: real time    0.0045
    --------------------------------------------
      LOOP:  cpu time   25.8899: real time   25.9614

 eigenvalue-minimisations  : 14328
 total energy-change (2. order) : 0.5072833E-02  (-0.9040271E-03)
 number of electron     275.9999937 magnetization      42.4932984
 augmentation part      112.1862230 magnetization      29.4998436

 Broyden mixing:
  rms(total) = 0.38177E-01    rms(broyden)= 0.38176E-01
  rms(prec ) = 0.39935E-01
  weight for this iteration     100.00

 eigenvalues of (default mixing * dielectric matrix)
  average eigenvalue GAMMA=   1.5368
  6.3114  2.7847  1.3185  1.3185  1.1115  0.3780  0.8103  0.8103  0.7260  0.7260
  0.6095

 Free energy of the ion-electron system (eV)
  ---------------------------------------------------
  alpha Z        PSCENC =      1362.55286497
  Ewald energy   TEWEN  =    -25513.06237826
  -Hartree energ DENC   =    -10007.18043433
  -exchange      EXHF   =         0.00000000
  -V(xc)+E(xc)   XCENC  =      1357.08748430
  PAW double counting   =     35786.17365701   -36948.91658305
  entropy T*S    EENTRO =         0.00000000
  eigenvalues    EBANDS =     -3529.89788297
  atomic energy  EATOM  =     37271.78960320
  Solvation  Ediel_sol  =         0.00000000
  ---------------------------------------------------
  free energy    TOTEN  =      -221.45366913 eV

  energy without entropy =     -221.45366913  energy(sigma->0) =     -221.45366913


--------------------------------------------------------------------------------------------------------




--------------------------------------- Iteration      1(  17)  ---------------------------------------


    POTLOK:  cpu time    0.1328: real time    0.1335
    SETDIJ:  cpu time    0.0163: real time    0.0163
     EDDAV:  cpu time   22.4150: real time   22.4777
 BZINTS: Fermi energy:  6.179750;276.000000 electrons
         Band energy:***********;  BLOECHL correction: -0.032785
       DOS:  cpu time    0.0558: real time    0.0561
    CHARGE:  cpu time    0.8292: real time    0.8312
    MIXING:  cpu time    0.0050: real time    0.0050
    --------------------------------------------
      LOOP:  cpu time   23.4541: real time   23.5199

 eigenvalue-minimisations  : 12468
 total energy-change (2. order) :-0.6203846E-03  (-0.4809404E-03)
 number of electron     275.9999937 magnetization      42.3942663
 augmentation part      112.1807299 magnetization      29.4142884

 Broyden mixing:
  rms(total) = 0.19367E-01    rms(broyden)= 0.19367E-01
  rms(prec ) = 0.19966E-01
  weight for this iteration     100.00

 eigenvalues of (default mixing * dielectric matrix)
  average eigenvalue GAMMA=   1.5612
  6.5179  2.7665  2.4489  1.0712  1.0712  0.3780  0.8910  0.8910  0.7208  0.7208
  0.6046  0.6529

 Free energy of the ion-electron system (eV)
  ---------------------------------------------------
  alpha Z        PSCENC =      1362.55286497
  Ewald energy   TEWEN  =    -25513.06237826
  -Hartree energ DENC   =    -10006.92817368
  -exchange      EXHF   =         0.00000000
  -V(xc)+E(xc)   XCENC  =      1357.01889464
  PAW double counting   =     35805.76012515   -36969.05737522
  entropy T*S    EENTRO =         0.00000000
  eigenvalues    EBANDS =     -3529.52785031
  atomic energy  EATOM  =     37271.78960320
  Solvation  Ediel_sol  =         0.00000000
  ---------------------------------------------------
  free energy    TOTEN  =      -221.45428951 eV

  energy without entropy =     -221.45428951  energy(sigma->0) =     -221.45428951


--------------------------------------------------------------------------------------------------------




--------------------------------------- Iteration      1(  18)  ---------------------------------------


    POTLOK:  cpu time    0.1326: real time    0.1331
    SETDIJ:  cpu time    0.0161: real time    0.0163
     EDDAV:  cpu time   24.6000: real time   24.6666
 BZINTS: Fermi energy:  6.180166;276.000000 electrons
         Band energy:***********;  BLOECHL correction: -0.032910
       DOS:  cpu time    0.0546: real time    0.0547
    CHARGE:  cpu time    0.8305: real time    0.8326
    MIXING:  cpu time    0.0050: real time    0.0050
    --------------------------------------------
      LOOP:  cpu time   25.6388: real time   25.7083

 eigenvalue-minimisations  : 14052
 total energy-change (2. order) :-0.2392605E-03  (-0.2546547E-04)
 number of electron     275.9999937 magnetization      42.3422879
 augmentation part      112.1760108 magnetization      29.3803204

 Broyden mixing:
  rms(total) = 0.87152E-02    rms(broyden)= 0.87150E-02
  rms(prec ) = 0.90717E-02
  weight for this iteration     100.00

 eigenvalues of (default mixing * dielectric matrix)
  average eigenvalue GAMMA=   1.5334
  6.6525  2.8451  2.4448  1.1471  1.1471  0.9589  0.9589  0.3780  0.7431  0.7431
  0.6868  0.6141  0.6141

 Free energy of the ion-electron system (eV)
  ---------------------------------------------------
  alpha Z        PSCENC =      1362.55286497
  Ewald energy   TEWEN  =    -25513.06237826
  -Hartree energ DENC   =    -10007.21198536
  -exchange      EXHF   =         0.00000000
  -V(xc)+E(xc)   XCENC  =      1356.96925002
  PAW double counting   =     35803.81785718   -36967.16075212
  entropy T*S    EENTRO =         0.00000000
  eigenvalues    EBANDS =     -3529.14898840
  atomic energy  EATOM  =     37271.78960320
  Solvation  Ediel_sol  =         0.00000000
  ---------------------------------------------------
  free energy    TOTEN  =      -221.45452877 eV

  energy without entropy =     -221.45452877  energy(sigma->0) =     -221.45452877


--------------------------------------------------------------------------------------------------------




--------------------------------------- Iteration      1(  19)  ---------------------------------------


    POTLOK:  cpu time    0.1321: real time    0.1330
    SETDIJ:  cpu time    0.0162: real time    0.0163
     EDDAV:  cpu time   23.9737: real time   24.0392
 BZINTS: Fermi energy:  6.181174;276.000000 electrons
         Band energy:***********;  BLOECHL correction: -0.032969
       DOS:  cpu time    0.0544: real time    0.0545
    CHARGE:  cpu time    0.8302: real time    0.8331
    MIXING:  cpu time    0.0052: real time    0.0052
    --------------------------------------------
      LOOP:  cpu time   25.0118: real time   25.0813

 eigenvalue-minimisations  : 13596
 total energy-change (2. order) :-0.5646623E-04  (-0.1002794E-04)
 number of electron     275.9999937 magnetization      42.3345388
 augmentation part      112.1716332 magnetization      29.3809629

 Broyden mixing:
  rms(total) = 0.17065E-02    rms(broyden)= 0.17062E-02
  rms(prec ) = 0.18183E-02
  weight for this iteration     100.00

 eigenvalues of (default mixing * dielectric matrix)
  average eigenvalue GAMMA=   1.5142
  6.7129  2.8515  2.4296  1.2960  1.2960  0.9862  0.9862  0.3780  0.7756  0.7756
  0.7400  0.7400  0.6157  0.6157

 Free energy of the ion-electron system (eV)
  ---------------------------------------------------
  alpha Z        PSCENC =      1362.55286497
  Ewald energy   TEWEN  =    -25513.06237826
  -Hartree energ DENC   =    -10007.56698839
  -exchange      EXHF   =         0.00000000
  -V(xc)+E(xc)   XCENC  =      1356.94900640
  PAW double counting   =     35799.25177782   -36962.53946481
  entropy T*S    EENTRO =         0.00000000
  eigenvalues    EBANDS =     -3528.82900617
  atomic energy  EATOM  =     37271.78960320
  Solvation  Ediel_sol  =         0.00000000
  ---------------------------------------------------
  free energy    TOTEN  =      -221.45458524 eV

  energy without entropy =     -221.45458524  energy(sigma->0) =     -221.45458524


--------------------------------------------------------------------------------------------------------




--------------------------------------- Iteration      1(  20)  ---------------------------------------


    POTLOK:  cpu time    0.1336: real time    0.1341
    SETDIJ:  cpu time    0.0163: real time    0.0163
     EDDAV:  cpu time   22.3624: real time   22.4247
 BZINTS: Fermi energy:  6.181516;276.000000 electrons
         Band energy:***********;  BLOECHL correction: -0.032976
       DOS:  cpu time    0.0533: real time    0.0534
    CHARGE:  cpu time    0.8269: real time    0.8290
    MIXING:  cpu time    0.0052: real time    0.0052
    --------------------------------------------
      LOOP:  cpu time   23.3977: real time   23.4627

 eigenvalue-minimisations  : 12444
 total energy-change (2. order) :-0.8821320E-05  (-0.2317638E-05)
 number of electron     275.9999937 magnetization      42.3309061
 augmentation part      112.1710644 magnetization      29.3787760

 Broyden mixing:
  rms(total) = 0.91765E-03    rms(broyden)= 0.91760E-03
  rms(prec ) = 0.93941E-03
  weight for this iteration     100.00

 eigenvalues of (default mixing * dielectric matrix)
  average eigenvalue GAMMA=   1.5128
  6.7457  2.9665  2.4095  1.8717  1.0835  1.0835  1.0081  1.0081  0.3780  0.7390
  0.7390  0.6049  0.7138  0.6701  0.6701

 Free energy of the ion-electron system (eV)
  ---------------------------------------------------
  alpha Z        PSCENC =      1362.55286497
  Ewald energy   TEWEN  =    -25513.06237826
  -Hartree energ DENC   =    -10007.64445073
  -exchange      EXHF   =         0.00000000
  -V(xc)+E(xc)   XCENC  =      1356.94609865
  PAW double counting   =     35799.23205758   -36962.52725858
  entropy T*S    EENTRO =         0.00000000
  eigenvalues    EBANDS =     -3528.74113089
  atomic energy  EATOM  =     37271.78960320
  Solvation  Ediel_sol  =         0.00000000
  ---------------------------------------------------
  free energy    TOTEN  =      -221.45459406 eV

  energy without entropy =     -221.45459406  energy(sigma->0) =     -221.45459406


--------------------------------------------------------------------------------------------------------




--------------------------------------- Iteration      1(  21)  ---------------------------------------


    POTLOK:  cpu time    0.1319: real time    0.1323
    SETDIJ:  cpu time    0.0161: real time    0.0161
     EDDAV:  cpu time   21.7515: real time   21.8097
 BZINTS: Fermi energy:  6.181904;276.000000 electrons
         Band energy:***********;  BLOECHL correction: -0.032974
       DOS:  cpu time    0.0487: real time    0.0489
    CHARGE:  cpu time    0.7735: real time    0.7754
    MIXING:  cpu time    0.0052: real time    0.0052
    --------------------------------------------
      LOOP:  cpu time   22.7269: real time   22.7876

 eigenvalue-minimisations  : 12636
 total energy-change (2. order) : 0.2184352E-05  (-0.2406644E-06)
 number of electron     275.9999937 magnetization      42.3327708
 augmentation part      112.1697861 magnetization      29.3803940

 Broyden mixing:
  rms(total) = 0.11147E-02    rms(broyden)= 0.11147E-02
  rms(prec ) = 0.11817E-02
  weight for this iteration     100.00

 eigenvalues of (default mixing * dielectric matrix)
  average eigenvalue GAMMA=   1.5043
  6.7469  3.0090  2.4493  2.1915  1.1927  1.1927  0.9925  0.9925  0.3780  0.7781
  0.7781  0.7329  0.7329  0.6171  0.6171  0.6684

 Free energy of the ion-electron system (eV)
  ---------------------------------------------------
  alpha Z        PSCENC =      1362.55286497
  Ewald energy   TEWEN  =    -25513.06237826
  -Hartree energ DENC   =    -10007.72272034
  -exchange      EXHF   =         0.00000000
  -V(xc)+E(xc)   XCENC  =      1356.94704245
  PAW double counting   =     35798.87875735   -36962.18409178
  entropy T*S    EENTRO =         0.00000000
  eigenvalues    EBANDS =     -3528.65366945
  atomic energy  EATOM  =     37271.78960320
  Solvation  Ediel_sol  =         0.00000000
  ---------------------------------------------------
  free energy    TOTEN  =      -221.45459188 eV

  energy without entropy =     -221.45459188  energy(sigma->0) =     -221.45459188


--------------------------------------------------------------------------------------------------------




--------------------------------------- Iteration      1(  22)  ---------------------------------------


    POTLOK:  cpu time    0.1201: real time    0.1207
    SETDIJ:  cpu time    0.0145: real time    0.0145
     EDDAV:  cpu time   19.5150: real time   19.5652
 BZINTS: Fermi energy:  6.181755;276.000000 electrons
         Band energy:***********;  BLOECHL correction: -0.032975
       DOS:  cpu time    0.0571: real time    0.0572
    CHARGE:  cpu time    0.8407: real time    0.8428
    MIXING:  cpu time    0.0059: real time    0.0059
    --------------------------------------------
      LOOP:  cpu time   20.5532: real time   20.6063

 eigenvalue-minimisations  : 10716
 total energy-change (2. order) :-0.1123088E-05  (-0.9520372E-07)
 number of electron     275.9999937 magnetization      42.3349034
 augmentation part      112.1704071 magnetization      29.3825960

 Broyden mixing:
  rms(total) = 0.51286E-03    rms(broyden)= 0.51286E-03
  rms(prec ) = 0.54377E-03
  weight for this iteration     100.00

 eigenvalues of (default mixing * dielectric matrix)
  average eigenvalue GAMMA=   1.4875
  6.7307  2.9783  2.6426  2.1355  1.3928  0.3780  1.0154  1.0154  1.0363  1.0363
  0.7513  0.7513  0.7794  0.7794  0.6087  0.6279  0.6279

 Free energy of the ion-electron system (eV)
  ---------------------------------------------------
  alpha Z        PSCENC =      1362.55286497
  Ewald energy   TEWEN  =    -25513.06237826
  -Hartree energ DENC   =    -10007.68913682
  -exchange      EXHF   =         0.00000000
  -V(xc)+E(xc)   XCENC  =      1356.94723382
  PAW double counting   =     35799.13554973   -36962.44340538
  entropy T*S    EENTRO =         0.00000000
  eigenvalues    EBANDS =     -3528.68492427
  atomic energy  EATOM  =     37271.78960320
  Solvation  Ediel_sol  =         0.00000000
  ---------------------------------------------------
  free energy    TOTEN  =      -221.45459300 eV

  energy without entropy =     -221.45459300  energy(sigma->0) =     -221.45459300


--------------------------------------------------------------------------------------------------------




--------------------------------------- Iteration      1(  23)  ---------------------------------------


    POTLOK:  cpu time    0.1324: real time    0.1328
    SETDIJ:  cpu time    0.0163: real time    0.0163
     EDDAV:  cpu time   18.7442: real time   18.7918
 BZINTS: Fermi energy:  6.181654;276.000000 electrons
         Band energy:***********;  BLOECHL correction: -0.032975
       DOS:  cpu time    0.0554: real time    0.0556
    CHARGE:  cpu time    0.8327: real time    0.8348
    MIXING:  cpu time    0.0058: real time    0.0058
    --------------------------------------------
      LOOP:  cpu time   19.7868: real time   19.8371

 eigenvalue-minimisations  :  9756
 total energy-change (2. order) :-0.1847366E-06  (-0.2959911E-07)
 number of electron     275.9999937 magnetization      42.3352213
 augmentation part      112.1708273 magnetization      29.3828055

 Broyden mixing:
  rms(total) = 0.64306E-04    rms(broyden)= 0.64298E-04
  rms(prec ) = 0.66579E-04
  weight for this iteration     100.00

 eigenvalues of (default mixing * dielectric matrix)
  average eigenvalue GAMMA=   1.4812
  6.7286  3.0150  2.6927  2.2640  1.3807  1.3807  1.0167  1.0167  0.3780  0.9611
  0.9611  0.7481  0.7481  0.7616  0.7178  0.6112  0.6489  0.6306

 Free energy of the ion-electron system (eV)
  ---------------------------------------------------
  alpha Z        PSCENC =      1362.55286497
  Ewald energy   TEWEN  =    -25513.06237826
  -Hartree energ DENC   =    -10007.66453365
  -exchange      EXHF   =         0.00000000
  -V(xc)+E(xc)   XCENC  =      1356.94779975
  PAW double counting   =     35799.33103705   -36962.64109920
  entropy T*S    EENTRO =         0.00000000
  eigenvalues    EBANDS =     -3528.70788705
  atomic energy  EATOM  =     37271.78960320
  Solvation  Ediel_sol  =         0.00000000
  ---------------------------------------------------
  free energy    TOTEN  =      -221.45459318 eV

  energy without entropy =     -221.45459318  energy(sigma->0) =     -221.45459318


--------------------------------------------------------------------------------------------------------




--------------------------------------- Iteration      1(  24)  ---------------------------------------


    POTLOK:  cpu time    0.1323: real time    0.1327
    SETDIJ:  cpu time    0.0163: real time    0.0164
     EDDAV:  cpu time   14.3741: real time   14.4105
 BZINTS: Fermi energy:  6.181660;276.000000 electrons
         Band energy:***********;  BLOECHL correction: -0.032975
       DOS:  cpu time    0.0558: real time    0.0559
    CHARGE:  cpu time    0.8270: real time    0.8291
    MIXING:  cpu time    0.0060: real time    0.0060
    --------------------------------------------
      LOOP:  cpu time   15.4115: real time   15.4506

 eigenvalue-minimisations  :  6540
 total energy-change (2. order) : 0.3992027E-06  (-0.9203125E-08)
 number of electron     275.9999937 magnetization      42.3352298
 augmentation part      112.1707716 magnetization      29.3827521

 Broyden mixing:
  rms(total) = 0.46002E-04    rms(broyden)= 0.46001E-04
  rms(prec ) = 0.47553E-04
  weight for this iteration     100.00

 eigenvalues of (default mixing * dielectric matrix)
[...]
 -0.000  -0.002  -0.000  -0.000  -0.001   0.000  -0.000  -0.000  -0.006   0.000   0.000  -0.000   0.000   0.009  -0.000  -0.000
 total augmentation occupancy for first ion, spin component:           2
 -0.003   0.000   0.000  -0.010   0.000   0.000   0.002   0.001  -0.000   0.000   0.000  -0.003  -0.002   0.000  -0.000  -0.000
 -0.000  -0.003   0.000  -0.000  -0.010   0.000  -0.000  -0.000  -0.001  -0.000   0.000   0.000  -0.000   0.002   0.000  -0.000
 -0.000   0.000  -0.003  -0.000  -0.000  -0.010   0.000  -0.000   0.000   0.001  -0.002  -0.000   0.000  -0.000  -0.002   0.003
 -0.010   0.000  -0.000   0.021   0.000  -0.000  -0.085  -0.050  -0.000   0.002   0.013   0.049   0.032   0.000  -0.001  -0.008
  0.000  -0.010   0.000  -0.000   0.017  -0.000   0.000  -0.000   0.076   0.000  -0.000   0.000   0.000  -0.043   0.000   0.000
  0.000  -0.000  -0.010  -0.000   0.000   0.021   0.013  -0.002  -0.000  -0.050   0.085  -0.008   0.001   0.000   0.032  -0.049
  0.002  -0.000   0.000  -0.085  -0.000   0.013   4.295   0.577  -0.000  -0.179  -0.000  -2.428  -0.470  -0.000   0.166   0.002
  0.001  -0.000  -0.000  -0.050   0.000  -0.002   0.577   5.021   0.000   0.000  -0.179  -0.469  -3.025  -0.000   0.003   0.166
 -0.000  -0.001   0.000  -0.000   0.076  -0.000  -0.000   0.000   4.387   0.000  -0.000   0.000  -0.000  -2.383  -0.000   0.000
  0.000   0.000   0.001   0.002   0.000  -0.050  -0.179  -0.000   0.000   5.021  -0.577   0.166  -0.003  -0.000  -3.025   0.469
  0.000   0.000  -0.002   0.013  -0.000   0.085   0.000  -0.179  -0.000  -0.577   4.295  -0.002   0.166   0.000   0.470  -2.428
 -0.003   0.000  -0.000   0.049   0.000  -0.008  -2.428  -0.469   0.000   0.166  -0.002   1.294   0.332   0.000  -0.129  -0.000
 -0.002   0.000   0.000   0.032   0.000   0.001  -0.470  -3.025  -0.000  -0.003   0.166   0.332   1.751   0.000   0.000  -0.129
  0.000   0.002  -0.000   0.000  -0.043   0.000  -0.000  -0.000  -2.383  -0.000   0.000  -0.000   0.000   1.231   0.000  -0.000
 -0.000  -0.000  -0.002  -0.001   0.000   0.032   0.166   0.003  -0.000  -3.025   0.470  -0.129  -0.000   0.000   1.751  -0.332
 -0.000  -0.000   0.003  -0.008   0.000  -0.049   0.002   0.166   0.000   0.469  -2.428  -0.000  -0.129  -0.000  -0.332   1.294
  0.000   0.000  -0.000  -0.000   0.001  -0.000   0.000   0.000   0.044   0.000  -0.000   0.000   0.000  -0.022   0.000   0.000
 -0.000   0.000  -0.000  -0.000   0.001   0.000  -0.000  -0.000   0.007  -0.000  -0.000  -0.000  -0.000  -0.005  -0.000   0.000


------------------------ aborting loop because EDIFF is reached ----------------------------------------


 


 total charge     
 
# of ion       s       p       d       tot
------------------------------------------
    1        0.284   6.340   5.852  12.476
    2        0.284   6.340   5.854  12.478
    3        0.284   6.340   5.862  12.486
    4        0.284   6.340   5.852  12.475
    5        0.283   6.340   5.854  12.478
    6        0.284   6.340   5.865  12.489
    7        0.284   6.340   5.851  12.474
    8        0.284   6.340   5.853  12.477
    9        0.283   6.340   5.854  12.477
   10        0.283   6.340   5.868  12.492
   11        0.283   6.340   5.865  12.489
   12        0.283   6.340   5.857  12.480
   13        1.568   3.417   0.000   4.984
   14        1.568   3.416   0.000   4.984
   15        1.568   3.417   0.000   4.984
   16        1.568   3.418   0.000   4.985
   17        1.568   3.418   0.000   4.985
   18        1.568   3.417   0.000   4.984
   19        1.567   3.404   0.000   4.971
   20        1.567   3.404   0.000   4.971
   21        1.567   3.405   0.000   4.972
   22        1.567   3.405   0.000   4.972
   23        1.567   3.405   0.000   4.972
   24        1.567   3.405   0.000   4.972
   25        1.569   3.418   0.000   4.986
   26        1.569   3.417   0.000   4.986
   27        1.569   3.419   0.000   4.987
   28        1.569   3.420   0.000   4.988
   29        1.569   3.419   0.000   4.988
   30        1.569   3.419   0.000   4.988
--------------------------------------------------
tot         31.620 137.521  70.288 239.429
 


 magnetization (x)
 
# of ion       s       p       d       tot
------------------------------------------
    1        0.024   0.036   3.141   3.201
    2        0.024   0.036   3.138   3.198
    3        0.025   0.036   3.135   3.195
    4        0.025   0.036   3.140   3.201
    5        0.025   0.036   3.140   3.201
    6        0.025   0.036   3.132   3.193
    7        0.024   0.036   3.125   3.185
    8        0.024   0.036   3.122   3.182
    9        0.025   0.036   3.122   3.183
   10        0.025   0.036   3.116   3.177
   11        0.025   0.036   3.119   3.179
   12        0.025   0.036   3.123   3.183
   13        0.020   0.139   0.000   0.160
   14        0.020   0.139   0.000   0.159
   15        0.020   0.139   0.000   0.159
   16        0.020   0.140   0.000   0.160
   17        0.020   0.140   0.000   0.161
   18        0.020   0.139   0.000   0.160
   19        0.021   0.143   0.000   0.165
   20        0.021   0.143   0.000   0.164
   21        0.021   0.144   0.000   0.165
   22        0.021   0.144   0.000   0.165
   23        0.021   0.144   0.000   0.165
   24        0.021   0.144   0.000   0.166
   25        0.020   0.136   0.000   0.156
   26        0.020   0.135   0.000   0.155
   27        0.020   0.136   0.000   0.157
   28        0.020   0.137   0.000   0.158
   29        0.020   0.137   0.000   0.157
   30        0.020   0.137   0.000   0.157
--------------------------------------------------
tot          0.668   2.948  37.553  41.169
 
    CHARGE:  cpu time    0.8410: real time    0.8430
    FORLOC:  cpu time    0.0158: real time    0.0160
    FORNL :  cpu time    5.9322: real time    5.9470
    STRESS:  cpu time   17.7770: real time   17.8221
    FORCOR:  cpu time    0.1425: real time    0.1428
    FORHAR:  cpu time    0.0271: real time    0.0272
    MIXING:  cpu time    0.0060: real time    0.0060
    OFIELD:  cpu time    0.0001: real time    0.0001

  FORCE on cell =-STRESS in cart. coord.  units (eV):
  Direction    XX          YY          ZZ          XY          YZ          ZX
  --------------------------------------------------------------------------------------
  Alpha Z  1362.55286  1362.55286  1362.55286
  Ewald   -8201.75422 -8201.75360 -9109.63806     0.00000     0.00002    -0.00000
  Hartree  3503.88890  3503.88876  2999.88313    -0.00000     0.00001    -0.00000
  E(xc)   -1615.79540 -1615.79544 -1617.35977    -0.00003     0.00000    -0.00000
  Local    -165.41205  -165.41208  1230.43699    -0.00030    -0.00003     0.00000
  n-local  -743.12970  -742.02147  -744.53147    -4.16677     0.49352     0.11439
  augment  1844.65794  1844.65795  1846.57018     0.00028     0.00000    -0.00000
  Kinetic  4007.17566  4009.27144  4025.03247     7.65393    -1.98919    -5.04429
  Fock        0.00000     0.00000     0.00000     0.00000     0.00000     0.00000
  -------------------------------------------------------------------------------------
  Total      -6.21380    -6.21379    -7.05366     0.00000    -0.00000     0.00000
  in kB     -32.95811   -32.95811   -37.41278     0.00000    -0.00000     0.00000
  external pressure =      -34.44 kB  Pullay stress =        0.00 kB


 VOLUME and BASIS-vectors are now :
 -----------------------------------------------------------------------------
  energy-cutoff  :      760.00
  volume of cell :      302.07
      direct lattice vectors                 reciprocal lattice vectors
     5.035100000  0.000000000  0.000000000     0.198605787  0.114665118  0.000000000
    -2.517550000  4.360524000  0.000000000     0.000000000  0.229330236  0.000000000
     0.000000000  0.000000000 13.758100000     0.000000000  0.000000000  0.072684455

  length of vectors
     5.035100000  5.035099558 13.758100000     0.229330216  0.229330236  0.072684455


 FORCES acting on ions
    electron-ion (+dipol)            ewald-force                    non-local-force                 convergence-correction
 -----------------------------------------------------------------------------------------------
   0.156E-03 0.366E-03 -.126E+03   -.101E-02 0.523E-03 0.128E+03   -.434E-17 0.000E+00 -.289E+01   -.497E-08 0.298E-08 -.209E-04
   -.402E-03 0.580E-03 0.126E+03   0.101E-02 -.523E-03 -.128E+03   -.477E-17 0.694E-17 0.289E+01   0.711E-08 -.385E-08 0.209E-04
   -.135E-03 0.533E-03 -.126E+03   0.314E-02 -.187E-02 0.128E+03   -.434E-17 0.000E+00 -.289E+01   0.125E-06 -.723E-07 -.146E-04
   -.328E-03 0.645E-03 -.126E+03   -.220E-02 0.121E-02 0.128E+03   0.911E-17 -.173E-17 -.289E+01   -.117E-06 0.671E-07 -.125E-04
   0.817E-04 0.301E-03 0.126E+03   0.220E-02 -.121E-02 -.128E+03   -.477E-17 0.434E-18 0.289E+01   0.119E-06 -.680E-07 0.125E-04
   -.111E-03 0.412E-03 0.126E+03   -.314E-02 0.187E-02 -.128E+03   -.997E-17 -.434E-18 0.289E+01   -.122E-06 0.714E-07 0.146E-04
   0.566E-03 -.105E-02 0.126E+03   0.964E-03 -.523E-03 -.128E+03   0.347E-17 0.217E-17 0.289E+01   0.771E-08 -.475E-08 0.209E-04
   0.104E-02 -.127E-02 -.126E+03   -.964E-03 0.523E-03 0.128E+03   0.130E-17 -.867E-18 -.289E+01   -.446E-08 0.194E-08 -.209E-04
   0.105E-02 -.133E-02 0.126E+03   0.215E-02 -.121E-02 -.128E+03   -.499E-17 0.130E-17 0.289E+01   0.119E-06 -.695E-07 0.125E-04
   0.750E-03 -.110E-02 -.126E+03   0.319E-02 -.187E-02 0.128E+03   0.867E-18 -.173E-17 -.289E+01   0.126E-06 -.726E-07 -.146E-04
   0.856E-03 -.121E-02 0.126E+03   -.319E-02 0.187E-02 -.128E+03   0.651E-17 0.173E-17 0.289E+01   -.122E-06 0.698E-07 0.146E-04
   0.557E-03 -.989E-03 -.126E+03   -.215E-02 0.121E-02 0.128E+03   -.325E-17 -.173E-17 -.289E+01   -.116E-06 0.667E-07 -.125E-04
   -.424E+02 -.134E-02 0.216E-03   0.418E+02 0.106E-02 -.470E-03   0.674E+00 -.140E-17 0.683E-17   -.214E-04 0.290E-07 -.270E-08
   0.424E+02 -.867E-04 -.337E-03   -.418E+02 -.106E-02 0.470E-03   -.674E+00 -.206E-17 -.623E-17   0.214E-04 -.310E-07 0.122E-08
   -.424E+02 -.320E-02 -.585E-02   0.418E+02 0.570E-03 -.997E-03   0.674E+00 0.211E-17 -.276E-17   -.214E-04 -.240E-07 -.188E-05
   -.424E+02 0.240E-02 0.545E-02   0.418E+02 -.163E-02 0.147E-02   0.674E+00 0.379E-17 -.282E-17   -.214E-04 -.795E-08 0.188E-05
   0.424E+02 -.382E-02 -.557E-02   -.418E+02 0.163E-02 -.147E-02   -.674E+00 -.171E-17 -.618E-17   0.214E-04 0.597E-08 -.188E-05
   0.424E+02 0.177E-02 0.573E-02   -.418E+02 -.570E-03 0.997E-03   -.674E+00 -.157E-17 -.141E-17   0.214E-04 0.221E-07 0.188E-05
   0.212E+02 -.367E+02 -.308E-03   -.209E+02 0.362E+02 0.438E-03   -.337E+00 0.584E+00 -.867E-18   0.108E-04 -.186E-04 0.120E-08
   -.212E+02 0.367E+02 0.195E-03   0.209E+02 -.362E+02 -.438E-03   0.337E+00 -.584E+00 0.434E-17   -.107E-04 0.186E-04 -.266E-08
   0.212E+02 -.367E+02 -.554E-02   -.209E+02 0.362E+02 -.150E-02   -.337E+00 0.584E+00 -.260E-17   0.107E-04 -.185E-04 -.188E-05
   0.212E+02 -.367E+02 0.575E-02   -.209E+02 0.362E+02 0.964E-03   -.337E+00 0.584E+00 -.173E-17   0.107E-04 -.186E-04 0.188E-05
   -.212E+02 0.367E+02 -.587E-02   0.209E+02 -.362E+02 -.964E-03   0.337E+00 -.584E+00 0.173E-17   -.107E-04 0.186E-04 -.188E-05
   -.212E+02 0.367E+02 0.543E-02   0.209E+02 -.362E+02 0.150E-02   0.337E+00 -.584E+00 0.434E-17   -.107E-04 0.185E-04 0.188E-05
   0.212E+02 0.367E+02 0.939E-04   -.209E+02 -.362E+02 0.322E-04   -.337E+00 -.584E+00 -.304E-17   0.107E-04 0.185E-04 0.148E-08
   -.212E+02 -.367E+02 0.144E-03   0.209E+02 0.362E+02 -.322E-04   0.337E+00 0.584E+00 0.867E-18   -.107E-04 -.185E-04 0.142E-08
   0.212E+02 0.367E+02 -.409E-02   -.209E+02 -.362E+02 -.303E-02   -.337E+00 -.584E+00 0.434E-18   0.108E-04 0.186E-04 -.188E-05
   -.212E+02 -.367E+02 -.404E-02   0.209E+02 0.362E+02 -.310E-02   0.337E+00 0.584E+00 -.477E-17   -.107E-04 -.186E-04 -.188E-05
   0.212E+02 0.367E+02 0.428E-02   -.209E+02 -.362E+02 0.310E-02   -.337E+00 -.584E+00 0.000E+00   0.107E-04 0.186E-04 0.189E-05
   -.212E+02 -.367E+02 0.433E-02   0.209E+02 0.362E+02 0.303E-02   0.337E+00 0.584E+00 -.130E-17   -.108E-04 -.186E-04 0.189E-05
 -----------------------------------------------------------------------------------------------
   0.150E-01 -.165E-01 -.111E-04   -.995E-13 -.995E-13 -.192E-12   -.111E-15 0.222E-15 -.459E-15   0.248E-07 -.187E-07 -.242E-09
 
 
 POSITION                                       TOTAL-FORCE (eV/Angst)
 -----------------------------------------------------------------------------------
      0.00000      0.00000      4.88853         0.000000     -0.000000     -0.927056
      0.00000      0.00000      8.86957         0.000000     -0.000000      0.927056
     -0.00000      2.90702      0.30250         0.000000     -0.000000     -0.927056
      2.51755      1.45351      9.47456         0.000000     -0.000000     -0.927056
     -0.00000      2.90702      4.28354         0.000000     -0.000000      0.927056
      2.51755      1.45351     13.45560         0.000000     -0.000000      0.927056
      0.00000      0.00000      1.99052         0.000000     -0.000000      0.927056
      0.00000      0.00000     11.76758         0.000000     -0.000000     -0.927056
     -0.00000      2.90702     11.16259         0.000000     -0.000000      0.927056
     -0.00000      2.90702      7.18155         0.000000     -0.000000     -0.927056
      2.51755      1.45351      6.57655         0.000000     -0.000000      0.927056
      2.51755      1.45351      2.59551         0.000000     -0.000000     -0.927056
      1.54165      0.00000      3.43953         0.082782     -0.000000     -0.000000
      3.49345      0.00000     10.31858        -0.082782     -0.000000     -0.000000
      1.54164      2.90702     12.61160         0.082782     -0.000000     -0.000000
      4.05920      1.45351      8.02555         0.082782     -0.000000     -0.000000
     -1.54165      2.90702      5.73255        -0.082782     -0.000000     -0.000000
      0.97591      1.45351      1.14650        -0.082782     -0.000000      0.000000
     -0.77082      1.33511      3.43953        -0.041391      0.071691     -0.000000
     -1.74673      3.02542     10.31858         0.041391     -0.071691     -0.000000
     -0.77083      4.24212     12.61160        -0.041391      0.071691     -0.000000
      1.74673      2.78861      8.02555        -0.041391      0.071691     -0.000000
      0.77082      1.57191      5.73255         0.041391     -0.071691     -0.000000
      3.28838      0.11840      1.14650         0.041391     -0.071691      0.000000
      1.74673      3.02542      3.43953        -0.041391     -0.071691     -0.000000
      0.77082      1.33511     10.31858         0.041391      0.071691     -0.000000
     -0.77083      1.57191     12.61160        -0.041391     -0.071691     -0.000000
      0.77082      4.24212      5.73255         0.041391      0.071691     -0.000000
      1.74673      0.11840      8.02555        -0.041391     -0.071691      0.000000
      3.28838      2.78861      1.14650         0.041391      0.071691      0.000000
 -----------------------------------------------------------------------------------
    total drift:                                0.014990     -0.016532     -0.000011


--------------------------------------------------------------------------------------------------------



  FREE ENERGIE OF THE ION-ELECTRON SYSTEM (eV)
  ---------------------------------------------------
  free  energy   TOTEN  =      -221.45459258 eV

  energy  without entropy=     -221.45459258  energy(sigma->0) =     -221.45459258
 


--------------------------------------------------------------------------------------------------------


    POTLOK:  cpu time    0.1473: real time    0.1478


--------------------------------------------------------------------------------------------------------


     LOOP+:  cpu time  614.8070: real time  616.4928
    4ORBIT:  cpu time    0.0000: real time    0.0000
 


 total charge     
 
# of ion       s       p       d       tot
------------------------------------------
    1        0.284   6.340   5.852  12.476
    2        0.284   6.340   5.854  12.478
    3        0.284   6.340   5.862  12.486
    4        0.284   6.340   5.852  12.475
    5        0.283   6.340   5.854  12.478
    6        0.284   6.340   5.865  12.489
    7        0.284   6.340   5.851  12.474
    8        0.284   6.340   5.853  12.477
    9        0.283   6.340   5.854  12.477
   10        0.283   6.340   5.868  12.492
   11        0.283   6.340   5.865  12.489
   12        0.283   6.340   5.857  12.480
   13        1.568   3.417   0.000   4.984
   14        1.568   3.416   0.000   4.984
   15        1.568   3.417   0.000   4.984
   16        1.568   3.418   0.000   4.985
   17        1.568   3.418   0.000   4.985
   18        1.568   3.417   0.000   4.984
   19        1.567   3.404   0.000   4.971
   20        1.567   3.404   0.000   4.971
   21        1.567   3.405   0.000   4.972
   22        1.567   3.405   0.000   4.972
   23        1.567   3.405   0.000   4.972
   24        1.567   3.405   0.000   4.972
   25        1.569   3.418   0.000   4.986
   26        1.569   3.417   0.000   4.986
   27        1.569   3.419   0.000   4.987
   28        1.569   3.420   0.000   4.988
   29        1.569   3.419   0.000   4.988
   30        1.569   3.419   0.000   4.988
--------------------------------------------------
tot         31.620 137.521  70.288 239.429
 


 magnetization (x)
 
# of ion       s       p       d       tot
------------------------------------------
    1        0.024   0.036   3.141   3.201
    2        0.024   0.036   3.138   3.198
    3        0.025   0.036   3.135   3.195
    4        0.025   0.036   3.140   3.201
    5        0.025   0.036   3.140   3.201
    6        0.025   0.036   3.132   3.193
    7        0.024   0.036   3.125   3.185
    8        0.024   0.036   3.122   3.182
    9        0.025   0.036   3.122   3.183
   10        0.025   0.036   3.116   3.177
   11        0.025   0.036   3.119   3.179
   12        0.025   0.036   3.123   3.183
   13        0.020   0.139   0.000   0.160
   14        0.020   0.139   0.000   0.159
   15        0.020   0.139   0.000   0.159
   16        0.020   0.140   0.000   0.160
   17        0.020   0.140   0.000   0.161
   18        0.020   0.139   0.000   0.160
   19        0.021   0.143   0.000   0.165
   20        0.021   0.143   0.000   0.164
   21        0.021   0.144   0.000   0.165
   22        0.021   0.144   0.000   0.165
   23        0.021   0.144   0.000   0.165
   24        0.021   0.144   0.000   0.166
   25        0.020   0.136   0.000   0.156
   26        0.020   0.135   0.000   0.155
   27        0.020   0.136   0.000   0.157
   28        0.020   0.137   0.000   0.158
   29        0.020   0.137   0.000   0.157
   30        0.020   0.137   0.000   0.157
--------------------------------------------------
tot          0.668   2.948  37.553  41.169
 
 BZINTS: Fermi energy:  6.181651;276.000000 electrons
         Band energy:***********;  BLOECHL correction: -0.032975

 total amount of memory used by VASP MPI-rank0   115277. kBytes
=======================================================================

   base      :      30000. kBytes
   nonlr-proj:       9616. kBytes
   fftplans  :       5410. kBytes
   grid      :      13615. kBytes
   one-center:        248. kBytes
   wavefun   :      56388. kBytes
 
  
  
 General timing and accounting informations for this job:
 ========================================================
  
                  Total CPU time used (sec):      624.945
                            User time (sec):      621.155
                          System time (sec):        3.790
                         Elapsed time (sec):      626.895
  
                   Maximum memory used (kb):      166616.
                   Average memory used (kb):           0.
  
                          Minor page faults:        99784
                          Major page faults:            0
                 Voluntary context switches:          425
