=========================================
SLURM_JOB_ID = 29456377
SLURM_JOB_NODELIST = lnode37
SLURM_GPUS = 
SLURM_CPUS_ON_NODE = 8
SLURM_JOB_PARTITION = lenovo
SLURM_TASK_PID = 2384292
CUDA_VISIBLE_DEVICES = 
==========================================
 running on    8 total cores
 distrk:  each k-point on    8 cores,    1 groups
 distr:  one band on    8 cores,    1 groups
 using from now: INCAR     
 vasp.5.4.4.18Apr17-6-g9f103f2a35 (build Apr 28 2018 00:24:27) complex          
  
 POSCAR found type information on POSCAR  Mn Bi
 POSCAR found :  2 types and      12 ions
 scaLAPACK will be used

 ----------------------------------------------------------------------------- 
|                                                                             |
|           W    W    AA    RRRRR   N    N  II  N    N   GGGG   !!!           |
|           W    W   A  A   R    R  NN   N  II  NN   N  G    G  !!!           |
|           W    W  A    A  R    R  N N  N  II  N N  N  G       !!!           |
|           W WW W  AAAAAA  RRRRR   N  N N  II  N  N N  G  GGG   !            |
|           WW  WW  A    A  R   R   N   NN  II  N   NN  G    G                |
|           W    W  A    A  R    R  N    N  II  N    N   GGGG   !!!           |
|                                                                             |
|      For optimal performance we recommend to set                            |
|        NCORE= 4 - approx SQRT( number of cores)                             |
|      NCORE specifies how many cores store one orbital (NPAR=cpu/NCORE).     |
|      This setting can  greatly improve the performance of VASP for DFT.     |
|      The default,   NCORE=1            might be grossly inefficient         |
|      on modern multi-core architectures or massively parallel machines.     |
|      Do your own testing !!!!                                               |
|      Unfortunately you need to use the default for GW and RPA calculations. |
|      (for HF NCORE is supported but not extensively tested yet)             |
|                                                                             |
 ----------------------------------------------------------------------------- 

 LDA part: xc-table for Pade appr. of Perdew
 POSCAR, INCAR and KPOINTS ok, starting setup
 FFT: planning ...
 WAVECAR not read
 entering main loop
       N       E                     dE             d eps       ncg     rms          rms(c)
DAV:   1     0.550302129824E+03    0.55030E+03   -0.23509E+04290336   0.138E+03
DAV:   2     0.214832374266E+02   -0.52882E+03   -0.51778E+03290680   0.395E+02
DAV:   3    -0.649928575834E+02   -0.86476E+02   -0.83246E+02480194   0.149E+02
DAV:   4    -0.742296035426E+02   -0.92367E+01   -0.90007E+01508461   0.612E+01
DAV:   5    -0.748616149990E+02   -0.63201E+00   -0.62367E+00480952   0.161E+01    0.235E+01
DAV:   6    -0.856551772464E+02   -0.10794E+02   -0.28096E+02542602   0.158E+02    0.564E+01
DAV:   7    -0.678586704330E+02    0.17797E+02   -0.10534E+02501276   0.849E+01    0.112E+01
DAV:   8    -0.692852005001E+02   -0.14265E+01   -0.27048E+01563616   0.582E+01    0.132E+01
DAV:   9    -0.684631464912E+02    0.82205E+00   -0.11689E+01553589   0.415E+01    0.514E+00
DAV:  10    -0.684583440189E+02    0.48025E-02   -0.17268E+00501512   0.134E+01    0.298E+00
DAV:  11    -0.684610676620E+02   -0.27236E-02   -0.62642E-01554813   0.968E+00    0.215E+00
DAV:  12    -0.684609440257E+02    0.12364E-03   -0.21189E-01544793   0.680E+00    0.124E+00
DAV:  13    -0.684689456268E+02   -0.80016E-02   -0.52697E-02423893   0.128E+00    0.675E-01
DAV:  14    -0.684683097798E+02    0.63585E-03   -0.13581E-02499793   0.157E+00    0.327E-01
DAV:  15    -0.684682053668E+02    0.10441E-03   -0.64688E-03500312   0.101E+00    0.196E-01
DAV:  16    -0.684681201981E+02    0.85169E-04   -0.26689E-03500274   0.714E-01    0.799E-02
DAV:  17    -0.684681254742E+02   -0.52762E-05   -0.55186E-04496586   0.316E-01    0.460E-02
DAV:  18    -0.684681262297E+02   -0.75543E-06   -0.13731E-04502250   0.150E-01    0.276E-02
DAV:  19    -0.684681297572E+02   -0.35275E-05   -0.41222E-05500828   0.794E-02    0.122E-02
DAV:  20    -0.684681328964E+02   -0.31392E-05   -0.14931E-05436538   0.414E-02    0.958E-03
DAV:  21    -0.684681334845E+02   -0.58812E-06   -0.47802E-06276512   0.391E-02
   1 F= -.68468133E+02 E0= -.68468005E+02  d E =-.385217E-03  mag=     0.0001
