 vasp.5.4.4.18Apr17-6-g9f103f2a35 (build Apr 28 2018 00:24:27) complex          
  
 executed on             LinuxIFC date 2021.09.07  01:12:10
 running on   24 total cores
 distrk:  each k-point on   24 cores,    1 groups
 distr:  one band on NCORES_PER_BAND=   4 cores,    6 groups


--------------------------------------------------------------------------------------------------------


 INCAR:
 POTCAR:    PAW_PBE Fe_pv 02Aug2007               
 POTCAR:    PAW_PBE Fe_pv 02Aug2007               
   VRHFIN =Fe:  3pd7s1                                                          
   LEXCH  = PE                                                                  
   EATOM  =  2457.4239 eV,  180.6156 Ry                                         
                                                                                
   TITEL  = PAW_PBE Fe_pv 02Aug2007                                             
   LULTRA =        F    use ultrasoft PP ?                                      
   IUNSCR =        1    unscreen: 0-lin 1-nonlin 2-no                           
   RPACOR =    1.750    partial core radius                                     
   POMASS =   55.847; ZVAL   =   14.000    mass and valenz                      
   RCORE  =    2.200    outmost cutoff radius                                   
   RWIGS  =    2.200; RWIGS  =    1.164    wigner-seitz radius (au A)           
   ENMAX  =  293.238; ENMIN  =  219.928 eV                                      
   ICORE  =        3    local potential                                         
   LCOR   =        T    correct aug charges                                     
   LPAW   =        T    paw PP                                                  
   EAUG   =  578.342                                                            
   DEXC   =    0.000                                                            
   RMAX   =    2.249    core radius for proj-oper                               
   RAUG   =    1.300    factor for augmentation sphere                          
   RDEP   =    2.296    radius for radial grids                                 
   RDEPT  =    1.766    core radius for aug-charge                              
                                                                                
   Atomic configuration                                                         
    8 entries                                                                   
     n  l   j            E        occ.                                          
     1  0  0.50     -6993.8440   2.0000                                         
     2  0  0.50      -814.6047   2.0000                                         
     2  1  1.50      -693.3689   6.0000                                         
     3  0  0.50       -89.4732   2.0000                                         
     3  1  1.50       -55.6373   6.0000                                         
     3  2  2.50        -3.8151   7.0000                                         
     4  0  0.50        -4.2551   1.0000                                         
     4  3  2.50        -1.3606   0.0000                                         
   Description                                                                  
     l       E           TYP  RCUT    TYP  RCUT                                 
     1    -55.6372668     23  2.000                                             
     1     -5.4423304     23  2.000                                             
     2     -3.8151096     23  2.200                                             
     2     -5.1756922     23  2.200                                             
     0     -4.2550951     23  2.200                                             
     0     27.2116520     23  2.200                                             
     3     -1.3605826     23  2.200                                             
  local pseudopotential read in
  partial core-charges read in
  partial kinetic energy density read in
  atomic valenz-charges read in
  non local Contribution for L=           1  read in
    real space projection operators read in
  non local Contribution for L=           1  read in
    real space projection operators read in
  non local Contribution for L=           2  read in
    real space projection operators read in
  non local Contribution for L=           2  read in
    real space projection operators read in
  non local Contribution for L=           0  read in
    real space projection operators read in
  non local Contribution for L=           0  read in
    real space projection operators read in
    PAW grid and wavefunctions read in
 
   number of l-projection  operators is LMAX  =           6
   number of lm-projection operators is LMMAX =          18
 

 ----------------------------------------------------------------------------- 
|                                                                             |
|  ADVICE TO THIS USER RUNNING 'VASP/VAMP'   (HEAR YOUR MASTER'S VOICE ...):  |
|                                                                             |
|      You have a (more or less) 'small supercell' and for smaller cells      |
|      it is recommended  to use the reciprocal-space projection scheme!      |
|      The real space optimization is not  efficient for small cells and it   |
|      is also less accurate ...                                              |
|      Therefore set LREAL=.FALSE. in the  INCAR file                         |
|                                                                             |
 ----------------------------------------------------------------------------- 

 Optimization of the real space projectors (new method)

 maximal supplied QI-value         = 17.01
 optimisation between [QCUT,QGAM] = [ 15.48, 30.95] = [ 67.08,268.30] Ry 
 Optimized for a Real-space Cutoff    1.26 Angstroem

   l    n(q)    QCUT    max X(q) W(low)/X(q) W(high)/X(q)  e(spline) 
   1     11    15.477     4.267    0.90E-04    0.14E-03    0.59E-06
   1     11    15.477     5.750    0.14E-03    0.21E-03    0.81E-06
   2     11    15.477    53.656    0.97E-04    0.12E-03    0.26E-06
   2     11    15.477    49.521    0.10E-03    0.12E-03    0.27E-06
   0     12    15.477    31.246    0.35E-04    0.34E-04    0.27E-06
   0     12    15.477    12.201    0.29E-04    0.28E-04    0.22E-06
  PAW_PBE Fe_pv 02Aug2007               :
 energy of atom  1       EATOM=-2457.4239
 kinetic energy error for atom=    0.0010 (will be added to EATOM!!)
 
 
 POSCAR: Fe2                                     
  positions in direct lattice
  No initial velocities read in
 exchange correlation table for  LEXCH =        8
   RHO(1)=    0.500       N(1)  =     2000
   RHO(2)=  100.500       N(2)  =     4000
 


--------------------------------------------------------------------------------------------------------


 ion  position               nearest neighbor table
   1  0.000  0.000  0.000-   2 2.46   2 2.46   2 2.46   2 2.46   2 2.46   2 2.46   2 2.46   2 2.46

   2  0.500  0.500  0.500-   1 2.46   1 2.46   1 2.46   1 2.46   1 2.46   1 2.46   1 2.46   1 2.46

 
  LATTYP: Found a simple cubic cell.
 ALAT       =     2.8400520000
  
  Lattice vectors:
  
 A1 = (   2.8400520000,   0.0000000000,   0.0000000000)
 A2 = (   0.0000000000,   2.8400520000,   0.0000000000)
 A3 = (   0.0000000000,   0.0000000000,   2.8400520000)


Analysis of symmetry for initial positions (statically):
=====================================================================
 Subroutine PRICEL returns following result:
 
  LATTYP: Found a body centered cubic cell.
 ALAT       =     2.8400520000
  
  Lattice vectors:
  
 A1 = (   1.4200260000,   1.4200260000,   1.4200260000)
 A2 = (   1.4200260000,  -1.4200260000,  -1.4200260000)
 A3 = (  -1.4200260000,   1.4200260000,  -1.4200260000)
 
   2 primitive cells build up your supercell.
 

 Routine SETGRP: Setting up the symmetry group for a 
 simple cubic supercell.


 Subroutine GETGRP returns: Found 48 space group operations
 (whereof 48 operations were pure point group operations)
 out of a pool of 48 trial point group operations.


The static configuration has the point symmetry O_h .


Analysis of symmetry for dynamics (positions and initial velocities):
=====================================================================
 Subroutine PRICEL returns following result:
 
  LATTYP: Found a body centered cubic cell.
 ALAT       =     2.8400520000
  
  Lattice vectors:
  
 A1 = (   1.4200260000,   1.4200260000,   1.4200260000)
 A2 = (   1.4200260000,  -1.4200260000,  -1.4200260000)
 A3 = (  -1.4200260000,   1.4200260000,  -1.4200260000)
 
   2 primitive cells build up your supercell.
 

 Routine SETGRP: Setting up the symmetry group for a 
 simple cubic supercell.


 Subroutine GETGRP returns: Found 48 space group operations
 (whereof 48 operations were pure point group operations)
 out of a pool of 48 trial point group operations.


The dynamic configuration has the point symmetry O_h .


Analysis of structural, dynamic, and magnetic symmetry:
=====================================================================
 Subroutine PRICEL returns following result:
 
  LATTYP: Found a body centered cubic cell.
 ALAT       =     2.8400520000
  
  Lattice vectors:
  
 A1 = (   1.4200260000,   1.4200260000,   1.4200260000)
 A2 = (   1.4200260000,  -1.4200260000,  -1.4200260000)
 A3 = (  -1.4200260000,   1.4200260000,  -1.4200260000)
 
   2 primitive cells build up your supercell.
 

 Routine SETGRP: Setting up the symmetry group for a 
 simple cubic supercell.


 Subroutine GETGRP returns: Found 48 space group operations
 (whereof 48 operations were pure point group operations)
 out of a pool of 48 trial point group operations.


The magnetic configuration has the point symmetry O_h .


 Subroutine INISYM returns: Found 48 space group operations
 (whereof 48 operations are pure point group operations),
 and found     2 'primitive' translations

 
 
 KPOINTS: Automatic mesh                          

Automatic generation of k-mesh.
 generate k-points for:   18   18   18
Space group operators:
 irot       det(A)        alpha          n_x          n_y          n_z        tau_x        tau_y        tau_z
    1     1.000000     0.000000     1.000000     0.000000     0.000000     0.000000     0.000000     0.000000
    2    -1.000000     0.000000     1.000000     0.000000     0.000000     0.000000     0.000000     0.000000
    3     1.000000   120.000000    -0.577350    -0.577350    -0.577350     0.000000     0.000000     0.000000
    4    -1.000000   120.000000    -0.577350    -0.577350    -0.577350     0.000000     0.000000     0.000000
    5     1.000000   120.000000     0.577350     0.577350     0.577350     0.000000     0.000000     0.000000
    6    -1.000000   120.000000     0.577350     0.577350     0.577350     0.000000     0.000000     0.000000
    7     1.000000    90.000000     0.000000     0.000000    -1.000000     0.000000     0.000000     0.000000
    8    -1.000000    90.000000     0.000000     0.000000    -1.000000     0.000000     0.000000     0.000000
    9     1.000000   180.000000     0.000000     0.707107     0.707107     0.000000     0.000000     0.000000
   10    -1.000000   180.000000     0.000000     0.707107     0.707107     0.000000     0.000000     0.000000
   11     1.000000    90.000000     0.000000     1.000000     0.000000     0.000000     0.000000     0.000000
   12    -1.000000    90.000000     0.000000     1.000000     0.000000     0.000000     0.000000     0.000000
   13     1.000000   180.000000     0.000000     0.000000     1.000000     0.000000     0.000000     0.000000
   14    -1.000000   180.000000     0.000000     0.000000     1.000000     0.000000     0.000000     0.000000
   15     1.000000   120.000000    -0.577350     0.577350     0.577350     0.000000     0.000000     0.000000
   16    -1.000000   120.000000    -0.577350     0.577350     0.577350     0.000000     0.000000     0.000000
   17     1.000000   120.000000    -0.577350     0.577350    -0.577350     0.000000     0.000000     0.000000
   18    -1.000000   120.000000    -0.577350     0.577350    -0.577350     0.000000     0.000000     0.000000
   19     1.000000    90.000000     0.000000     0.000000     1.000000     0.000000     0.000000     0.000000
   20    -1.000000    90.000000     0.000000     0.000000     1.000000     0.000000     0.000000     0.000000
   21     1.000000    90.000000    -1.000000     0.000000     0.000000     0.000000     0.000000     0.000000
   22    -1.000000    90.000000    -1.000000     0.000000     0.000000     0.000000     0.000000     0.000000
   23     1.000000   180.000000     0.707107     0.000000     0.707107     0.000000     0.000000     0.000000
   24    -1.000000   180.000000     0.707107     0.000000     0.707107     0.000000     0.000000     0.000000
   25     1.000000   120.000000     0.577350    -0.577350     0.577350     0.000000     0.000000     0.000000
   26    -1.000000   120.000000     0.577350    -0.577350     0.577350     0.000000     0.000000     0.000000
   27     1.000000   120.000000    -0.577350    -0.577350     0.577350     0.000000     0.000000     0.000000
   28    -1.000000   120.000000    -0.577350    -0.577350     0.577350     0.000000     0.000000     0.000000
   29     1.000000   180.000000     1.000000     0.000000     0.000000     0.000000     0.000000     0.000000
   30    -1.000000   180.000000     1.000000     0.000000     0.000000     0.000000     0.000000     0.000000
   31     1.000000    90.000000     0.000000    -1.000000     0.000000     0.000000     0.000000     0.000000
   32    -1.000000    90.000000     0.000000    -1.000000     0.000000     0.000000     0.000000     0.000000
   33     1.000000   180.000000     0.707107     0.707107     0.000000     0.000000     0.000000     0.000000
   34    -1.000000   180.000000     0.707107     0.707107     0.000000     0.000000     0.000000     0.000000
   35     1.000000    90.000000     1.000000     0.000000     0.000000     0.000000     0.000000     0.000000
   36    -1.000000    90.000000     1.000000     0.000000     0.000000     0.000000     0.000000     0.000000
   37     1.000000   120.000000     0.577350    -0.577350    -0.577350     0.000000     0.000000     0.000000
   38    -1.000000   120.000000     0.577350    -0.577350    -0.577350     0.000000     0.000000     0.000000
   39     1.000000   180.000000     0.000000     1.000000     0.000000     0.000000     0.000000     0.000000
   40    -1.000000   180.000000     0.000000     1.000000     0.000000     0.000000     0.000000     0.000000
   41     1.000000   120.000000     0.577350     0.577350    -0.577350     0.000000     0.000000     0.000000
   42    -1.000000   120.000000     0.577350     0.577350    -0.577350     0.000000     0.000000     0.000000
   43     1.000000   180.000000     0.000000    -0.707107     0.707107     0.000000     0.000000     0.000000
   44    -1.000000   180.000000     0.000000    -0.707107     0.707107     0.000000     0.000000     0.000000
   45     1.000000   180.000000     0.707107    -0.707107     0.000000     0.000000     0.000000     0.000000
   46    -1.000000   180.000000     0.707107    -0.707107     0.000000     0.000000     0.000000     0.000000
   47     1.000000   180.000000     0.707107     0.000000    -0.707107     0.000000     0.000000     0.000000
   48    -1.000000   180.000000     0.707107     0.000000    -0.707107     0.000000     0.000000     0.000000
 
 Subroutine IBZKPT returns following result:
 ===========================================
 
 Found    220 irreducible k-points:
 
 Following reciprocal coordinates:
            Coordinates               Weight
  0.000000  0.000000  0.000000      1.000000
  0.055556  0.000000  0.000000      6.000000
  0.111111  0.000000  0.000000      6.000000
  0.166667  0.000000  0.000000      6.000000
  0.222222  0.000000  0.000000      6.000000
  0.277778  0.000000  0.000000      6.000000
  0.333333  0.000000  0.000000      6.000000
  0.388889  0.000000  0.000000      6.000000
  0.444444  0.000000  0.000000      6.000000
  0.500000  0.000000  0.000000      3.000000
  0.055556  0.055556  0.000000     12.000000
  0.111111  0.055556  0.000000     24.000000
  0.166667  0.055556  0.000000     24.000000
  0.222222  0.055556  0.000000     24.000000
  0.277778  0.055556  0.000000     24.000000
  0.333333  0.055556  0.000000     24.000000
  0.388889  0.055556  0.000000     24.000000
  0.444444  0.055556  0.000000     24.000000
  0.500000  0.055556  0.000000     12.000000
  0.111111  0.111111  0.000000     12.000000
  0.166667  0.111111  0.000000     24.000000
  0.222222  0.111111  0.000000     24.000000
  0.277778  0.111111  0.000000     24.000000
  0.333333  0.111111  0.000000     24.000000
  0.388889  0.111111  0.000000     24.000000
  0.444444  0.111111  0.000000     24.000000
  0.500000  0.111111  0.000000     12.000000
  0.166667  0.166667  0.000000     12.000000
  0.222222  0.166667  0.000000     24.000000
  0.277778  0.166667  0.000000     24.000000
  0.333333  0.166667  0.000000     24.000000
  0.388889  0.166667  0.000000     24.000000
  0.444444  0.166667  0.000000     24.000000
  0.500000  0.166667  0.000000     12.000000
  0.222222  0.222222  0.000000     12.000000
  0.277778  0.222222  0.000000     24.000000
  0.333333  0.222222  0.000000     24.000000
  0.388889  0.222222  0.000000     24.000000
  0.444444  0.222222  0.000000     24.000000
  0.500000  0.222222  0.000000     12.000000
  0.277778  0.277778  0.000000     12.000000
  0.333333  0.277778  0.000000     24.000000
  0.388889  0.277778  0.000000     24.000000
  0.444444  0.277778  0.000000     24.000000
  0.500000  0.277778  0.000000     12.000000
  0.333333  0.333333  0.000000     12.000000
  0.388889  0.333333  0.000000     24.000000
  0.444444  0.333333  0.000000     24.000000
  0.500000  0.333333  0.000000     12.000000
  0.388889  0.388889  0.000000     12.000000
  0.444444  0.388889  0.000000     24.000000
  0.500000  0.388889  0.000000     12.000000
  0.444444  0.444444  0.000000     12.000000
  0.500000  0.444444  0.000000     12.000000
  0.500000  0.500000  0.000000      3.000000
  0.055556  0.055556  0.055556      8.000000
  0.111111  0.055556  0.055556     24.000000
  0.166667  0.055556  0.055556     24.000000
  0.222222  0.055556  0.055556     24.000000
  0.277778  0.055556  0.055556     24.000000
  0.333333  0.055556  0.055556     24.000000
  0.388889  0.055556  0.055556     24.000000
  0.444444  0.055556  0.055556     24.000000
  0.500000  0.055556  0.055556     12.000000
  0.111111  0.111111  0.055556     24.000000
  0.166667  0.111111  0.055556     48.000000
  0.222222  0.111111  0.055556     48.000000
  0.277778  0.111111  0.055556     48.000000
  0.333333  0.111111  0.055556     48.000000
  0.388889  0.111111  0.055556     48.000000
  0.444444  0.111111  0.055556     48.000000
  0.500000  0.111111  0.055556     24.000000
  0.166667  0.166667  0.055556     24.000000
  0.222222  0.166667  0.055556     48.000000
  0.277778  0.166667  0.055556     48.000000
  0.333333  0.166667  0.055556     48.000000
  0.388889  0.166667  0.055556     48.000000
  0.444444  0.166667  0.055556     48.000000
  0.500000  0.166667  0.055556     24.000000
  0.222222  0.222222  0.055556     24.000000
  0.277778  0.222222  0.055556     48.000000
  0.333333  0.222222  0.055556     48.000000
  0.388889  0.222222  0.055556     48.000000
  0.444444  0.222222  0.055556     48.000000
  0.500000  0.222222  0.055556     24.000000
  0.277778  0.277778  0.055556     24.000000
  0.333333  0.277778  0.055556     48.000000
  0.388889  0.277778  0.055556     48.000000
  0.444444  0.277778  0.055556     48.000000
  0.500000  0.277778  0.055556     24.000000
  0.333333  0.333333  0.055556     24.000000
  0.388889  0.333333  0.055556     48.000000
  0.444444  0.333333  0.055556     48.000000
  0.500000  0.333333  0.055556     24.000000
  0.388889  0.388889  0.055556     24.000000
  0.444444  0.388889  0.055556     48.000000
  0.500000  0.388889  0.055556     24.000000
  0.444444  0.444444  0.055556     24.000000
  0.500000  0.444444  0.055556     24.000000
  0.500000  0.500000  0.055556      6.000000
  0.111111  0.111111  0.111111      8.000000
  0.166667  0.111111  0.111111     24.000000
  0.222222  0.111111  0.111111     24.000000
  0.277778  0.111111  0.111111     24.000000
  0.333333  0.111111  0.111111     24.000000
  0.388889  0.111111  0.111111     24.000000
  0.444444  0.111111  0.111111     24.000000
  0.500000  0.111111  0.111111     12.000000
  0.166667  0.166667  0.111111     24.000000
  0.222222  0.166667  0.111111     48.000000
  0.277778  0.166667  0.111111     48.000000
  0.333333  0.166667  0.111111     48.000000
  0.388889  0.166667  0.111111     48.000000
  0.444444  0.166667  0.111111     48.000000
  0.500000  0.166667  0.111111     24.000000
  0.222222  0.222222  0.111111     24.000000
  0.277778  0.222222  0.111111     48.000000
  0.333333  0.222222  0.111111     48.000000
  0.388889  0.222222  0.111111     48.000000
  0.444444  0.222222  0.111111     48.000000
  0.500000  0.222222  0.111111     24.000000
  0.277778  0.277778  0.111111     24.000000
  0.333333  0.277778  0.111111     48.000000
  0.388889  0.277778  0.111111     48.000000
  0.444444  0.277778  0.111111     48.000000
  0.500000  0.277778  0.111111     24.000000
  0.333333  0.333333  0.111111     24.000000
  0.388889  0.333333  0.111111     48.000000
  0.444444  0.333333  0.111111     48.000000
  0.500000  0.333333  0.111111     24.000000
  0.388889  0.388889  0.111111     24.000000
  0.444444  0.388889  0.111111     48.000000
  0.500000  0.388889  0.111111     24.000000
  0.444444  0.444444  0.111111     24.000000
  0.500000  0.444444  0.111111     24.000000
  0.500000  0.500000  0.111111      6.000000
  0.166667  0.166667  0.166667      8.000000
  0.222222  0.166667  0.166667     24.000000
  0.277778  0.166667  0.166667     24.000000
  0.333333  0.166667  0.166667     24.000000
  0.388889  0.166667  0.166667     24.000000
  0.444444  0.166667  0.166667     24.000000
  0.500000  0.166667  0.166667     12.000000
  0.222222  0.222222  0.166667     24.000000
  0.277778  0.222222  0.166667     48.000000
  0.333333  0.222222  0.166667     48.000000
  0.388889  0.222222  0.166667     48.000000
  0.444444  0.222222  0.166667     48.000000
  0.500000  0.222222  0.166667     24.000000
  0.277778  0.277778  0.166667     24.000000
  0.333333  0.277778  0.166667     48.000000
  0.388889  0.277778  0.166667     48.000000
  0.444444  0.277778  0.166667     48.000000
  0.500000  0.277778  0.166667     24.000000
  0.333333  0.333333  0.166667     24.000000
  0.388889  0.333333  0.166667     48.000000
  0.444444  0.333333  0.166667     48.000000
  0.500000  0.333333  0.166667     24.000000
  0.388889  0.388889  0.166667     24.000000
  0.444444  0.388889  0.166667     48.000000
  0.500000  0.388889  0.166667     24.000000
  0.444444  0.444444  0.166667     24.000000
  0.500000  0.444444  0.166667     24.000000
  0.500000  0.500000  0.166667      6.000000
  0.222222  0.222222  0.222222      8.000000
  0.277778  0.222222  0.222222     24.000000
  0.333333  0.222222  0.222222     24.000000
  0.388889  0.222222  0.222222     24.000000
  0.444444  0.222222  0.222222     24.000000
  0.500000  0.222222  0.222222     12.000000
  0.277778  0.277778  0.222222     24.000000
  0.333333  0.277778  0.222222     48.000000
  0.388889  0.277778  0.222222     48.000000
  0.444444  0.277778  0.222222     48.000000
  0.500000  0.277778  0.222222     24.000000
  0.333333  0.333333  0.222222     24.000000
  0.388889  0.333333  0.222222     48.000000
  0.444444  0.333333  0.222222     48.000000
  0.500000  0.333333  0.222222     24.000000
  0.388889  0.388889  0.222222     24.000000
  0.444444  0.388889  0.222222     48.000000
  0.500000  0.388889  0.222222     24.000000
  0.444444  0.444444  0.222222     24.000000
  0.500000  0.444444  0.222222     24.000000
  0.500000  0.500000  0.222222      6.000000
  0.277778  0.277778  0.277778      8.000000
  0.333333  0.277778  0.277778     24.000000
  0.388889  0.277778  0.277778     24.000000
  0.444444  0.277778  0.277778     24.000000
  0.500000  0.277778  0.277778     12.000000
  0.333333  0.333333  0.277778     24.000000
  0.388889  0.333333  0.277778     48.000000
  0.444444  0.333333  0.277778     48.000000
  0.500000  0.333333  0.277778     24.000000
  0.388889  0.388889  0.277778     24.000000
  0.444444  0.388889  0.277778     48.000000
  0.500000  0.388889  0.277778     24.000000
  0.444444  0.444444  0.277778     24.000000
  0.500000  0.444444  0.277778     24.000000
  0.500000  0.500000  0.277778      6.000000
  0.333333  0.333333  0.333333      8.000000
  0.388889  0.333333  0.333333     24.000000
  0.444444  0.333333  0.333333     24.000000
  0.500000  0.333333  0.333333     12.000000
  0.388889  0.388889  0.333333     24.000000
  0.444444  0.388889  0.333333     48.000000
  0.500000  0.388889  0.333333     24.000000
  0.444444  0.444444  0.333333     24.000000
  0.500000  0.444444  0.333333     24.000000
  0.500000  0.500000  0.333333      6.000000
  0.388889  0.388889  0.388889      8.000000
  0.444444  0.388889  0.388889     24.000000
  0.500000  0.388889  0.388889     12.000000
  0.444444  0.444444  0.388889     24.000000
  0.500000  0.444444  0.388889     24.000000
  0.500000  0.500000  0.388889      6.000000
  0.444444  0.444444  0.444444      8.000000
  0.500000  0.444444  0.444444     12.000000
  0.500000  0.500000  0.444444      6.000000
  0.500000  0.500000  0.500000      1.000000
 
 Following cartesian coordinates:
            Coordinates               Weight
  0.000000  0.000000  0.000000      1.000000
  0.019561  0.000000  0.000000      6.000000
  0.039123  0.000000  0.000000      6.000000
  0.058684  0.000000  0.000000      6.000000
  0.078246  0.000000  0.000000      6.000000
  0.097807  0.000000  0.000000      6.000000
  0.117369  0.000000  0.000000      6.000000
  0.136930  0.000000  0.000000      6.000000
  0.156492  0.000000  0.000000      6.000000
  0.176053  0.000000  0.000000      3.000000
  0.019561  0.019561  0.000000     12.000000
  0.039123  0.019561  0.000000     24.000000
  0.058684  0.019561  0.000000     24.000000
  0.078246  0.019561  0.000000     24.000000
  0.097807  0.019561  0.000000     24.000000
  0.117369  0.019561  0.000000     24.000000
  0.136930  0.019561  0.000000     24.000000
  0.156492  0.019561  0.000000     24.000000
  0.176053  0.019561  0.000000     12.000000
  0.039123  0.039123  0.000000     12.000000
  0.058684  0.039123  0.000000     24.000000
  0.078246  0.039123  0.000000     24.000000
  0.097807  0.039123  0.000000     24.000000
  0.117369  0.039123  0.000000     24.000000
  0.136930  0.039123  0.000000     24.000000
  0.156492  0.039123  0.000000     24.000000
  0.176053  0.039123  0.000000     12.000000
  0.058684  0.058684  0.000000     12.000000
  0.078246  0.058684  0.000000     24.000000
  0.097807  0.058684  0.000000     24.000000
  0.117369  0.058684  0.000000     24.000000
  0.136930  0.058684  0.000000     24.000000
  0.156492  0.058684  0.000000     24.000000
  0.176053  0.058684  0.000000     12.000000
  0.078246  0.078246  0.000000     12.000000
  0.097807  0.078246  0.000000     24.000000
  0.117369  0.078246  0.000000     24.000000
  0.136930  0.078246  0.000000     24.000000
  0.156492  0.078246  0.000000     24.000000
  0.176053  0.078246  0.000000     12.000000
  0.097807  0.097807  0.000000     12.000000
  0.117369  0.097807  0.000000     24.000000
  0.136930  0.097807  0.000000     24.000000
  0.156492  0.097807  0.000000     24.000000
  0.176053  0.097807  0.000000     12.000000
  0.117369  0.117369  0.000000     12.000000
  0.136930  0.117369  0.000000     24.000000
  0.156492  0.117369  0.000000     24.000000
  0.176053  0.117369  0.000000     12.000000
  0.136930  0.136930  0.000000     12.000000
  0.156492  0.136930  0.000000     24.000000
  0.176053  0.136930  0.000000     12.000000
  0.156492  0.156492  0.000000     12.000000
  0.176053  0.156492  0.000000     12.000000
  0.176053  0.176053  0.000000      3.000000
  0.019561  0.019561  0.019561      8.000000
  0.039123  0.019561  0.019561     24.000000
  0.058684  0.019561  0.019561     24.000000
  0.078246  0.019561  0.019561     24.000000
  0.097807  0.019561  0.019561     24.000000
  0.117369  0.019561  0.019561     24.000000
  0.136930  0.019561  0.019561     24.000000
  0.156492  0.019561  0.019561     24.000000
  0.176053  0.019561  0.019561     12.000000
  0.039123  0.039123  0.019561     24.000000
  0.058684  0.039123  0.019561     48.000000
  0.078246  0.039123  0.019561     48.000000
  0.097807  0.039123  0.019561     48.000000
  0.117369  0.039123  0.019561     48.000000
  0.136930  0.039123  0.019561     48.000000
  0.156492  0.039123  0.019561     48.000000
  0.176053  0.039123  0.019561     24.000000
  0.058684  0.058684  0.019561     24.000000
  0.078246  0.058684  0.019561     48.000000
  0.097807  0.058684  0.019561     48.000000
  0.117369  0.058684  0.019561     48.000000
  0.136930  0.058684  0.019561     48.000000
  0.156492  0.058684  0.019561     48.000000
  0.176053  0.058684  0.019561     24.000000
  0.078246  0.078246  0.019561     24.000000
  0.097807  0.078246  0.019561     48.000000
  0.117369  0.078246  0.019561     48.000000
  0.136930  0.078246  0.019561     48.000000
  0.156492  0.078246  0.019561     48.000000
  0.176053  0.078246  0.019561     24.000000
  0.097807  0.097807  0.019561     24.000000
  0.117369  0.097807  0.019561     48.000000
  0.136930  0.097807  0.019561     48.000000
  0.156492  0.097807  0.019561     48.000000
  0.176053  0.097807  0.019561     24.000000
  0.117369  0.117369  0.019561     24.000000
  0.136930  0.117369  0.019561     48.000000
  0.156492  0.117369  0.019561     48.000000
  0.176053  0.117369  0.019561     24.000000
  0.136930  0.136930  0.019561     24.000000
  0.156492  0.136930  0.019561     48.000000
  0.176053  0.136930  0.019561     24.000000
  0.156492  0.156492  0.019561     24.000000
  0.176053  0.156492  0.019561     24.000000
  0.176053  0.176053  0.019561      6.000000
  0.039123  0.039123  0.039123      8.000000
  0.058684  0.039123  0.039123     24.000000
  0.078246  0.039123  0.039123     24.000000
  0.097807  0.039123  0.039123     24.000000
  0.117369  0.039123  0.039123     24.000000
  0.136930  0.039123  0.039123     24.000000
  0.156492  0.039123  0.039123     24.000000
  0.176053  0.039123  0.039123     12.000000
  0.058684  0.058684  0.039123     24.000000
  0.078246  0.058684  0.039123     48.000000
  0.097807  0.058684  0.039123     48.000000
  0.117369  0.058684  0.039123     48.000000
  0.136930  0.058684  0.039123     48.000000
  0.156492  0.058684  0.039123     48.000000
  0.176053  0.058684  0.039123     24.000000
  0.078246  0.078246  0.039123     24.000000
  0.097807  0.078246  0.039123     48.000000
  0.117369  0.078246  0.039123     48.000000
  0.136930  0.078246  0.039123     48.000000
  0.156492  0.078246  0.039123     48.000000
  0.176053  0.078246  0.039123     24.000000
  0.097807  0.097807  0.039123     24.000000
  0.117369  0.097807  0.039123     48.000000
  0.136930  0.097807  0.039123     48.000000
  0.156492  0.097807  0.039123     48.000000
  0.176053  0.097807  0.039123     24.000000
  0.117369  0.117369  0.039123     24.000000
  0.136930  0.117369  0.039123     48.000000
  0.156492  0.117369  0.039123     48.000000
  0.176053  0.117369  0.039123     24.000000
  0.136930  0.136930  0.039123     24.000000
  0.156492  0.136930  0.039123     48.000000
  0.176053  0.136930  0.039123     24.000000
  0.156492  0.156492  0.039123     24.000000
  0.176053  0.156492  0.039123     24.000000
  0.176053  0.176053  0.039123      6.000000
  0.058684  0.058684  0.058684      8.000000
  0.078246  0.058684  0.058684     24.000000
  0.097807  0.058684  0.058684     24.000000
  0.117369  0.058684  0.058684     24.000000
  0.136930  0.058684  0.058684     24.000000
  0.156492  0.058684  0.058684     24.000000
  0.176053  0.058684  0.058684     12.000000
  0.078246  0.078246  0.058684     24.000000
  0.097807  0.078246  0.058684     48.000000
  0.117369  0.078246  0.058684     48.000000
  0.136930  0.078246  0.058684     48.000000
  0.156492  0.078246  0.058684     48.000000
  0.176053  0.078246  0.058684     24.000000
  0.097807  0.097807  0.058684     24.000000
  0.117369  0.097807  0.058684     48.000000
  0.136930  0.097807  0.058684     48.000000
  0.156492  0.097807  0.058684     48.000000
  0.176053  0.097807  0.058684     24.000000
  0.117369  0.117369  0.058684     24.000000
  0.136930  0.117369  0.058684     48.000000
  0.156492  0.117369  0.058684     48.000000
  0.176053  0.117369  0.058684     24.000000
  0.136930  0.136930  0.058684     24.000000
  0.156492  0.136930  0.058684     48.000000
  0.176053  0.136930  0.058684     24.000000
  0.156492  0.156492  0.058684     24.000000
  0.176053  0.156492  0.058684     24.000000
  0.176053  0.176053  0.058684      6.000000
  0.078246  0.078246  0.078246      8.000000
  0.097807  0.078246  0.078246     24.000000
  0.117369  0.078246  0.078246     24.000000
  0.136930  0.078246  0.078246     24.000000
  0.156492  0.078246  0.078246     24.000000
  0.176053  0.078246  0.078246     12.000000
  0.097807  0.097807  0.078246     24.000000
  0.117369  0.097807  0.078246     48.000000
  0.136930  0.097807  0.078246     48.000000
  0.156492  0.097807  0.078246     48.000000
  0.176053  0.097807  0.078246     24.000000
  0.117369  0.117369  0.078246     24.000000
  0.136930  0.117369  0.078246     48.000000
  0.156492  0.117369  0.078246     48.000000
  0.176053  0.117369  0.078246     24.000000
  0.136930  0.136930  0.078246     24.000000
  0.156492  0.136930  0.078246     48.000000
  0.176053  0.136930  0.078246     24.000000
  0.156492  0.156492  0.078246     24.000000
  0.176053  0.156492  0.078246     24.000000
  0.176053  0.176053  0.078246      6.000000
  0.097807  0.097807  0.097807      8.000000
  0.117369  0.097807  0.097807     24.000000
  0.136930  0.097807  0.097807     24.000000
  0.156492  0.097807  0.097807     24.000000
  0.176053  0.097807  0.097807     12.000000
  0.117369  0.117369  0.097807     24.000000
  0.136930  0.117369  0.097807     48.000000
  0.156492  0.117369  0.097807     48.000000
  0.176053  0.117369  0.097807     24.000000
  0.136930  0.136930  0.097807     24.000000
  0.156492  0.136930  0.097807     48.000000
  0.176053  0.136930  0.097807     24.000000
  0.156492  0.156492  0.097807     24.000000
  0.176053  0.156492  0.097807     24.000000
  0.176053  0.176053  0.097807      6.000000
  0.117369  0.117369  0.117369      8.000000
  0.136930  0.117369  0.117369     24.000000
  0.156492  0.117369  0.117369     24.000000
  0.176053  0.117369  0.117369     12.000000
  0.136930  0.136930  0.117369     24.000000
  0.156492  0.136930  0.117369     48.000000
  0.176053  0.136930  0.117369     24.000000
  0.156492  0.156492  0.117369     24.000000
  0.176053  0.156492  0.117369     24.000000
  0.176053  0.176053  0.117369      6.000000
  0.136930  0.136930  0.136930      8.000000
  0.156492  0.136930  0.136930     24.000000
  0.176053  0.136930  0.136930     12.000000
  0.156492  0.156492  0.136930     24.000000
  0.176053  0.156492  0.136930     24.000000
  0.176053  0.176053  0.136930      6.000000
  0.156492  0.156492  0.156492      8.000000
  0.176053  0.156492  0.156492     12.000000
  0.176053  0.176053  0.156492      6.000000
  0.176053  0.176053  0.176053      1.000000
 
 TETIRR: Found   2900 inequivalent tetrahedra from    34992


--------------------------------------------------------------------------------------------------------




 Dimension of arrays:
   k-points           NKPTS =    220   k-points in BZ     NKDIM =    220   number of bands    NBANDS=     24
   number of dos      NEDOS =    301   number of ions     NIONS =      2
   non local maximal  LDIM  =      6   non local SUM 2l+1 LMDIM =     18
   total plane-waves  NPLWV =  21952
   max r-space proj   IRMAX =   8080   max aug-charges    IRDMAX=  28578
   dimension x,y,z NGX =    28 NGY =   28 NGZ =   28
   dimension x,y,z NGXF=    56 NGYF=   56 NGZF=   56
   support grid    NGXF=    56 NGYF=   56 NGZF=   56
   ions per type =               2
   NGX,Y,Z   is equivalent  to a cutoff of  16.39, 16.39, 16.39 a.u.
   NGXF,Y,Z  is equivalent  to a cutoff of  32.78, 32.78, 32.78 a.u.

 SYSTEM =  unknown system                          
 POSCAR =  Fe2                                     

 Startparameter for this run:
   NWRITE =      2    write-flag & timer
   PREC   = accura    normal or accurate (medium, high low for compatibility)
   ISTART =      0    job   : 0-new  1-cont  2-samecut
   ICHARG =      2    charge: 1-file 2-atom 10-const
   ISPIN  =      2    spin polarized calculation?
   LNONCOLLINEAR =      F non collinear calculations
   LSORBIT =      F    spin-orbit coupling
   INIWAV =      1    electr: 0-lowe 1-rand  2-diag
   LASPH  =      F    aspherical Exc in radial PAW
   METAGGA=      F    non-selfconsistent MetaGGA calc.

 Electronic Relaxation 1
   ENCUT  =  920.0 eV  67.62 Ry    8.22 a.u.   7.02  7.02  7.02*2*pi/ulx,y,z
   ENINI  =  920.0     initial cutoff
   ENAUG  =  578.3 eV  augmentation charge cutoff
   NELM   =    100;   NELMIN=  2; NELMDL= -5     # of ELM steps 
   EDIFF  = 0.1E-06   stopping-criterion for ELM
   LREAL  =      T    real-space projection
   NLSPLINE    = F    spline interpolate recip. space projectors
   LCOMPAT=      F    compatible to vasp.4.4
   GGA_COMPAT  = T    GGA compatible to vasp.4.4-vasp.4.6
   LMAXPAW     = -100 max onsite density
   LMAXMIX     =    2 max onsite mixed and CHGCAR
   VOSKOWN=      0    Vosko Wilk Nusair interpolation
   ROPT   =   -0.00025
 Ionic relaxation
   EDIFFG = 0.1E-05   stopping-criterion for IOM
   NSW    =      0    number of steps for IOM
   NBLOCK =      1;   KBLOCK =      1    inner block; outer block 
   IBRION =     -1    ionic relax: 0-MD 1-quasi-New 2-CG
   NFREE  =      0    steps in history (QN), initial steepest desc. (CG)
   ISIF   =      3    stress and relaxation
   IWAVPR =     10    prediction:  0-non 1-charg 2-wave 3-comb
   ISYM   =      2    0-nonsym 1-usesym 2-fastsym
   LCORR  =      T    Harris-Foulkes like correction to forces

   POTIM  = 0.5000    time-step for ionic-motion
   TEIN   =    0.0    initial temperature
   TEBEG  =    0.0;   TEEND  =   0.0 temperature during run
   SMASS  =  -3.00    Nose mass-parameter (am)
   estimated Nose-frequenzy (Omega)   =  0.10E-29 period in steps =****** mass=  -0.184E-27a.u.
   SCALEE = 1.0000    scale energy and forces
   NPACO  =    256;   APACO  = 16.0  distance and # of slots for P.C.
   PSTRESS=    0.0 pullay stress

  Mass of Ions in am
   POMASS =  55.85
  Ionic Valenz
   ZVAL   =  14.00
  Atomic Wigner-Seitz radii
   RWIGS  =  -1.00
  virtual crystal weights 
   VCA    =   1.00
   NELECT =      28.0000    total number of electrons
   NUPDOWN=      -1.0000    fix difference up-down

 DOS related values:
   EMIN   =  10.00;   EMAX   =-10.00  energy-range for DOS
   EFERMI =   0.00
   ISMEAR =    -5;   SIGMA  =   0.05  broadening in eV -4-tet -1-fermi 0-gaus

 Electronic relaxation 2 (details)
   IALGO  =     38    algorithm
   LDIAG  =      T    sub-space diagonalisation (order eigenvalues)
   LSUBROT=      F    optimize rotation matrix (better conditioning)
   TURBO    =      0    0=normal 1=particle mesh
   IRESTART =      0    0=no restart 2=restart with 2 vectors
   NREBOOT  =      0    no. of reboots
   NMIN     =      0    reboot dimension
   EREF     =   0.00    reference energy to select bands
   IMIX   =      4    mixing-type and parameters
     AMIX     =   0.40;   BMIX     =  1.00
     AMIX_MAG =   1.60;   BMIX_MAG =  1.00
     AMIN     =   0.10
     WC   =   100.;   INIMIX=   1;  MIXPRE=   1;  MAXMIX= -45

 Intra band minimization:
   WEIMIN = 0.0000     energy-eigenvalue tresh-hold
   EBREAK =  0.10E-08  absolut break condition
   DEPER  =   0.30     relativ break condition  

   TIME   =   0.40     timestep for ELM

  volume/ion in A,a.u.               =      11.45        77.29
  Fermi-wavevector in a.u.,A,eV,Ry     =   1.750389  3.307755 41.686364  3.063861
  Thomas-Fermi vector in A             =   2.821117
 
 Write flags
   LWAVE        =      F    write WAVECAR
   LDOWNSAMPLE  =      F    k-point downsampling of WAVECAR
   LCHARG       =      F    write CHGCAR
   LVTOT        =      F    write LOCPOT, total local potential
   LVHAR        =      F    write LOCPOT, Hartree potential only
   LELF         =      F    write electronic localiz. function (ELF)
   LORBIT       =     11    0 simple, 1 ext, 2 COOP (PROOUT), +10 PAW based schemes


 Dipole corrections
   LMONO  =      F    monopole corrections only (constant potential shift)
   LDIPOL =      F    correct potential (dipole corrections)
   IDIPOL =      0    1-x, 2-y, 3-z, 4-all directions 
   EPSILON=  1.0000000 bulk dielectric constant

 Exchange correlation treatment:
   GGA     =    --    GGA type
   LEXCH   =     8    internal setting for exchange type
   VOSKOWN=      0    Vosko Wilk Nusair interpolation
   LHFCALC =     F    Hartree Fock is set to
   LHFONE  =     F    Hartree Fock one center treatment
   AEXX    =    0.0000 exact exchange contribution

 Linear response parameters
   LEPSILON=     F    determine dielectric tensor
   LRPA    =     F    only Hartree local field effects (RPA)
   LNABLA  =     F    use nabla operator in PAW spheres
   LVEL    =     F    velocity operator in full k-point grid
   LINTERFAST=   F  fast interpolation
   KINTER  =     0    interpolate to denser k-point grid
   CSHIFT  =0.1000    complex shift for real part using Kramers Kronig
   OMEGAMAX=  -1.0    maximum frequency
   DEG_THRESHOLD= 0.2000000E-02 threshold for treating states as degnerate
   RTIME   =   -0.100 relaxation time in fs
  (WPLASMAI=    0.000 imaginary part of plasma frequency in eV, 0.658/RTIME)
   DFIELD  = 0.0000000 0.0000000 0.0000000 field for delta impulse in time
 
 Orbital magnetization related:
   ORBITALMAG=     F  switch on orbital magnetization
   LCHIMAG   =     F  perturbation theory with respect to B field
   DQ        =  0.001000  dq finite difference perturbation B field
   LLRAUG    =     F  two centre corrections for induced B field



--------------------------------------------------------------------------------------------------------


 Static calculation
 charge density and potential will be updated during run
 spin polarized calculation
 Variant of blocked Davidson
 Davidson routine will perform the subspace rotation
 perform sub-space diagonalisation
    after iterative eigenvector-optimisation
 modified Broyden-mixing scheme, WC =      100.0
 initial mixing is a Kerker type mixing with AMIX =  0.4000 and BMIX =      1.0000
 Hartree-type preconditioning will be used
 using additional bands           10
 real space projection scheme for non local part
 use partial core corrections
 calculate Harris-corrections to forces 
   (improved forces if not selfconsistent)
 use gradient corrections 
 use of overlap-Matrix (Vanderbilt PP)
 Fermi weights with tetrahedron method with Bloechl corrections


--------------------------------------------------------------------------------------------------------


  energy-cutoff  :      920.00
  volume of cell :       22.91
      direct lattice vectors                 reciprocal lattice vectors
     2.840052000  0.000000000  0.000000000     0.352106229  0.000000000  0.000000000
     0.000000000  2.840052000  0.000000000     0.000000000  0.352106229  0.000000000
     0.000000000  0.000000000  2.840052000     0.000000000  0.000000000  0.352106229

  length of vectors
     2.840052000  2.840052000  2.840052000     0.352106229  0.352106229  0.352106229


 
 k-points in units of 2pi/SCALE and weight: Automatic mesh                          
   0.00000000  0.00000000  0.00000000       0.000
   0.01956146  0.00000000  0.00000000       0.001
   0.03912291  0.00000000  0.00000000       0.001
   0.05868437  0.00000000  0.00000000       0.001
   0.07824583  0.00000000  0.00000000       0.001
   0.09780729  0.00000000  0.00000000       0.001
   0.11736874  0.00000000  0.00000000       0.001
   0.13693020  0.00000000  0.00000000       0.001
   0.15649166  0.00000000  0.00000000       0.001
   0.17605311  0.00000000  0.00000000       0.001
   0.01956146  0.01956146  0.00000000       0.002
   0.03912291  0.01956146  0.00000000       0.004
   0.05868437  0.01956146  0.00000000       0.004
   0.07824583  0.01956146  0.00000000       0.004
   0.09780729  0.01956146  0.00000000       0.004
   0.11736874  0.01956146  0.00000000       0.004
   0.13693020  0.01956146  0.00000000       0.004
   0.15649166  0.01956146  0.00000000       0.004
   0.17605311  0.01956146  0.00000000       0.002
   0.03912291  0.03912291  0.00000000       0.002
   0.05868437  0.03912291  0.00000000       0.004
   0.07824583  0.03912291  0.00000000       0.004
   0.09780729  0.03912291  0.00000000       0.004
   0.11736874  0.03912291  0.00000000       0.004
   0.13693020  0.03912291  0.00000000       0.004
   0.15649166  0.03912291  0.00000000       0.004
   0.17605311  0.03912291  0.00000000       0.002
   0.05868437  0.05868437  0.00000000       0.002
   0.07824583  0.05868437  0.00000000       0.004
   0.09780729  0.05868437  0.00000000       0.004
   0.11736874  0.05868437  0.00000000       0.004
   0.13693020  0.05868437  0.00000000       0.004
   0.15649166  0.05868437  0.00000000       0.004
   0.17605311  0.05868437  0.00000000       0.002
   0.07824583  0.07824583  0.00000000       0.002
   0.09780729  0.07824583  0.00000000       0.004
   0.11736874  0.07824583  0.00000000       0.004
   0.13693020  0.07824583  0.00000000       0.004
   0.15649166  0.07824583  0.00000000       0.004
   0.17605311  0.07824583  0.00000000       0.002
   0.09780729  0.09780729  0.00000000       0.002
   0.11736874  0.09780729  0.00000000       0.004
   0.13693020  0.09780729  0.00000000       0.004
   0.15649166  0.09780729  0.00000000       0.004
   0.17605311  0.09780729  0.00000000       0.002
   0.11736874  0.11736874  0.00000000       0.002
   0.13693020  0.11736874  0.00000000       0.004
   0.15649166  0.11736874  0.00000000       0.004
   0.17605311  0.11736874  0.00000000       0.002
   0.13693020  0.13693020  0.00000000       0.002
   0.15649166  0.13693020  0.00000000       0.004
   0.17605311  0.13693020  0.00000000       0.002
   0.15649166  0.15649166  0.00000000       0.002
   0.17605311  0.15649166  0.00000000       0.002
   0.17605311  0.17605311  0.00000000       0.001
   0.01956146  0.01956146  0.01956146       0.001
   0.03912291  0.01956146  0.01956146       0.004
   0.05868437  0.01956146  0.01956146       0.004
   0.07824583  0.01956146  0.01956146       0.004
   0.09780729  0.01956146  0.01956146       0.004
   0.11736874  0.01956146  0.01956146       0.004
   0.13693020  0.01956146  0.01956146       0.004
   0.15649166  0.01956146  0.01956146       0.004
   0.17605311  0.01956146  0.01956146       0.002
   0.03912291  0.03912291  0.01956146       0.004
   0.05868437  0.03912291  0.01956146       0.008
   0.07824583  0.03912291  0.01956146       0.008
   0.09780729  0.03912291  0.01956146       0.008
   0.11736874  0.03912291  0.01956146       0.008
   0.13693020  0.03912291  0.01956146       0.008
   0.15649166  0.03912291  0.01956146       0.008
   0.17605311  0.03912291  0.01956146       0.004
   0.05868437  0.05868437  0.01956146       0.004
   0.07824583  0.05868437  0.01956146       0.008
   0.09780729  0.05868437  0.01956146       0.008
   0.11736874  0.05868437  0.01956146       0.008
   0.13693020  0.05868437  0.01956146       0.008
   0.15649166  0.05868437  0.01956146       0.008
   0.17605311  0.05868437  0.01956146       0.004
   0.07824583  0.07824583  0.01956146       0.004
   0.09780729  0.07824583  0.01956146       0.008
   0.11736874  0.07824583  0.01956146       0.008
   0.13693020  0.07824583  0.01956146       0.008
   0.15649166  0.07824583  0.01956146       0.008
   0.17605311  0.07824583  0.01956146       0.004
   0.09780729  0.09780729  0.01956146       0.004
   0.11736874  0.09780729  0.01956146       0.008
   0.13693020  0.09780729  0.01956146       0.008
   0.15649166  0.09780729  0.01956146       0.008
   0.17605311  0.09780729  0.01956146       0.004
   0.11736874  0.11736874  0.01956146       0.004
   0.13693020  0.11736874  0.01956146       0.008
   0.15649166  0.11736874  0.01956146       0.008
   0.17605311  0.11736874  0.01956146       0.004
   0.13693020  0.13693020  0.01956146       0.004
   0.15649166  0.13693020  0.01956146       0.008
   0.17605311  0.13693020  0.01956146       0.004
   0.15649166  0.15649166  0.01956146       0.004
   0.17605311  0.15649166  0.01956146       0.004
   0.17605311  0.17605311  0.01956146       0.001
   0.03912291  0.03912291  0.03912291       0.001
   0.05868437  0.03912291  0.03912291       0.004
   0.07824583  0.03912291  0.03912291       0.004
   0.09780729  0.03912291  0.03912291       0.004
   0.11736874  0.03912291  0.03912291       0.004
   0.13693020  0.03912291  0.03912291       0.004
   0.15649166  0.03912291  0.03912291       0.004
   0.17605311  0.03912291  0.03912291       0.002
   0.05868437  0.05868437  0.03912291       0.004
   0.07824583  0.05868437  0.03912291       0.008
   0.09780729  0.05868437  0.03912291       0.008
   0.11736874  0.05868437  0.03912291       0.008
   0.13693020  0.05868437  0.03912291       0.008
   0.15649166  0.05868437  0.03912291       0.008
   0.17605311  0.05868437  0.03912291       0.004
   0.07824583  0.07824583  0.03912291       0.004
   0.09780729  0.07824583  0.03912291       0.008
   0.11736874  0.07824583  0.03912291       0.008
   0.13693020  0.07824583  0.03912291       0.008
   0.15649166  0.07824583  0.03912291       0.008
   0.17605311  0.07824583  0.03912291       0.004
   0.09780729  0.09780729  0.03912291       0.004
   0.11736874  0.09780729  0.03912291       0.008
   0.13693020  0.09780729  0.03912291       0.008
   0.15649166  0.09780729  0.03912291       0.008
   0.17605311  0.09780729  0.03912291       0.004
   0.11736874  0.11736874  0.03912291       0.004
   0.13693020  0.11736874  0.03912291       0.008
   0.15649166  0.11736874  0.03912291       0.008
   0.17605311  0.11736874  0.03912291       0.004
   0.13693020  0.13693020  0.03912291       0.004
   0.15649166  0.13693020  0.03912291       0.008
   0.17605311  0.13693020  0.03912291       0.004
   0.15649166  0.15649166  0.03912291       0.004
   0.17605311  0.15649166  0.03912291       0.004
   0.17605311  0.17605311  0.03912291       0.001
   0.05868437  0.05868437  0.05868437       0.001
   0.07824583  0.05868437  0.05868437       0.004
   0.09780729  0.05868437  0.05868437       0.004
   0.11736874  0.05868437  0.05868437       0.004
   0.13693020  0.05868437  0.05868437       0.004
   0.15649166  0.05868437  0.05868437       0.004
   0.17605311  0.05868437  0.05868437       0.002
   0.07824583  0.07824583  0.05868437       0.004
   0.09780729  0.07824583  0.05868437       0.008
   0.11736874  0.07824583  0.05868437       0.008
   0.13693020  0.07824583  0.05868437       0.008
   0.15649166  0.07824583  0.05868437       0.008
   0.17605311  0.07824583  0.05868437       0.004
   0.09780729  0.09780729  0.05868437       0.004
   0.11736874  0.09780729  0.05868437       0.008
   0.13693020  0.09780729  0.05868437       0.008
   0.15649166  0.09780729  0.05868437       0.008
   0.17605311  0.09780729  0.05868437       0.004
   0.11736874  0.11736874  0.05868437       0.004
   0.13693020  0.11736874  0.05868437       0.008
   0.15649166  0.11736874  0.05868437       0.008
   0.17605311  0.11736874  0.05868437       0.004
   0.13693020  0.13693020  0.05868437       0.004
   0.15649166  0.13693020  0.05868437       0.008
   0.17605311  0.13693020  0.05868437       0.004
   0.15649166  0.15649166  0.05868437       0.004
   0.17605311  0.15649166  0.05868437       0.004
   0.17605311  0.17605311  0.05868437       0.001
   0.07824583  0.07824583  0.07824583       0.001
   0.09780729  0.07824583  0.07824583       0.004
   0.11736874  0.07824583  0.07824583       0.004
   0.13693020  0.07824583  0.07824583       0.004
   0.15649166  0.07824583  0.07824583       0.004
   0.17605311  0.07824583  0.07824583       0.002
   0.09780729  0.09780729  0.07824583       0.004
   0.11736874  0.09780729  0.07824583       0.008
   0.13693020  0.09780729  0.07824583       0.008
   0.15649166  0.09780729  0.07824583       0.008
   0.17605311  0.09780729  0.07824583       0.004
   0.11736874  0.11736874  0.07824583       0.004
   0.13693020  0.11736874  0.07824583       0.008
   0.15649166  0.11736874  0.07824583       0.008
   0.17605311  0.11736874  0.07824583       0.004
   0.13693020  0.13693020  0.07824583       0.004
   0.15649166  0.13693020  0.07824583       0.008
   0.17605311  0.13693020  0.07824583       0.004
   0.15649166  0.15649166  0.07824583       0.004
   0.17605311  0.15649166  0.07824583       0.004
   0.17605311  0.17605311  0.07824583       0.001
   0.09780729  0.09780729  0.09780729       0.001
   0.11736874  0.09780729  0.09780729       0.004
   0.13693020  0.09780729  0.09780729       0.004
   0.15649166  0.09780729  0.09780729       0.004
   0.17605311  0.09780729  0.09780729       0.002
   0.11736874  0.11736874  0.09780729       0.004
   0.13693020  0.11736874  0.09780729       0.008
   0.15649166  0.11736874  0.09780729       0.008
   0.17605311  0.11736874  0.09780729       0.004
   0.13693020  0.13693020  0.09780729       0.004
   0.15649166  0.13693020  0.09780729       0.008
   0.17605311  0.13693020  0.09780729       0.004
   0.15649166  0.15649166  0.09780729       0.004
   0.17605311  0.15649166  0.09780729       0.004
   0.17605311  0.17605311  0.09780729       0.001
   0.11736874  0.11736874  0.11736874       0.001
   0.13693020  0.11736874  0.11736874       0.004
   0.15649166  0.11736874  0.11736874       0.004
   0.17605311  0.11736874  0.11736874       0.002
   0.13693020  0.13693020  0.11736874       0.004
   0.15649166  0.13693020  0.11736874       0.008
   0.17605311  0.13693020  0.11736874       0.004
   0.15649166  0.15649166  0.11736874       0.004
   0.17605311  0.15649166  0.11736874       0.004
   0.17605311  0.17605311  0.11736874       0.001
   0.13693020  0.13693020  0.13693020       0.001
   0.15649166  0.13693020  0.13693020       0.004
   0.17605311  0.13693020  0.13693020       0.002
   0.15649166  0.15649166  0.13693020       0.004
   0.17605311  0.15649166  0.13693020       0.004
   0.17605311  0.17605311  0.13693020       0.001
   0.15649166  0.15649166  0.15649166       0.001
   0.17605311  0.15649166  0.15649166       0.002
   0.17605311  0.17605311  0.15649166       0.001
   0.17605311  0.17605311  0.17605311       0.000
 
 k-points in reciprocal lattice and weights: Automatic mesh                          
   0.00000000  0.00000000  0.00000000       0.000
   0.05555556  0.00000000  0.00000000       0.001
   0.11111111  0.00000000  0.00000000       0.001
   0.16666667  0.00000000  0.00000000       0.001
   0.22222222  0.00000000  0.00000000       0.001
   0.27777778  0.00000000  0.00000000       0.001
   0.33333333  0.00000000  0.00000000       0.001
   0.38888889  0.00000000  0.00000000       0.001
   0.44444444  0.00000000  0.00000000       0.001
   0.50000000  0.00000000  0.00000000       0.001
   0.05555556  0.05555556  0.00000000       0.002
   0.11111111  0.05555556  0.00000000       0.004
   0.16666667  0.05555556  0.00000000       0.004
   0.22222222  0.05555556  0.00000000       0.004
   0.27777778  0.05555556  0.00000000       0.004
   0.33333333  0.05555556  0.00000000       0.004
   0.38888889  0.05555556  0.00000000       0.004
   0.44444444  0.05555556  0.00000000       0.004
   0.50000000  0.05555556  0.00000000       0.002
   0.11111111  0.11111111  0.00000000       0.002
   0.16666667  0.11111111  0.00000000       0.004
   0.22222222  0.11111111  0.00000000       0.004
   0.27777778  0.11111111  0.00000000       0.004
   0.33333333  0.11111111  0.00000000       0.004
   0.38888889  0.11111111  0.00000000       0.004
   0.44444444  0.11111111  0.00000000       0.004
   0.50000000  0.11111111  0.00000000       0.002
   0.16666667  0.16666667  0.00000000       0.002
   0.22222222  0.16666667  0.00000000       0.004
   0.27777778  0.16666667  0.00000000       0.004
   0.33333333  0.16666667  0.00000000       0.004
   0.38888889  0.16666667  0.00000000       0.004
   0.44444444  0.16666667  0.00000000       0.004
   0.50000000  0.16666667  0.00000000       0.002
   0.22222222  0.22222222  0.00000000       0.002
   0.27777778  0.22222222  0.00000000       0.004
   0.33333333  0.22222222  0.00000000       0.004
   0.38888889  0.22222222  0.00000000       0.004
   0.44444444  0.22222222  0.00000000       0.004
   0.50000000  0.22222222  0.00000000       0.002
   0.27777778  0.27777778  0.00000000       0.002
   0.33333333  0.27777778  0.00000000       0.004
   0.38888889  0.27777778  0.00000000       0.004
   0.44444444  0.27777778  0.00000000       0.004
   0.50000000  0.27777778  0.00000000       0.002
   0.33333333  0.33333333  0.00000000       0.002
   0.38888889  0.33333333  0.00000000       0.004
   0.44444444  0.33333333  0.00000000       0.004
   0.50000000  0.33333333  0.00000000       0.002
   0.38888889  0.38888889  0.00000000       0.002
   0.44444444  0.38888889  0.00000000       0.004
   0.50000000  0.38888889  0.00000000       0.002
   0.44444444  0.44444444  0.00000000       0.002
   0.50000000  0.44444444  0.00000000       0.002
   0.50000000  0.50000000  0.00000000       0.001
   0.05555556  0.05555556  0.05555556       0.001
   0.11111111  0.05555556  0.05555556       0.004
   0.16666667  0.05555556  0.05555556       0.004
   0.22222222  0.05555556  0.05555556       0.004
   0.27777778  0.05555556  0.05555556       0.004
   0.33333333  0.05555556  0.05555556       0.004
   0.38888889  0.05555556  0.05555556       0.004
   0.44444444  0.05555556  0.05555556       0.004
   0.50000000  0.05555556  0.05555556       0.002
   0.11111111  0.11111111  0.05555556       0.004
   0.16666667  0.11111111  0.05555556       0.008
   0.22222222  0.11111111  0.05555556       0.008
   0.27777778  0.11111111  0.05555556       0.008
   0.33333333  0.11111111  0.05555556       0.008
   0.38888889  0.11111111  0.05555556       0.008
   0.44444444  0.11111111  0.05555556       0.008
   0.50000000  0.11111111  0.05555556       0.004
   0.16666667  0.16666667  0.05555556       0.004
   0.22222222  0.16666667  0.05555556       0.008
   0.27777778  0.16666667  0.05555556       0.008
   0.33333333  0.16666667  0.05555556       0.008
   0.38888889  0.16666667  0.05555556       0.008
   0.44444444  0.16666667  0.05555556       0.008
   0.50000000  0.16666667  0.05555556       0.004
   0.22222222  0.22222222  0.05555556       0.004
   0.27777778  0.22222222  0.05555556       0.008
   0.33333333  0.22222222  0.05555556       0.008
   0.38888889  0.22222222  0.05555556       0.008
   0.44444444  0.22222222  0.05555556       0.008
   0.50000000  0.22222222  0.05555556       0.004
   0.27777778  0.27777778  0.05555556       0.004
   0.33333333  0.27777778  0.05555556       0.008
   0.38888889  0.27777778  0.05555556       0.008
   0.44444444  0.27777778  0.05555556       0.008
   0.50000000  0.27777778  0.05555556       0.004
   0.33333333  0.33333333  0.05555556       0.004
   0.38888889  0.33333333  0.05555556       0.008
   0.44444444  0.33333333  0.05555556       0.008
   0.50000000  0.33333333  0.05555556       0.004
   0.38888889  0.38888889  0.05555556       0.004
   0.44444444  0.38888889  0.05555556       0.008
   0.50000000  0.38888889  0.05555556       0.004
   0.44444444  0.44444444  0.05555556       0.004
   0.50000000  0.44444444  0.05555556       0.004
   0.50000000  0.50000000  0.05555556       0.001
   0.11111111  0.11111111  0.11111111       0.001
   0.16666667  0.11111111  0.11111111       0.004
   0.22222222  0.11111111  0.11111111       0.004
   0.27777778  0.11111111  0.11111111       0.004
   0.33333333  0.11111111  0.11111111       0.004
   0.38888889  0.11111111  0.11111111       0.004
   0.44444444  0.11111111  0.11111111       0.004
   0.50000000  0.11111111  0.11111111       0.002
   0.16666667  0.16666667  0.11111111       0.004
   0.22222222  0.16666667  0.11111111       0.008
   0.27777778  0.16666667  0.11111111       0.008
   0.33333333  0.16666667  0.11111111       0.008
   0.38888889  0.16666667  0.11111111       0.008
   0.44444444  0.16666667  0.11111111       0.008
   0.50000000  0.16666667  0.11111111       0.004
   0.22222222  0.22222222  0.11111111       0.004
   0.27777778  0.22222222  0.11111111       0.008
   0.33333333  0.22222222  0.11111111       0.008
   0.38888889  0.22222222  0.11111111       0.008
   0.44444444  0.22222222  0.11111111       0.008
   0.50000000  0.22222222  0.11111111       0.004
   0.27777778  0.27777778  0.11111111       0.004
   0.33333333  0.27777778  0.11111111       0.008
   0.38888889  0.27777778  0.11111111       0.008
   0.44444444  0.27777778  0.11111111       0.008
   0.50000000  0.27777778  0.11111111       0.004
   0.33333333  0.33333333  0.11111111       0.004
   0.38888889  0.33333333  0.11111111       0.008
   0.44444444  0.33333333  0.11111111       0.008
   0.50000000  0.33333333  0.11111111       0.004
   0.38888889  0.38888889  0.11111111       0.004
   0.44444444  0.38888889  0.11111111       0.008
   0.50000000  0.38888889  0.11111111       0.004
   0.44444444  0.44444444  0.11111111       0.004
   0.50000000  0.44444444  0.11111111       0.004
   0.50000000  0.50000000  0.11111111       0.001
   0.16666667  0.16666667  0.16666667       0.001
   0.22222222  0.16666667  0.16666667       0.004
   0.27777778  0.16666667  0.16666667       0.004
   0.33333333  0.16666667  0.16666667       0.004
   0.38888889  0.16666667  0.16666667       0.004
   0.44444444  0.16666667  0.16666667       0.004
   0.50000000  0.16666667  0.16666667       0.002
   0.22222222  0.22222222  0.16666667       0.004
   0.27777778  0.22222222  0.16666667       0.008
   0.33333333  0.22222222  0.16666667       0.008
   0.38888889  0.22222222  0.16666667       0.008
   0.44444444  0.22222222  0.16666667       0.008
   0.50000000  0.22222222  0.16666667       0.004
   0.27777778  0.27777778  0.16666667       0.004
   0.33333333  0.27777778  0.16666667       0.008
   0.38888889  0.27777778  0.16666667       0.008
   0.44444444  0.27777778  0.16666667       0.008
   0.50000000  0.27777778  0.16666667       0.004
   0.33333333  0.33333333  0.16666667       0.004
   0.38888889  0.33333333  0.16666667       0.008
   0.44444444  0.33333333  0.16666667       0.008
   0.50000000  0.33333333  0.16666667       0.004
   0.38888889  0.38888889  0.16666667       0.004
   0.44444444  0.38888889  0.16666667       0.008
   0.50000000  0.38888889  0.16666667       0.004
   0.44444444  0.44444444  0.16666667       0.004
   0.50000000  0.44444444  0.16666667       0.004
   0.50000000  0.50000000  0.16666667       0.001
   0.22222222  0.22222222  0.22222222       0.001
   0.27777778  0.22222222  0.22222222       0.004
   0.33333333  0.22222222  0.22222222       0.004
   0.38888889  0.22222222  0.22222222       0.004
   0.44444444  0.22222222  0.22222222       0.004
   0.50000000  0.22222222  0.22222222       0.002
   0.27777778  0.27777778  0.22222222       0.004
   0.33333333  0.27777778  0.22222222       0.008
   0.38888889  0.27777778  0.22222222       0.008
   0.44444444  0.27777778  0.22222222       0.008
   0.50000000  0.27777778  0.22222222       0.004
   0.33333333  0.33333333  0.22222222       0.004
   0.38888889  0.33333333  0.22222222       0.008
   0.44444444  0.33333333  0.22222222       0.008
   0.50000000  0.33333333  0.22222222       0.004
   0.38888889  0.38888889  0.22222222       0.004
   0.44444444  0.38888889  0.22222222       0.008
   0.50000000  0.38888889  0.22222222       0.004
   0.44444444  0.44444444  0.22222222       0.004
   0.50000000  0.44444444  0.22222222       0.004
   0.50000000  0.50000000  0.22222222       0.001
   0.27777778  0.27777778  0.27777778       0.001
   0.33333333  0.27777778  0.27777778       0.004
   0.38888889  0.27777778  0.27777778       0.004
   0.44444444  0.27777778  0.27777778       0.004
   0.50000000  0.27777778  0.27777778       0.002
   0.33333333  0.33333333  0.27777778       0.004
   0.38888889  0.33333333  0.27777778       0.008
   0.44444444  0.33333333  0.27777778       0.008
   0.50000000  0.33333333  0.27777778       0.004
   0.38888889  0.38888889  0.27777778       0.004
   0.44444444  0.38888889  0.27777778       0.008
   0.50000000  0.38888889  0.27777778       0.004
   0.44444444  0.44444444  0.27777778       0.004
   0.50000000  0.44444444  0.27777778       0.004
   0.50000000  0.50000000  0.27777778       0.001
   0.33333333  0.33333333  0.33333333       0.001
   0.38888889  0.33333333  0.33333333       0.004
   0.44444444  0.33333333  0.33333333       0.004
   0.50000000  0.33333333  0.33333333       0.002
   0.38888889  0.38888889  0.33333333       0.004
   0.44444444  0.38888889  0.33333333       0.008
   0.50000000  0.38888889  0.33333333       0.004
   0.44444444  0.44444444  0.33333333       0.004
   0.50000000  0.44444444  0.33333333       0.004
   0.50000000  0.50000000  0.33333333       0.001
   0.38888889  0.38888889  0.38888889       0.001
   0.44444444  0.38888889  0.38888889       0.004
   0.50000000  0.38888889  0.38888889       0.002
   0.44444444  0.44444444  0.38888889       0.004
   0.50000000  0.44444444  0.38888889       0.004
   0.50000000  0.50000000  0.38888889       0.001
   0.44444444  0.44444444  0.44444444       0.001
   0.50000000  0.44444444  0.44444444       0.002
   0.50000000  0.50000000  0.44444444       0.001
   0.50000000  0.50000000  0.50000000       0.000
 
 position of ions in fractional coordinates (direct lattice) 
   0.00000000  0.00000000  0.00000000
   0.50000000  0.50000000  0.50000000
 
 position of ions in cartesian coordinates  (Angst):
   0.00000000  0.00000000  0.00000000
   1.42002600  1.42002600  1.42002600
 


--------------------------------------------------------------------------------------------------------


 k-point  1 :   0.0000 0.0000 0.0000  plane waves:    1419
 k-point  2 :   0.0556 0.0000 0.0000  plane waves:    1406
 k-point  3 :   0.1111 0.0000 0.0000  plane waves:    1418
 k-point  4 :   0.1667 0.0000 0.0000  plane waves:    1426
 k-point  5 :   0.2222 0.0000 0.0000  plane waves:    1434
 k-point  6 :   0.2778 0.0000 0.0000  plane waves:    1434
 k-point  7 :   0.3333 0.0000 0.0000  plane waves:    1442
 k-point  8 :   0.3889 0.0000 0.0000  plane waves:    1450
 k-point  9 :   0.4444 0.0000 0.0000  plane waves:    1446
 k-point 10 :   0.5000 0.0000 0.0000  plane waves:    1462
 k-point 11 :   0.0556 0.0556 0.0000  plane waves:    1416
 k-point 12 :   0.1111 0.0556 0.0000  plane waves:    1421
 k-point 13 :   0.1667 0.0556 0.0000  plane waves:    1432
 k-point 14 :   0.2222 0.0556 0.0000  plane waves:    1437
 k-point 15 :   0.2778 0.0556 0.0000  plane waves:    1442
 k-point 16 :   0.3333 0.0556 0.0000  plane waves:    1442
 k-point 17 :   0.3889 0.0556 0.0000  plane waves:    1449
 k-point 18 :   0.4444 0.0556 0.0000  plane waves:    1450
 k-point 19 :   0.5000 0.0556 0.0000  plane waves:    1444
 k-point 20 :   0.1111 0.1111 0.0000  plane waves:    1426
 k-point 21 :   0.1667 0.1111 0.0000  plane waves:    1433
 k-point 22 :   0.2222 0.1111 0.0000  plane waves:    1439
 k-point 23 :   0.2778 0.1111 0.0000  plane waves:    1444
 k-point 24 :   0.3333 0.1111 0.0000  plane waves:    1449
 k-point 25 :   0.3889 0.1111 0.0000  plane waves:    1454
 k-point 26 :   0.4444 0.1111 0.0000  plane waves:    1457
 k-point 27 :   0.5000 0.1111 0.0000  plane waves:    1450
 k-point 28 :   0.1667 0.1667 0.0000  plane waves:    1432
 k-point 29 :   0.2222 0.1667 0.0000  plane waves:    1443
 k-point 30 :   0.2778 0.1667 0.0000  plane waves:    1445
 k-point 31 :   0.3333 0.1667 0.0000  plane waves:    1448
 k-point 32 :   0.3889 0.1667 0.0000  plane waves:    1449
 k-point 33 :   0.4444 0.1667 0.0000  plane waves:    1454
 k-point 34 :   0.5000 0.1667 0.0000  plane waves:    1460
 k-point 35 :   0.2222 0.2222 0.0000  plane waves:    1442
 k-point 36 :   0.2778 0.2222 0.0000  plane waves:    1438
 k-point 37 :   0.3333 0.2222 0.0000  plane waves:    1445
 k-point 38 :   0.3889 0.2222 0.0000  plane waves:    1447
 k-point 39 :   0.4444 0.2222 0.0000  plane waves:    1455
 k-point 40 :   0.5000 0.2222 0.0000  plane waves:    1452
 k-point 41 :   0.2778 0.2778 0.0000  plane waves:    1454
 k-point 42 :   0.3333 0.2778 0.0000  plane waves:    1454
 k-point 43 :   0.3889 0.2778 0.0000  plane waves:    1452
 k-point 44 :   0.4444 0.2778 0.0000  plane waves:    1449
 k-point 45 :   0.5000 0.2778 0.0000  plane waves:    1456
 k-point 46 :   0.3333 0.3333 0.0000  plane waves:    1446
 k-point 47 :   0.3889 0.3333 0.0000  plane waves:    1455
 k-point 48 :   0.4444 0.3333 0.0000  plane waves:    1452
 k-point 49 :   0.5000 0.3333 0.0000  plane waves:    1444
 k-point 50 :   0.3889 0.3889 0.0000  plane waves:    1442
 k-point 51 :   0.4444 0.3889 0.0000  plane waves:    1445
 k-point 52 :   0.5000 0.3889 0.0000  plane waves:    1456
 k-point 53 :   0.4444 0.4444 0.0000  plane waves:    1454
 k-point 54 :   0.5000 0.4444 0.0000  plane waves:    1468
 k-point 55 :   0.5000 0.5000 0.0000  plane waves:    1452
 k-point 56 :   0.0556 0.0556 0.0556  plane waves:    1412
 k-point 57 :   0.1111 0.0556 0.0556  plane waves:    1425
 k-point 58 :   0.1667 0.0556 0.0556  plane waves:    1432
 k-point 59 :   0.2222 0.0556 0.0556  plane waves:    1438
 k-point 60 :   0.2778 0.0556 0.0556  plane waves:    1443
 k-point 61 :   0.3333 0.0556 0.0556  plane waves:    1443
 k-point 62 :   0.3889 0.0556 0.0556  plane waves:    1453
 k-point 63 :   0.4444 0.0556 0.0556  plane waves:    1448
 k-point 64 :   0.5000 0.0556 0.0556  plane waves:    1444
 k-point 65 :   0.1111 0.1111 0.0556  plane waves:    1425
 k-point 66 :   0.1667 0.1111 0.0556  plane waves:    1433
 k-point 67 :   0.2222 0.1111 0.0556  plane waves:    1441
 k-point 68 :   0.2778 0.1111 0.0556  plane waves:    1449
 k-point 69 :   0.3333 0.1111 0.0556  plane waves:    1447
 k-point 70 :   0.3889 0.1111 0.0556  plane waves:    1454
 k-point 71 :   0.4444 0.1111 0.0556  plane waves:    1455
 k-point 72 :   0.5000 0.1111 0.0556  plane waves:    1450
 k-point 73 :   0.1667 0.1667 0.0556  plane waves:    1437
 k-point 74 :   0.2222 0.1667 0.0556  plane waves:    1441
 k-point 75 :   0.2778 0.1667 0.0556  plane waves:    1442
 k-point 76 :   0.3333 0.1667 0.0556  plane waves:    1445
 k-point 77 :   0.3889 0.1667 0.0556  plane waves:    1456
 k-point 78 :   0.4444 0.1667 0.0556  plane waves:    1451
 k-point 79 :   0.5000 0.1667 0.0556  plane waves:    1454
 k-point 80 :   0.2222 0.2222 0.0556  plane waves:    1445
 k-point 81 :   0.2778 0.2222 0.0556  plane waves:    1442
 k-point 82 :   0.3333 0.2222 0.0556  plane waves:    1449
 k-point 83 :   0.3889 0.2222 0.0556  plane waves:    1450
 k-point 84 :   0.4444 0.2222 0.0556  plane waves:    1454
 k-point 85 :   0.5000 0.2222 0.0556  plane waves:    1462
 k-point 86 :   0.2778 0.2778 0.0556  plane waves:    1452
 k-point 87 :   0.3333 0.2778 0.0556  plane waves:    1454
 k-point 88 :   0.3889 0.2778 0.0556  plane waves:    1447
 k-point 89 :   0.4444 0.2778 0.0556  plane waves:    1457
 k-point 90 :   0.5000 0.2778 0.0556  plane waves:    1454
 k-point 91 :   0.3333 0.3333 0.0556  plane waves:    1454
 k-point 92 :   0.3889 0.3333 0.0556  plane waves:    1455
 k-point 93 :   0.4444 0.3333 0.0556  plane waves:    1456
 k-point 94 :   0.5000 0.3333 0.0556  plane waves:    1452
 k-point 95 :   0.3889 0.3889 0.0556  plane waves:    1451
 k-point 96 :   0.4444 0.3889 0.0556  plane waves:    1450
 k-point 97 :   0.5000 0.3889 0.0556  plane waves:    1460
 k-point 98 :   0.4444 0.4444 0.0556  plane waves:    1459
 k-point 99 :   0.5000 0.4444 0.0556  plane waves:    1454
 k-point ** :   0.5000 0.5000 0.0556  plane waves:    1464
 k-point ** :   0.1111 0.1111 0.1111  plane waves:    1439
 k-point ** :   0.1667 0.1111 0.1111  plane waves:    1442
 k-point ** :   0.2222 0.1111 0.1111  plane waves:    1444
 k-point ** :   0.2778 0.1111 0.1111  plane waves:    1451
 k-point ** :   0.3333 0.1111 0.1111  plane waves:    1454
 k-point ** :   0.3889 0.1111 0.1111  plane waves:    1450
 k-point ** :   0.4444 0.1111 0.1111  plane waves:    1452
 k-point ** :   0.5000 0.1111 0.1111  plane waves:    1454
 k-point ** :   0.1667 0.1667 0.1111  plane waves:    1444
 k-point ** :   0.2222 0.1667 0.1111  plane waves:    1445
 k-point ** :   0.2778 0.1667 0.1111  plane waves:    1446
 k-point ** :   0.3333 0.1667 0.1111  plane waves:    1452
 k-point ** :   0.3889 0.1667 0.1111  plane waves:    1455
 k-point ** :   0.4444 0.1667 0.1111  plane waves:    1449
 k-point ** :   0.5000 0.1667 0.1111  plane waves:    1450
 k-point ** :   0.2222 0.2222 0.1111  plane waves:    1447
 k-point ** :   0.2778 0.2222 0.1111  plane waves:    1444
 k-point ** :   0.3333 0.2222 0.1111  plane waves:    1449
 k-point ** :   0.3889 0.2222 0.1111  plane waves:    1462
 k-point ** :   0.4444 0.2222 0.1111  plane waves:    1461
 k-point ** :   0.5000 0.2222 0.1111  plane waves:    1464
 k-point ** :   0.2778 0.2778 0.1111  plane waves:    1448
 k-point ** :   0.3333 0.2778 0.1111  plane waves:    1452
 k-point ** :   0.3889 0.2778 0.1111  plane waves:    1455
 k-point ** :   0.4444 0.2778 0.1111  plane waves:    1457
 k-point ** :   0.5000 0.2778 0.1111  plane waves:    1452
 k-point ** :   0.3333 0.3333 0.1111  plane waves:    1455
 k-point ** :   0.3889 0.3333 0.1111  plane waves:    1454
 k-point ** :   0.4444 0.3333 0.1111  plane waves:    1460
 k-point ** :   0.5000 0.3333 0.1111  plane waves:    1454
 k-point ** :   0.3889 0.3889 0.1111  plane waves:    1457
 k-point ** :   0.4444 0.3889 0.1111  plane waves:    1449
 k-point ** :   0.5000 0.3889 0.1111  plane waves:    1454
 k-point ** :   0.4444 0.4444 0.1111  plane waves:    1451
 k-point ** :   0.5000 0.4444 0.1111  plane waves:    1450
 k-point ** :   0.5000 0.5000 0.1111  plane waves:    1452
 k-point ** :   0.1667 0.1667 0.1667  plane waves:    1436
 k-point ** :   0.2222 0.1667 0.1667  plane waves:    1452
 k-point ** :   0.2778 0.1667 0.1667  plane waves:    1451
 k-point ** :   0.3333 0.1667 0.1667  plane waves:    1454
 k-point ** :   0.3889 0.1667 0.1667  plane waves:    1457
 k-point ** :   0.4444 0.1667 0.1667  plane waves:    1458
 k-point ** :   0.5000 0.1667 0.1667  plane waves:    1458
 k-point ** :   0.2222 0.2222 0.1667  plane waves:    1443
 k-point ** :   0.2778 0.2222 0.1667  plane waves:    1449
 k-point ** :   0.3333 0.2222 0.1667  plane waves:    1453
 k-point ** :   0.3889 0.2222 0.1667  plane waves:    1456
 k-point ** :   0.4444 0.2222 0.1667  plane waves:    1456
 k-point ** :   0.5000 0.2222 0.1667  plane waves:    1460
 k-point ** :   0.2778 0.2778 0.1667  plane waves:    1451
 k-point ** :   0.3333 0.2778 0.1667  plane waves:    1454
 k-point ** :   0.3889 0.2778 0.1667  plane waves:    1452
 k-point ** :   0.4444 0.2778 0.1667  plane waves:    1464
 k-point ** :   0.5000 0.2778 0.1667  plane waves:    1462
 k-point ** :   0.3333 0.3333 0.1667  plane waves:    1455
 k-point ** :   0.3889 0.3333 0.1667  plane waves:    1458
 k-point ** :   0.4444 0.3333 0.1667  plane waves:    1455
 k-point ** :   0.5000 0.3333 0.1667  plane waves:    1454
 k-point ** :   0.3889 0.3889 0.1667  plane waves:    1457
 k-point ** :   0.4444 0.3889 0.1667  plane waves:    1458
 k-point ** :   0.5000 0.3889 0.1667  plane waves:    1462
 k-point ** :   0.4444 0.4444 0.1667  plane waves:    1451
 k-point ** :   0.5000 0.4444 0.1667  plane waves:    1450
 k-point ** :   0.5000 0.5000 0.1667  plane waves:    1460
 k-point ** :   0.2222 0.2222 0.2222  plane waves:    1457
 k-point ** :   0.2778 0.2222 0.2222  plane waves:    1455
 k-point ** :   0.3333 0.2222 0.2222  plane waves:    1457
 k-point ** :   0.3889 0.2222 0.2222  plane waves:    1454
 k-point ** :   0.4444 0.2222 0.2222  plane waves:    1460
 k-point ** :   0.5000 0.2222 0.2222  plane waves:    1452
 k-point ** :   0.2778 0.2778 0.2222  plane waves:    1451
 k-point ** :   0.3333 0.2778 0.2222  plane waves:    1450
 k-point ** :   0.3889 0.2778 0.2222  plane waves:    1457
 k-point ** :   0.4444 0.2778 0.2222  plane waves:    1463
 k-point ** :   0.5000 0.2778 0.2222  plane waves:    1462
 k-point ** :   0.3333 0.3333 0.2222  plane waves:    1451
 k-point ** :   0.3889 0.3333 0.2222  plane waves:    1460
 k-point ** :   0.4444 0.3333 0.2222  plane waves:    1463
 k-point ** :   0.5000 0.3333 0.2222  plane waves:    1464
 k-point ** :   0.3889 0.3889 0.2222  plane waves:    1460
 k-point ** :   0.4444 0.3889 0.2222  plane waves:    1460
 k-point ** :   0.5000 0.3889 0.2222  plane waves:    1454
 k-point ** :   0.4444 0.4444 0.2222  plane waves:    1452
 k-point ** :   0.5000 0.4444 0.2222  plane waves:    1452
 k-point ** :   0.5000 0.5000 0.2222  plane waves:    1452
 k-point ** :   0.2778 0.2778 0.2778  plane waves:    1451
 k-point ** :   0.3333 0.2778 0.2778  plane waves:    1453
 k-point ** :   0.3889 0.2778 0.2778  plane waves:    1460
 k-point ** :   0.4444 0.2778 0.2778  plane waves:    1464
 k-point ** :   0.5000 0.2778 0.2778  plane waves:    1468
 k-point ** :   0.3333 0.3333 0.2778  plane waves:    1459
 k-point ** :   0.3889 0.3333 0.2778  plane waves:    1456
 k-point ** :   0.4444 0.3333 0.2778  plane waves:    1459
 k-point ** :   0.5000 0.3333 0.2778  plane waves:    1460
 k-point ** :   0.3889 0.3889 0.2778  plane waves:    1461
 k-point ** :   0.4444 0.3889 0.2778  plane waves:    1459
 k-point ** :   0.5000 0.3889 0.2778  plane waves:    1450
 k-point ** :   0.4444 0.4444 0.2778  plane waves:    1452
 k-point ** :   0.5000 0.4444 0.2778  plane waves:    1454
 k-point ** :   0.5000 0.5000 0.2778  plane waves:    1452
 k-point ** :   0.3333 0.3333 0.3333  plane waves:    1463
 k-point ** :   0.3889 0.3333 0.3333  plane waves:    1458
 k-point ** :   0.4444 0.3333 0.3333  plane waves:    1456
 k-point ** :   0.5000 0.3333 0.3333  plane waves:    1450
 k-point ** :   0.3889 0.3889 0.3333  plane waves:    1454
 k-point ** :   0.4444 0.3889 0.3333  plane waves:    1453
 k-point ** :   0.5000 0.3889 0.3333  plane waves:    1454
 k-point ** :   0.4444 0.4444 0.3333  plane waves:    1454
 k-point ** :   0.5000 0.4444 0.3333  plane waves:    1454
 k-point ** :   0.5000 0.5000 0.3333  plane waves:    1456
 k-point ** :   0.3889 0.3889 0.3889  plane waves:    1451
 k-point ** :   0.4444 0.3889 0.3889  plane waves:    1456
 k-point ** :   0.5000 0.3889 0.3889  plane waves:    1448
 k-point ** :   0.4444 0.4444 0.3889  plane waves:    1456
 k-point ** :   0.5000 0.4444 0.3889  plane waves:    1448
 k-point ** :   0.5000 0.5000 0.3889  plane waves:    1456
 k-point ** :   0.4444 0.4444 0.4444  plane waves:    1448
 k-point ** :   0.5000 0.4444 0.4444  plane waves:    1448
 k-point ** :   0.5000 0.5000 0.4444  plane waves:    1456
 k-point ** :   0.5000 0.5000 0.5000  plane waves:    1472

 maximum and minimum number of plane-waves per node :       392      329

 maximum number of plane-waves:      1472
 maximum index in each direction: 
   IXMAX=    7   IYMAX=    7   IZMAX=    7
   IXMIN=   -7   IYMIN=   -7   IZMIN=   -7


 real space projection operators:
  total allocation   :       2196.28 KBytes
  max/ min on nodes  :        551.81        546.33


 parallel 3D FFT for wavefunctions:
    minimum data exchange during FFTs selected (reduces bandwidth)
 parallel 3D FFT for charge:
[...]
     19      18.5335      0.00000
     20      19.9463      0.00000
     21      20.3354      0.00000
     22      21.3797      0.00000
     23      22.2915      0.00000
     24      23.5845      0.00000

 k-point   215 :       0.5000    0.4444    0.3889
  band No.  band energies     occupation 
      1     -41.9478      1.00000
      2     -41.9478      1.00000
      3     -41.8595      1.00000
      4     -41.8595      1.00000
      5     -41.7825      1.00000
      6     -41.7825      1.00000
      7       7.6032      1.00000
      8       7.6032      1.00000
      9       7.8293      1.00000
     10       7.8293      1.00000
     11       8.1142      1.00000
     12       8.1142      1.00000
     13      11.5044      0.00000
     14      11.5044      0.00000
     15      11.5551      0.00000
     16      11.5551      0.00000
     17      16.8322      0.00000
     18      16.8322      0.00000
     19      19.1148      0.00000
     20      19.1148      0.00000
     21      20.8852      0.00000
     22      20.8852      0.00000
     23      22.7127      0.00000
     24      22.7127      0.00000

 k-point   216 :       0.5000    0.5000    0.3889
  band No.  band energies     occupation 
      1     -41.9422      1.00000
      2     -41.9422      1.00000
      3     -41.8581      1.00000
      4     -41.8581      1.00000
      5     -41.7912      1.00000
      6     -41.7912      1.00000
      7       7.6263      1.00000
      8       7.6263      1.00000
      9       7.7900      1.00000
     10       7.7900      1.00000
     11       8.1505      1.00000
     12       8.1505      1.00000
     13      11.5126      0.00000
     14      11.5126      0.00000
     15      11.5644      0.00000
     16      11.5644      0.00000
     17      17.1397      0.00000
     18      17.1397      0.00000
     19      18.7691      0.00000
     20      18.7691      0.00000
     21      21.2679      0.00000
     22      21.2679      0.00000
     23      22.1384      0.00000
     24      22.1384      0.00000

 k-point   217 :       0.4444    0.4444    0.4444
  band No.  band energies     occupation 
      1     -41.9379      1.00000
      2     -41.9024      1.00000
      3     -41.9024      1.00000
      4     -41.8264      1.00000
      5     -41.8264      1.00000
      6     -41.7908      1.00000
      7       7.6495      1.00000
      8       7.8171      1.00000
      9       7.8171      1.00000
     10       7.9042      1.00000
     11       7.9735      1.00000
     12       7.9735      1.00000
     13      11.5427      0.00000
     14      11.5427      0.00000
     15      11.5467      0.00000
     16      11.5467      0.00000
     17      16.9142      0.00000
     18      18.2490      0.00000
     19      18.2490      0.00000
     20      20.0114      0.00000
     21      20.3041      0.00000
     22      20.3041      0.00000
     23      21.6171      0.00000
     24      22.5855      0.00000

 k-point   218 :       0.5000    0.4444    0.4444
  band No.  band energies     occupation 
      1     -41.9187      1.00000
      2     -41.9187      1.00000
      3     -41.8642      1.00000
      4     -41.8642      1.00000
      5     -41.8119      1.00000
      6     -41.8119      1.00000
      7       7.7294      1.00000
      8       7.7294      1.00000
      9       7.8716      1.00000
     10       7.8716      1.00000
     11       7.9838      1.00000
     12       7.9838      1.00000
     13      11.5457      0.00000
     14      11.5457      0.00000
     15      11.5608      0.00000
     16      11.5608      0.00000
     17      17.6240      0.00000
     18      17.6240      0.00000
     19      19.2588      0.00000
     20      19.2588      0.00000
     21      20.2073      0.00000
     22      20.2073      0.00000
     23      21.8014      0.00000
     24      21.8014      0.00000

 k-point   219 :       0.5000    0.5000    0.4444
  band No.  band energies     occupation 
      1     -41.9046      1.00000
      2     -41.9046      1.00000
      3     -41.8641      1.00000
      4     -41.8641      1.00000
      5     -41.8280      1.00000
      6     -41.8280      1.00000
      7       7.8075      1.00000
      8       7.8075      1.00000
      9       7.8092      1.00000
     10       7.8092      1.00000
     11       7.9841      1.00000
     12       7.9841      1.00000
     13      11.5548      0.00000
     14      11.5548      0.00000
     15      11.5685      0.00000
     16      11.5685      0.00000
     17      18.1193      0.00000
     18      18.1193      0.00000
     19      19.0058      0.00000
     20      19.0058      0.00000
     21      20.1884      0.00000
     22      20.1884      0.00000
     23      21.3543      0.00000
     24      21.3543      0.00000

 k-point   220 :       0.5000    0.5000    0.5000
  band No.  band energies     occupation 
      1     -41.8661      1.00000
      2     -41.8661      1.00000
      3     -41.8661      1.00000
      4     -41.8661      1.00000
      5     -41.8661      1.00000
      6     -41.8661      1.00000
      7       7.8718      1.00000
      8       7.8718      1.00000
      9       7.8718      1.00000
     10       7.8718      1.00000
     11       7.8718      1.00000
     12       7.8718      1.00000
     13      11.5699      0.00000
     14      11.5699      0.00000
     15      11.5699      0.00000
     16      11.5699      0.00000
     17      19.1371      0.00000
     18      19.1371      0.00000
     19      19.1371      0.00000
     20      19.1371      0.00000
     21      19.1371      0.00000
     22      19.1371      0.00000
     23      21.0350      0.00000
     24      21.0350      0.00000


--------------------------------------------------------------------------------------------------------


 soft charge-density along one line, spin component           1
         0         1         2         3         4         5         6         7         8         9
 total charge-density along one line
 
 soft charge-density along one line, spin component           2
         0         1         2         3         4         5         6         7         8         9
 total charge-density along one line
 
 pseudopotential strength for first ion, spin component:           1
-44.853  -0.000   0.000   7.568   0.000  -0.000   0.000  -0.000
 -0.000 -44.853   0.000   0.000   7.568  -0.000  -0.000  -0.000
  0.000   0.000 -44.853  -0.000  -0.000   7.568  -0.000  -0.000
  7.568   0.000  -0.000   5.638  -0.000  -0.000  -0.000   0.000
  0.000   7.568  -0.000  -0.000   5.638  -0.000   0.000   0.000
 -0.000  -0.000   7.568  -0.000  -0.000   5.638   0.000   0.000
  0.000  -0.000  -0.000  -0.000   0.000   0.000  -1.978   0.000
 -0.000  -0.000  -0.000   0.000   0.000   0.000   0.000  -1.978
  0.000  -0.000  -0.000  -0.000   0.000  -0.000  -0.000  -0.000
 -0.000   0.000  -0.000   0.000  -0.000   0.000   0.000   0.000
  0.000  -0.000  -0.000  -0.000   0.000   0.000  -0.000   0.000
 -0.000  -0.000  -0.000   0.000   0.000   0.000  -2.493   0.000
 -0.000  -0.000  -0.000   0.000   0.000   0.000   0.000  -2.493
  0.000  -0.000   0.000  -0.000   0.000  -0.000  -0.000  -0.000
 -0.000  -0.000  -0.000   0.000  -0.000   0.000   0.000   0.000
  0.000  -0.000  -0.000  -0.000   0.000  -0.000  -0.000   0.000
  0.000   0.000  -0.000   0.000   0.000   0.000  -0.000   0.000
  0.000   0.000  -0.000   0.000   0.000  -0.000  -0.000   0.000
 pseudopotential strength for first ion, spin component:           2
-42.876  -0.000  -0.000   6.732   0.000   0.000   0.000  -0.000
 -0.000 -42.876  -0.000   0.000   6.732   0.000   0.000  -0.000
 -0.000  -0.000 -42.876   0.000   0.000   6.732  -0.000   0.000
  6.732   0.000   0.000   5.867   0.000   0.000  -0.000   0.000
  0.000   6.732   0.000   0.000   5.867   0.000  -0.000   0.000
  0.000   0.000   6.732   0.000   0.000   5.867   0.000  -0.000
  0.000   0.000  -0.000  -0.000  -0.000   0.000  -0.445  -0.000
 -0.000  -0.000   0.000   0.000   0.000  -0.000  -0.000  -0.445
  0.000  -0.000  -0.000  -0.000   0.000  -0.000   0.000  -0.000
  0.000   0.000  -0.000  -0.000  -0.000   0.000   0.000  -0.000
  0.000  -0.000  -0.000  -0.000   0.000   0.000  -0.000   0.000
  0.000   0.000  -0.000  -0.000  -0.000   0.000  -0.986  -0.000
 -0.000  -0.000   0.000   0.000   0.000  -0.000  -0.000  -0.986
  0.000  -0.000  -0.000  -0.000   0.000   0.000   0.000  -0.000
  0.000   0.000  -0.000  -0.000  -0.000   0.000   0.000  -0.000
  0.000  -0.000  -0.000  -0.000   0.000  -0.000  -0.000   0.000
  0.000   0.000  -0.000   0.000   0.000  -0.000   0.000   0.000
  0.000   0.000  -0.000   0.000   0.000  -0.000   0.000   0.000
 total augmentation occupancy for first ion, spin component:           1
  1.992   0.000   0.000  -0.026  -0.000   0.000   0.000   0.000  -0.000   0.000  -0.000   0.000   0.000   0.000   0.000   0.000
  0.000   1.992   0.000   0.000  -0.026   0.000   0.000   0.000   0.000   0.000   0.000   0.000   0.000   0.000   0.000   0.000
  0.000   0.000   1.992   0.000   0.000  -0.026   0.000   0.000  -0.000   0.000  -0.000   0.000   0.000   0.000   0.000  -0.000
 -0.026  -0.000  -0.000   0.201   0.000   0.000   0.000   0.000   0.000   0.000   0.000   0.000   0.000   0.000   0.000   0.000
 -0.000  -0.026   0.000   0.000   0.201  -0.000   0.000   0.000   0.000  -0.000   0.000   0.000   0.000   0.000   0.000   0.000
  0.000  -0.000  -0.026  -0.000  -0.000   0.201  -0.000   0.000  -0.000  -0.000   0.000   0.000   0.000   0.000   0.000   0.000
  0.000   0.000   0.000   0.000   0.000   0.000   2.190  -0.000  -0.000  -0.000   0.000  -1.238  -0.000   0.000   0.000   0.000
  0.000   0.000   0.000   0.000   0.000   0.000   0.000   2.190  -0.000  -0.000  -0.000  -0.000  -1.238  -0.000  -0.000   0.000
  0.000   0.000   0.000   0.000   0.000   0.000   0.000  -0.000   3.388  -0.000  -0.000   0.000   0.000  -2.172   0.000  -0.000
  0.000   0.000   0.000   0.000   0.000   0.000  -0.000  -0.000  -0.000   2.190  -0.000  -0.000   0.000  -0.000  -1.238   0.000
  0.000   0.000   0.000   0.000   0.000   0.000   0.000  -0.000  -0.000   0.000   3.388   0.000  -0.000   0.000   0.000  -2.172
  0.000   0.000   0.000   0.000   0.000   0.000  -1.238  -0.000   0.000  -0.000   0.000   1.663  -0.000   0.000   0.000  -0.000
  0.000   0.000   0.000   0.000   0.000   0.000  -0.000  -1.238  -0.000   0.000  -0.000   0.000   1.663  -0.000   0.000   0.000
  0.000   0.000   0.000  -0.000   0.000   0.000   0.000   0.000  -2.172  -0.000   0.000   0.000  -0.000   2.219  -0.000  -0.000
  0.000   0.000   0.000   0.000   0.000   0.000   0.000  -0.000  -0.000  -1.238   0.000   0.000   0.000  -0.000   1.663  -0.000
  0.000   0.000   0.000   0.000   0.000   0.000   0.000   0.000  -0.000  -0.000  -2.172  -0.000  -0.000   0.000  -0.000   2.219
  0.000   0.000   0.000   0.000   0.000   0.000  -0.000   0.000  -0.000   0.000   0.000   0.000  -0.000   0.000   0.000   0.000
  0.000   0.000   0.000   0.000   0.000   0.000  -0.000  -0.000  -0.000   0.000  -0.000  -0.000  -0.000  -0.000   0.000   0.000
 total augmentation occupancy for first ion, spin component:           2
 -0.002   0.000   0.000  -0.009   0.000   0.000   0.000   0.000   0.000   0.000   0.000   0.000   0.000   0.000   0.000   0.000
  0.000  -0.002   0.000   0.000  -0.009   0.000   0.000   0.000   0.000   0.000   0.000   0.000   0.000   0.000   0.000   0.000
  0.000   0.000  -0.002   0.000  -0.000  -0.009   0.000   0.000   0.000   0.000   0.000   0.000   0.000   0.000   0.000   0.000
 -0.009   0.000   0.000  -0.019   0.000  -0.000  -0.000  -0.000  -0.000   0.000   0.000   0.000   0.000  -0.000   0.000   0.000
  0.000  -0.009  -0.000   0.000  -0.019  -0.000   0.000   0.000   0.000   0.000   0.000   0.000   0.000   0.000   0.000   0.000
 -0.000   0.000  -0.009  -0.000  -0.000  -0.019   0.000   0.000  -0.000   0.000  -0.000   0.000   0.000  -0.000   0.000  -0.000
  0.000   0.000   0.000   0.000   0.000   0.000   1.779   0.000   0.000   0.000  -0.000  -0.673   0.000   0.000  -0.000   0.000
  0.000   0.000   0.000   0.000   0.000   0.000   0.000   1.779   0.000   0.000   0.000  -0.000  -0.673   0.000  -0.000   0.000
  0.000   0.000   0.000   0.000   0.000   0.000  -0.000  -0.000   2.801   0.000   0.000   0.000   0.000  -1.149   0.000   0.000
  0.000   0.000   0.000   0.000   0.000   0.000  -0.000   0.000   0.000   1.779   0.000  -0.000  -0.000   0.000  -0.673  -0.000
  0.000   0.000  -0.000   0.000   0.000   0.000   0.000  -0.000   0.000   0.000   2.801   0.000  -0.000   0.000  -0.000  -1.149
  0.000   0.000   0.000   0.000   0.000   0.000  -0.673  -0.000  -0.000  -0.000   0.000   0.001   0.000   0.000  -0.000  -0.000
  0.000   0.000   0.000   0.000   0.000   0.000   0.000  -0.673   0.000   0.000  -0.000   0.000   0.001   0.000   0.000  -0.000
  0.000   0.000  -0.000   0.000   0.000   0.000   0.000   0.000  -1.149   0.000   0.000   0.000   0.000   0.230   0.000   0.000
  0.000   0.000   0.000   0.000   0.000   0.000   0.000   0.000   0.000  -0.673  -0.000  -0.000   0.000   0.000   0.001   0.000
  0.000   0.000   0.000   0.000   0.000   0.000   0.000   0.000   0.000  -0.000  -1.149  -0.000  -0.000   0.000   0.000   0.230
  0.000   0.000   0.000   0.000   0.000   0.000  -0.000   0.000  -0.000   0.000  -0.000   0.000  -0.000  -0.000  -0.000  -0.000
  0.000   0.000   0.000   0.000   0.000   0.000   0.000  -0.000  -0.000   0.000   0.000   0.000   0.000   0.000  -0.000  -0.000


------------------------ aborting loop because EDIFF is reached ----------------------------------------


 


 total charge     
 
# of ion       s       p       d       tot
------------------------------------------
    1        0.385   6.377   6.077  12.838
    2        0.385   6.377   6.077  12.838
--------------------------------------------------
tot          0.769  12.754  12.153  25.676
 


 magnetization (x)
 
# of ion       s       p       d       tot
------------------------------------------
    1       -0.008  -0.039   2.298   2.251
    2       -0.008  -0.039   2.298   2.251
--------------------------------------------------
tot         -0.016  -0.078   4.596   4.502
 
    CHARGE:  cpu time    0.0874: real time    0.0876
    FORLOC:  cpu time    0.0002: real time    0.0002
    FORNL :  cpu time    0.6368: real time    0.6385
    STRESS:  cpu time    1.9044: real time    1.9095
    FORCOR:  cpu time    0.0100: real time    0.0101
    FORHAR:  cpu time    0.0015: real time    0.0015
    MIXING:  cpu time    0.0007: real time    0.0007
    OFIELD:  cpu time    0.0000: real time    0.0000

  FORCE on cell =-STRESS in cart. coord.  units (eV):
  Direction    XX          YY          ZZ          XY          YZ          ZX
  --------------------------------------------------------------------------------------
  Alpha Z   218.87049   218.87049   218.87049
  Ewald   -1205.52018 -1205.52018 -1205.52018    -0.00000    -0.00000    -0.00000
  Hartree   363.38144   363.38144   363.38144    -0.00000    -0.00000    -0.00000
  E(xc)    -179.79685  -179.79685  -179.79685    -0.00000     0.00000     0.00000
  Local     289.66697   289.66697   289.66697    -0.00000    -0.00000     0.00000
  n-local   -60.31219   -54.13305   -50.47011     2.73430    -1.47055     0.57704
  augment   285.36026   285.36026   285.36026     0.00000     0.00000     0.00000
  Kinetic   283.91213   282.59076   281.92049     2.96948    -0.72850     0.04417
  Fock        0.00000     0.00000     0.00000     0.00000     0.00000     0.00000
  -------------------------------------------------------------------------------------
  Total      -0.20187    -0.20187    -0.20187     0.00000     0.00000     0.00000
  in kB     -14.11883   -14.11883   -14.11883     0.00000     0.00000     0.00000
  external pressure =      -14.12 kB  Pullay stress =        0.00 kB


 VOLUME and BASIS-vectors are now :
 -----------------------------------------------------------------------------
  energy-cutoff  :      920.00
  volume of cell :       22.91
      direct lattice vectors                 reciprocal lattice vectors
     2.840052000  0.000000000  0.000000000     0.352106229  0.000000000  0.000000000
     0.000000000  2.840052000  0.000000000     0.000000000  0.352106229  0.000000000
     0.000000000  0.000000000  2.840052000     0.000000000  0.000000000  0.352106229

  length of vectors
     2.840052000  2.840052000  2.840052000     0.352106229  0.352106229  0.352106229


 FORCES acting on ions
    electron-ion (+dipol)            ewald-force                    non-local-force                 convergence-correction
 -----------------------------------------------------------------------------------------------
   0.221E-13 -.248E-13 -.512E-13   -.529E-15 -.103E-14 -.897E-14   0.000E+00 0.000E+00 0.000E+00   0.256E-14 -.184E-14 0.273E-14
   0.838E-12 0.748E-11 0.864E-11   0.472E-14 0.447E-14 0.926E-14   0.485E-26 0.000E+00 0.000E+00   0.638E-13 -.153E-14 -.865E-13
 -----------------------------------------------------------------------------------------------
   0.860E-12 0.746E-11 0.859E-11   0.419E-14 0.343E-14 0.284E-15   0.485E-26 0.000E+00 0.000E+00   0.663E-13 -.336E-14 -.837E-13
 
 
 POSITION                                       TOTAL-FORCE (eV/Angst)
 -----------------------------------------------------------------------------------
      0.00000      0.00000      0.00000        -0.000000     -0.000000     -0.000000
      1.42003      1.42003      1.42003         0.000000      0.000000      0.000000
 -----------------------------------------------------------------------------------
    total drift:                                0.000000      0.000000      0.000000


--------------------------------------------------------------------------------------------------------



  FREE ENERGIE OF THE ION-ELECTRON SYSTEM (eV)
  ---------------------------------------------------
  free  energy   TOTEN  =       -16.51564119 eV

  energy  without entropy=      -16.51564119  energy(sigma->0) =      -16.51564119
 


--------------------------------------------------------------------------------------------------------


    POTLOK:  cpu time    0.0156: real time    0.0160


--------------------------------------------------------------------------------------------------------


     LOOP+:  cpu time   56.2864: real time   56.4495
    4ORBIT:  cpu time    0.0000: real time    0.0000
 


 total charge     
 
# of ion       s       p       d       tot
------------------------------------------
    1        0.385   6.377   6.077  12.838
    2        0.385   6.377   6.077  12.838
--------------------------------------------------
tot          0.769  12.754  12.153  25.676
 


 magnetization (x)
 
# of ion       s       p       d       tot
------------------------------------------
    1       -0.008  -0.039   2.298   2.251
    2       -0.008  -0.039   2.298   2.251
--------------------------------------------------
tot         -0.016  -0.078   4.596   4.502
 
 BZINTS: Fermi energy:  9.631356; 28.000000 electrons
         Band energy:-399.083308;  BLOECHL correction: -0.015823

 total amount of memory used by VASP MPI-rank0    43577. kBytes
=======================================================================

   base      :      30000. kBytes
   nonlr-proj:        945. kBytes
   fftplans  :        478. kBytes
   grid      :       1141. kBytes
   one-center:         31. kBytes
   wavefun   :      10982. kBytes
 
  
  
 General timing and accounting informations for this job:
 ========================================================
  
                  Total CPU time used (sec):       58.903
                            User time (sec):       58.174
                          System time (sec):        0.729
                         Elapsed time (sec):       59.121
  
                   Maximum memory used (kb):       81244.
                   Average memory used (kb):           0.
  
                          Minor page faults:        31643
                          Major page faults:            0
                 Voluntary context switches:          200
