<?xml version="1.0" encoding="ISO-8859-1"?>
<modeling>
 <generator>
  <i name="program" type="string">vasp </i>
  <i name="version" type="string">5.4.4.18Apr17-6-g9f103f2a35  </i>
  <i name="subversion" type="string">(build Apr 28 2018 00:24:27) complex            parallel </i>
  <i name="platform" type="string">LinuxIFC </i>
  <i name="date" type="string">2021 09 07 </i>
  <i name="time" type="string">01:12:10 </i>
 </generator>
 <incar>
  <i type="string" name="PREC">accurate</i>
  <i type="string" name="ALGO"> Normal</i>
  <i type="int" name="ISPIN">     2</i>
  <i type="int" name="NELM">   100</i>
  <i type="int" name="IBRION">    -1</i>
  <i name="EDIFF">      0.00000010</i>
  <i type="int" name="NSW">     0</i>
  <i type="int" name="ISIF">     3</i>
  <i name="ENCUT">    920.00000000</i>
  <v name="MAGMOM">      5.00000000      5.00000000</v>
  <i type="string" name="LREAL"> Auto</i>
  <i type="int" name="ISMEAR">    -5</i>
  <i name="SIGMA">      0.05000000</i>
  <i type="logical" name="LWAVE"> F  </i>
  <i type="logical" name="LCHARG"> F  </i>
  <i type="logical" name="LVHAR"> F  </i>
  <i type="int" name="LORBIT">    11</i>
  <i type="logical" name="LASPH"> F  </i>
  <i type="logical" name="LAECHG"> F  </i>
  <v type="int" name="KPOINT_BSE">    -1     0     0     0</v>
  <i type="int" name="NELM">   100</i>
  <i type="logical" name="LASPH"> F  </i>
  <i type="int" name="LMAXTAU">     0</i>
 </incar>
 <structure name="primitive_cell" >
  <crystal>
   <varray name="basis" >
    <v>       1.42002600       1.42002600       1.42002600 </v>
    <v>       1.42002600      -1.42002600      -1.42002600 </v>
    <v>      -1.42002600       1.42002600      -1.42002600 </v>
   </varray>
   <i name="volume">     11.45378113 </i>
   <varray name="rec_basis" >
    <v>       0.35210623       0.35210623       0.00000000 </v>
    <v>       0.35210623       0.00000000      -0.35210623 </v>
    <v>       0.00000000       0.35210623      -0.35210623 </v>
   </varray>
  </crystal>
  <varray name="positions" >
   <v>       0.00000000       0.00000000       0.00000000 </v>
  </varray>
 </structure>
 <varray name="primitive_index" >
  <v type="int" >        1 </v>
 </varray>
 <kpoints>
  <generation param="Auto">
   <i name="subdivisionlength">     50.00000000 </i>
   <v type="int" name="divisions">      18       18       18 </v>
   <v name="usershift">      0.00000000       0.00000000       0.00000000 </v>
   <v name="genvec1">      0.05555556       0.00000000       0.00000000 </v>
   <v name="genvec2">      0.00000000       0.05555556       0.00000000 </v>
   <v name="genvec3">      0.00000000       0.00000000       0.05555556 </v>
   <v name="shift">      0.00000000       0.00000000       0.00000000 </v>
  </generation>
  <varray name="kpointlist" >
   <v>       0.00000000       0.00000000       0.00000000 </v>
   <v>       0.05555556       0.00000000       0.00000000 </v>
   <v>       0.11111111       0.00000000       0.00000000 </v>
   <v>       0.16666667       0.00000000       0.00000000 </v>
   <v>       0.22222222       0.00000000       0.00000000 </v>
   <v>       0.27777778       0.00000000       0.00000000 </v>
   <v>       0.33333333       0.00000000       0.00000000 </v>
   <v>       0.38888889       0.00000000       0.00000000 </v>
   <v>       0.44444444       0.00000000       0.00000000 </v>
   <v>       0.50000000       0.00000000       0.00000000 </v>
   <v>       0.05555556       0.05555556       0.00000000 </v>
   <v>       0.11111111       0.05555556       0.00000000 </v>
   <v>       0.16666667       0.05555556       0.00000000 </v>
   <v>       0.22222222       0.05555556       0.00000000 </v>
   <v>       0.27777778       0.05555556       0.00000000 </v>
   <v>       0.33333333       0.05555556       0.00000000 </v>
   <v>       0.38888889       0.05555556       0.00000000 </v>
   <v>       0.44444444       0.05555556       0.00000000 </v>
   <v>       0.50000000       0.05555556       0.00000000 </v>
   <v>       0.11111111       0.11111111       0.00000000 </v>
   <v>       0.16666667       0.11111111       0.00000000 </v>
   <v>       0.22222222       0.11111111       0.00000000 </v>
   <v>       0.27777778       0.11111111       0.00000000 </v>
   <v>       0.33333333       0.11111111       0.00000000 </v>
   <v>       0.38888889       0.11111111       0.00000000 </v>
   <v>       0.44444444       0.11111111       0.00000000 </v>
   <v>       0.50000000       0.11111111       0.00000000 </v>
   <v>       0.16666667       0.16666667       0.00000000 </v>
   <v>       0.22222222       0.16666667       0.00000000 </v>
   <v>       0.27777778       0.16666667       0.00000000 </v>
   <v>       0.33333333       0.16666667       0.00000000 </v>
   <v>       0.38888889       0.16666667       0.00000000 </v>
   <v>       0.44444444       0.16666667       0.00000000 </v>
   <v>       0.50000000       0.16666667       0.00000000 </v>
   <v>       0.22222222       0.22222222       0.00000000 </v>
   <v>       0.27777778       0.22222222       0.00000000 </v>
   <v>       0.33333333       0.22222222       0.00000000 </v>
   <v>       0.38888889       0.22222222       0.00000000 </v>
   <v>       0.44444444       0.22222222       0.00000000 </v>
   <v>       0.50000000       0.22222222       0.00000000 </v>
   <v>       0.27777778       0.27777778       0.00000000 </v>
   <v>       0.33333333       0.27777778       0.00000000 </v>
   <v>       0.38888889       0.27777778       0.00000000 </v>
   <v>       0.44444444       0.27777778       0.00000000 </v>
   <v>       0.50000000       0.27777778       0.00000000 </v>
   <v>       0.33333333       0.33333333       0.00000000 </v>
   <v>       0.38888889       0.33333333       0.00000000 </v>
   <v>       0.44444444       0.33333333       0.00000000 </v>
   <v>       0.50000000       0.33333333       0.00000000 </v>
   <v>       0.38888889       0.38888889       0.00000000 </v>
   <v>       0.44444444       0.38888889       0.00000000 </v>
   <v>       0.50000000       0.38888889       0.00000000 </v>
   <v>       0.44444444       0.44444444       0.00000000 </v>
   <v>       0.50000000       0.44444444       0.00000000 </v>
   <v>       0.50000000       0.50000000       0.00000000 </v>
   <v>       0.05555556       0.05555556       0.05555556 </v>
   <v>       0.11111111       0.05555556       0.05555556 </v>
   <v>       0.16666667       0.05555556       0.05555556 </v>
   <v>       0.22222222       0.05555556       0.05555556 </v>
   <v>       0.27777778       0.05555556       0.05555556 </v>
   <v>       0.33333333       0.05555556       0.05555556 </v>
   <v>       0.38888889       0.05555556       0.05555556 </v>
   <v>       0.44444444       0.05555556       0.05555556 </v>
   <v>       0.50000000       0.05555556       0.05555556 </v>
   <v>       0.11111111       0.11111111       0.05555556 </v>
   <v>       0.16666667       0.11111111       0.05555556 </v>
   <v>       0.22222222       0.11111111       0.05555556 </v>
   <v>       0.27777778       0.11111111       0.05555556 </v>
   <v>       0.33333333       0.11111111       0.05555556 </v>
   <v>       0.38888889       0.11111111       0.05555556 </v>
   <v>       0.44444444       0.11111111       0.05555556 </v>
   <v>       0.50000000       0.11111111       0.05555556 </v>
   <v>       0.16666667       0.16666667       0.05555556 </v>
   <v>       0.22222222       0.16666667       0.05555556 </v>
   <v>       0.27777778       0.16666667       0.05555556 </v>
   <v>       0.33333333       0.16666667       0.05555556 </v>
   <v>       0.38888889       0.16666667       0.05555556 </v>
   <v>       0.44444444       0.16666667       0.05555556 </v>
   <v>       0.50000000       0.16666667       0.05555556 </v>
   <v>       0.22222222       0.22222222       0.05555556 </v>
   <v>       0.27777778       0.22222222       0.05555556 </v>
   <v>       0.33333333       0.22222222       0.05555556 </v>
   <v>       0.38888889       0.22222222       0.05555556 </v>
   <v>       0.44444444       0.22222222       0.05555556 </v>
   <v>       0.50000000       0.22222222       0.05555556 </v>
   <v>       0.27777778       0.27777778       0.05555556 </v>
   <v>       0.33333333       0.27777778       0.05555556 </v>
   <v>       0.38888889       0.27777778       0.05555556 </v>
   <v>       0.44444444       0.27777778       0.05555556 </v>
   <v>       0.50000000       0.27777778       0.05555556 </v>
   <v>       0.33333333       0.33333333       0.05555556 </v>
   <v>       0.38888889       0.33333333       0.05555556 </v>
   <v>       0.44444444       0.33333333       0.05555556 </v>
   <v>       0.50000000       0.33333333       0.05555556 </v>
   <v>       0.38888889       0.38888889       0.05555556 </v>
   <v>       0.44444444       0.38888889       0.05555556 </v>
   <v>       0.50000000       0.38888889       0.05555556 </v>
   <v>       0.44444444       0.44444444       0.05555556 </v>
   <v>       0.50000000       0.44444444       0.05555556 </v>
   <v>       0.50000000       0.50000000       0.05555556 </v>
   <v>       0.11111111       0.11111111       0.11111111 </v>
   <v>       0.16666667       0.11111111       0.11111111 </v>
   <v>       0.22222222       0.11111111       0.11111111 </v>
   <v>       0.27777778       0.11111111       0.11111111 </v>
   <v>       0.33333333       0.11111111       0.11111111 </v>
   <v>       0.38888889       0.11111111       0.11111111 </v>
   <v>       0.44444444       0.11111111       0.11111111 </v>
   <v>       0.50000000       0.11111111       0.11111111 </v>
   <v>       0.16666667       0.16666667       0.11111111 </v>
   <v>       0.22222222       0.16666667       0.11111111 </v>
   <v>       0.27777778       0.16666667       0.11111111 </v>
   <v>       0.33333333       0.16666667       0.11111111 </v>
   <v>       0.38888889       0.16666667       0.11111111 </v>
   <v>       0.44444444       0.16666667       0.11111111 </v>
   <v>       0.50000000       0.16666667       0.11111111 </v>
   <v>       0.22222222       0.22222222       0.11111111 </v>
   <v>       0.27777778       0.22222222       0.11111111 </v>
   <v>       0.33333333       0.22222222       0.11111111 </v>
   <v>       0.38888889       0.22222222       0.11111111 </v>
   <v>       0.44444444       0.22222222       0.11111111 </v>
   <v>       0.50000000       0.22222222       0.11111111 </v>
   <v>       0.27777778       0.27777778       0.11111111 </v>
   <v>       0.33333333       0.27777778       0.11111111 </v>
   <v>       0.38888889       0.27777778       0.11111111 </v>
   <v>       0.44444444       0.27777778       0.11111111 </v>
   <v>       0.50000000       0.27777778       0.11111111 </v>
   <v>       0.33333333       0.33333333       0.11111111 </v>
   <v>       0.38888889       0.33333333       0.11111111 </v>
   <v>       0.44444444       0.33333333       0.11111111 </v>
   <v>       0.50000000       0.33333333       0.11111111 </v>
   <v>       0.38888889       0.38888889       0.11111111 </v>
   <v>       0.44444444       0.38888889       0.11111111 </v>
   <v>       0.50000000       0.38888889       0.11111111 </v>
   <v>       0.44444444       0.44444444       0.11111111 </v>
   <v>       0.50000000       0.44444444       0.11111111 </v>
   <v>       0.50000000       0.50000000       0.11111111 </v>
   <v>       0.16666667       0.16666667       0.16666667 </v>
   <v>       0.22222222       0.16666667       0.16666667 </v>
   <v>       0.27777778       0.16666667       0.16666667 </v>
   <v>       0.33333333       0.16666667       0.16666667 </v>
   <v>       0.38888889       0.16666667       0.16666667 </v>
   <v>       0.44444444       0.16666667       0.16666667 </v>
   <v>       0.50000000       0.16666667       0.16666667 </v>
   <v>       0.22222222       0.22222222       0.16666667 </v>
   <v>       0.27777778       0.22222222       0.16666667 </v>
   <v>       0.33333333       0.22222222       0.16666667 </v>
   <v>       0.38888889       0.22222222       0.16666667 </v>
   <v>       0.44444444       0.22222222       0.16666667 </v>
   <v>       0.50000000       0.22222222       0.16666667 </v>
   <v>       0.27777778       0.27777778       0.16666667 </v>
   <v>       0.33333333       0.27777778       0.16666667 </v>
   <v>       0.38888889       0.27777778       0.16666667 </v>
   <v>       0.44444444       0.27777778       0.16666667 </v>
   <v>       0.50000000       0.27777778       0.16666667 </v>
   <v>       0.33333333       0.33333333       0.16666667 </v>
   <v>       0.38888889       0.33333333       0.16666667 </v>
   <v>       0.44444444       0.33333333       0.16666667 </v>
   <v>       0.50000000       0.33333333       0.16666667 </v>
   <v>       0.38888889       0.38888889       0.16666667 </v>
   <v>       0.44444444       0.38888889       0.16666667 </v>
   <v>       0.50000000       0.38888889       0.16666667 </v>
   <v>       0.44444444       0.44444444       0.16666667 </v>
   <v>       0.50000000       0.44444444       0.16666667 </v>
   <v>       0.50000000       0.50000000       0.16666667 </v>
   <v>       0.22222222       0.22222222       0.22222222 </v>
   <v>       0.27777778       0.22222222       0.22222222 </v>
   <v>       0.33333333       0.22222222       0.22222222 </v>
   <v>       0.38888889       0.22222222       0.22222222 </v>
   <v>       0.44444444       0.22222222       0.22222222 </v>
   <v>       0.50000000       0.22222222       0.22222222 </v>
   <v>       0.27777778       0.27777778       0.22222222 </v>
   <v>       0.33333333       0.27777778       0.22222222 </v>
   <v>       0.38888889       0.27777778       0.22222222 </v>
   <v>       0.44444444       0.27777778       0.22222222 </v>
   <v>       0.50000000       0.27777778       0.22222222 </v>
   <v>       0.33333333       0.33333333       0.22222222 </v>
   <v>       0.38888889       0.33333333       0.22222222 </v>
   <v>       0.44444444       0.33333333       0.22222222 </v>
   <v>       0.50000000       0.33333333       0.22222222 </v>
   <v>       0.38888889       0.38888889       0.22222222 </v>
   <v>       0.44444444       0.38888889       0.22222222 </v>
   <v>       0.50000000       0.38888889       0.22222222 </v>
   <v>       0.44444444       0.44444444       0.22222222 </v>
   <v>       0.50000000       0.44444444       0.22222222 </v>
   <v>       0.50000000       0.50000000       0.22222222 </v>
   <v>       0.27777778       0.27777778       0.27777778 </v>
   <v>       0.33333333       0.27777778       0.27777778 </v>
   <v>       0.38888889       0.27777778       0.27777778 </v>
   <v>       0.44444444       0.27777778       0.27777778 </v>
   <v>       0.50000000       0.27777778       0.27777778 </v>
   <v>       0.33333333       0.33333333       0.27777778 </v>
   <v>       0.38888889       0.33333333       0.27777778 </v>
   <v>       0.44444444       0.33333333       0.27777778 </v>
   <v>       0.50000000       0.33333333       0.27777778 </v>
   <v>       0.38888889       0.38888889       0.27777778 </v>
   <v>       0.44444444       0.38888889       0.27777778 </v>
   <v>       0.50000000       0.38888889       0.27777778 </v>
   <v>       0.44444444       0.44444444       0.27777778 </v>
   <v>       0.50000000       0.44444444       0.27777778 </v>
   <v>       0.50000000       0.50000000       0.27777778 </v>
   <v>       0.33333333       0.33333333       0.33333333 </v>
   <v>       0.38888889       0.33333333       0.33333333 </v>
   <v>       0.44444444       0.33333333       0.33333333 </v>
   <v>       0.50000000       0.33333333       0.33333333 </v>
   <v>       0.38888889       0.38888889       0.33333333 </v>
   <v>       0.44444444       0.38888889       0.33333333 </v>
   <v>       0.50000000       0.38888889       0.33333333 </v>
   <v>       0.44444444       0.44444444       0.33333333 </v>
   <v>       0.50000000       0.44444444       0.33333333 </v>
   <v>       0.50000000       0.50000000       0.33333333 </v>
   <v>       0.38888889       0.38888889       0.38888889 </v>
   <v>       0.44444444       0.38888889       0.38888889 </v>
   <v>       0.50000000       0.38888889       0.38888889 </v>
   <v>       0.44444444       0.44444444       0.38888889 </v>
   <v>       0.50000000       0.44444444       0.38888889 </v>
   <v>       0.50000000       0.50000000       0.38888889 </v>
   <v>       0.44444444       0.44444444       0.44444444 </v>
   <v>       0.50000000       0.44444444       0.44444444 </v>
   <v>       0.50000000       0.50000000       0.44444444 </v>
   <v>       0.50000000       0.50000000       0.50000000 </v>
  </varray>
  <varray name="weights" >
   <v>       0.00017147 </v>
   <v>       0.00102881 </v>
   <v>       0.00102881 </v>
   <v>       0.00102881 </v>
   <v>       0.00102881 </v>
   <v>       0.00102881 </v>
   <v>       0.00102881 </v>
   <v>       0.00102881 </v>
   <v>       0.00102881 </v>
   <v>       0.00051440 </v>
   <v>       0.00205761 </v>
   <v>       0.00411523 </v>
   <v>       0.00411523 </v>
   <v>       0.00411523 </v>
   <v>       0.00411523 </v>
   <v>       0.00411523 </v>
   <v>       0.00411523 </v>
   <v>       0.00411523 </v>
   <v>       0.00205761 </v>
   <v>       0.00205761 </v>
   <v>       0.00411523 </v>
   <v>       0.00411523 </v>
   <v>       0.00411523 </v>
   <v>       0.00411523 </v>
   <v>       0.00411523 </v>
   <v>       0.00411523 </v>
   <v>       0.00205761 </v>
   <v>       0.00205761 </v>
   <v>       0.00411523 </v>
   <v>       0.00411523 </v>
   <v>       0.00411523 </v>
   <v>       0.00411523 </v>
   <v>       0.00411523 </v>
   <v>       0.00205761 </v>
   <v>       0.00205761 </v>
   <v>       0.00411523 </v>
   <v>       0.00411523 </v>
   <v>       0.00411523 </v>
   <v>       0.00411523 </v>
   <v>       0.00205761 </v>
   <v>       0.00205761 </v>
   <v>       0.00411523 </v>
   <v>       0.00411523 </v>
   <v>       0.00411523 </v>
   <v>       0.00205761 </v>
   <v>       0.00205761 </v>
   <v>       0.00411523 </v>
   <v>       0.00411523 </v>
   <v>       0.00205761 </v>
   <v>       0.00205761 </v>
   <v>       0.00411523 </v>
   <v>       0.00205761 </v>
   <v>       0.00205761 </v>
   <v>       0.00205761 </v>
   <v>       0.00051440 </v>
   <v>       0.00137174 </v>
   <v>       0.00411523 </v>
   <v>       0.00411523 </v>
   <v>       0.00411523 </v>
   <v>       0.00411523 </v>
   <v>       0.00411523 </v>
   <v>       0.00411523 </v>
   <v>       0.00411523 </v>
   <v>       0.00205761 </v>
   <v>       0.00411523 </v>
   <v>       0.00823045 </v>
   <v>       0.00823045 </v>
   <v>       0.00823045 </v>
   <v>       0.00823045 </v>
   <v>       0.00823045 </v>
   <v>       0.00823045 </v>
   <v>       0.00411523 </v>
   <v>       0.00411523 </v>
   <v>       0.00823045 </v>
   <v>       0.00823045 </v>
   <v>       0.00823045 </v>
   <v>       0.00823045 </v>
   <v>       0.00823045 </v>
   <v>       0.00411523 </v>
   <v>       0.00411523 </v>
   <v>       0.00823045 </v>
   <v>       0.00823045 </v>
   <v>       0.00823045 </v>
   <v>       0.00823045 </v>
   <v>       0.00411523 </v>
   <v>       0.00411523 </v>
   <v>       0.00823045 </v>
   <v>       0.00823045 </v>
   <v>       0.00823045 </v>
   <v>       0.00411523 </v>
   <v>       0.00411523 </v>
   <v>       0.00823045 </v>
   <v>       0.00823045 </v>
   <v>       0.00411523 </v>
   <v>       0.00411523 </v>
   <v>       0.00823045 </v>
   <v>       0.00411523 </v>
   <v>       0.00411523 </v>
   <v>       0.00411523 </v>
   <v>       0.00102881 </v>
   <v>       0.00137174 </v>
   <v>       0.00411523 </v>
   <v>       0.00411523 </v>
   <v>       0.00411523 </v>
   <v>       0.00411523 </v>
   <v>       0.00411523 </v>
   <v>       0.00411523 </v>
   <v>       0.00205761 </v>
   <v>       0.00411523 </v>
   <v>       0.00823045 </v>
   <v>       0.00823045 </v>
   <v>       0.00823045 </v>
   <v>       0.00823045 </v>
   <v>       0.00823045 </v>
   <v>       0.00411523 </v>
   <v>       0.00411523 </v>
   <v>       0.00823045 </v>
   <v>       0.00823045 </v>
   <v>       0.00823045 </v>
   <v>       0.00823045 </v>
   <v>       0.00411523 </v>
   <v>       0.00411523 </v>
   <v>       0.00823045 </v>
   <v>       0.00823045 </v>
   <v>       0.00823045 </v>
   <v>       0.00411523 </v>
   <v>       0.00411523 </v>
   <v>       0.00823045 </v>
   <v>       0.00823045 </v>
   <v>       0.00411523 </v>
   <v>       0.00411523 </v>
   <v>       0.00823045 </v>
   <v>       0.00411523 </v>
   <v>       0.00411523 </v>
   <v>       0.00411523 </v>
   <v>       0.00102881 </v>
   <v>       0.00137174 </v>
   <v>       0.00411523 </v>
   <v>       0.00411523 </v>
   <v>       0.00411523 </v>
   <v>       0.00411523 </v>
   <v>       0.00411523 </v>
   <v>       0.00205761 </v>
   <v>       0.00411523 </v>
   <v>       0.00823045 </v>
   <v>       0.00823045 </v>
   <v>       0.00823045 </v>
   <v>       0.00823045 </v>
   <v>       0.00411523 </v>
   <v>       0.00411523 </v>
   <v>       0.00823045 </v>
   <v>       0.00823045 </v>
   <v>       0.00823045 </v>
   <v>       0.00411523 </v>
   <v>       0.00411523 </v>
   <v>       0.00823045 </v>
   <v>       0.00823045 </v>
   <v>       0.00411523 </v>
   <v>       0.00411523 </v>
   <v>       0.00823045 </v>
   <v>       0.00411523 </v>
   <v>       0.00411523 </v>
   <v>       0.00411523 </v>
   <v>       0.00102881 </v>
   <v>       0.00137174 </v>
   <v>       0.00411523 </v>
   <v>       0.00411523 </v>
   <v>       0.00411523 </v>
   <v>       0.00411523 </v>
   <v>       0.00205761 </v>
   <v>       0.00411523 </v>
   <v>       0.00823045 </v>
   <v>       0.00823045 </v>
   <v>       0.00823045 </v>
   <v>       0.00411523 </v>
   <v>       0.00411523 </v>
   <v>       0.00823045 </v>
   <v>       0.00823045 </v>
   <v>       0.00411523 </v>
   <v>       0.00411523 </v>
   <v>       0.00823045 </v>
   <v>       0.00411523 </v>
   <v>       0.00411523 </v>
   <v>       0.00411523 </v>
   <v>       0.00102881 </v>
   <v>       0.00137174 </v>
   <v>       0.00411523 </v>
   <v>       0.00411523 </v>
   <v>       0.00411523 </v>
   <v>       0.00205761 </v>
   <v>       0.00411523 </v>
   <v>       0.00823045 </v>
   <v>       0.00823045 </v>
   <v>       0.00411523 </v>
   <v>       0.00411523 </v>
   <v>       0.00823045 </v>
   <v>       0.00411523 </v>
   <v>       0.00411523 </v>
   <v>       0.00411523 </v>
   <v>       0.00102881 </v>
   <v>       0.00137174 </v>
   <v>       0.00411523 </v>
   <v>       0.00411523 </v>
   <v>       0.00205761 </v>
   <v>       0.00411523 </v>
   <v>       0.00823045 </v>
   <v>       0.00411523 </v>
   <v>       0.00411523 </v>
   <v>       0.00411523 </v>
   <v>       0.00102881 </v>
   <v>       0.00137174 </v>
   <v>       0.00411523 </v>
   <v>       0.00205761 </v>
   <v>       0.00411523 </v>
   <v>       0.00411523 </v>
   <v>       0.00102881 </v>
   <v>       0.00137174 </v>
   <v>       0.00205761 </v>
   <v>       0.00102881 </v>
   <v>       0.00017147 </v>
  </varray>
  <varray name="tetrahedronlist"  type="int" >
   <v type="int" >       12        1        2        2       11 </v>
   <v type="int" >       12        2        2       11       11 </v>
   <v type="int" >       12        2       11       11       56 </v>
   <v type="int" >       12        2        3       11       12 </v>
   <v type="int" >       12        2       11       11       12 </v>
   <v type="int" >       12       11       11       12       56 </v>
   <v type="int" >       12        3       11       12       12 </v>
   <v type="int" >       24       11       12       12       57 </v>
   <v type="int" >       24       11       12       56       57 </v>
   <v type="int" >       12        3        4       12       13 </v>
   <v type="int" >       12        3       12       12       13 </v>
   <v type="int" >       12       12       12       13       57 </v>
   <v type="int" >       12        4       12       13       13 </v>
   <v type="int" >       12       12       13       13       58 </v>
   <v type="int" >       12       12       13       57       58 </v>
   <v type="int" >       12        4        5       13       14 </v>
   <v type="int" >       12        4       13       13       14 </v>
   <v type="int" >       12       13       13       14       58 </v>
   <v type="int" >       12        5       13       14       14 </v>
   <v type="int" >       12       13       14       14       59 </v>
   <v type="int" >       12       13       14       58       59 </v>
   <v type="int" >       12        5        6       14       15 </v>
   <v type="int" >       12        5       14       14       15 </v>
   <v type="int" >       12       14       14       15       59 </v>
   <v type="int" >       12        6       14       15       15 </v>
   <v type="int" >       12       14       15       15       60 </v>
   <v type="int" >       12       14       15       59       60 </v>
   <v type="int" >       12        6        7       15       16 </v>
   <v type="int" >       12        6       15       15       16 </v>
   <v type="int" >       12       15       15       16       60 </v>
   <v type="int" >       12        7       15       16       16 </v>
   <v type="int" >       12       15       16       16       61 </v>
   <v type="int" >       12       15       16       60       61 </v>
   <v type="int" >       12        7        8       16       17 </v>
   <v type="int" >       12        7       16       16       17 </v>
   <v type="int" >       12       16       16       17       61 </v>
   <v type="int" >       12        8       16       17       17 </v>
   <v type="int" >       12       16       17       17       62 </v>
   <v type="int" >       12       16       17       61       62 </v>
   <v type="int" >       12        8        9       17       18 </v>
   <v type="int" >       12        8       17       17       18 </v>
   <v type="int" >       12       17       17       18       62 </v>
   <v type="int" >       12        9       17       18       18 </v>
   <v type="int" >       12       17       18       18       63 </v>
   <v type="int" >       12       17       18       62       63 </v>
   <v type="int" >       12        9       10       18       19 </v>
   <v type="int" >       12        9       18       18       19 </v>
   <v type="int" >       12       18       18       19       63 </v>
   <v type="int" >       12       10       18       19       19 </v>
   <v type="int" >       12       18       19       19       64 </v>
   <v type="int" >       12       18       19       63       64 </v>
   <v type="int" >       12       11       12       20       56 </v>
   <v type="int" >       12       12       20       56       57 </v>
   <v type="int" >       12       20       56       57       65 </v>
   <v type="int" >       12       12       13       21       57 </v>
   <v type="int" >       12       12       20       21       57 </v>
   <v type="int" >       12       20       21       57       65 </v>
   <v type="int" >       12       13       21       57       58 </v>
   <v type="int" >       12       21       57       58       66 </v>
   <v type="int" >       12       21       57       65       66 </v>
   <v type="int" >       12       13       14       22       58 </v>
   <v type="int" >       12       13       21       22       58 </v>
   <v type="int" >       12       21       22       58       66 </v>
   <v type="int" >       12       14       22       58       59 </v>
   <v type="int" >       12       22       58       59       67 </v>
   <v type="int" >       12       22       58       66       67 </v>
   <v type="int" >       12       14       15       23       59 </v>
   <v type="int" >       12       14       22       23       59 </v>
   <v type="int" >       12       22       23       59       67 </v>
   <v type="int" >       12       15       23       59       60 </v>
   <v type="int" >       12       23       59       60       68 </v>
   <v type="int" >       12       23       59       67       68 </v>
   <v type="int" >       12       15       16       24       60 </v>
   <v type="int" >       12       15       23       24       60 </v>
   <v type="int" >       12       23       24       60       68 </v>
   <v type="int" >       12       16       24       60       61 </v>
   <v type="int" >       12       24       60       61       69 </v>
   <v type="int" >       12       24       60       68       69 </v>
   <v type="int" >       12       16       17       25       61 </v>
   <v type="int" >       12       16       24       25       61 </v>
   <v type="int" >       12       24       25       61       69 </v>
   <v type="int" >       12       17       25       61       62 </v>
   <v type="int" >       12       25       61       62       70 </v>
   <v type="int" >       12       25       61       69       70 </v>
   <v type="int" >       12       17       18       26       62 </v>
   <v type="int" >       12       17       25       26       62 </v>
   <v type="int" >       12       25       26       62       70 </v>
   <v type="int" >       12       18       26       62       63 </v>
   <v type="int" >       12       26       62       63       71 </v>
   <v type="int" >       12       26       62       70       71 </v>
   <v type="int" >       12       18       19       27       63 </v>
   <v type="int" >       12       18       26       27       63 </v>
   <v type="int" >       12       26       27       63       71 </v>
   <v type="int" >       12       19       27       63       64 </v>
   <v type="int" >       12       27       63       64       72 </v>
   <v type="int" >       12       27       63       71       72 </v>
   <v type="int" >       12       18       19       26       64 </v>
   <v type="int" >       12       19       26       27       64 </v>
   <v type="int" >       12       26       27       64       72 </v>
   <v type="int" >       12       18       26       63       64 </v>
   <v type="int" >       12       26       63       64       71 </v>
   <v type="int" >       12       26       64       71       72 </v>
   <v type="int" >       12       17       18       25       63 </v>
   <v type="int" >       12       18       25       26       63 </v>
   <v type="int" >       12       25       26       63       71 </v>
   <v type="int" >       12       17       25       62       63 </v>
   <v type="int" >       12       25       62       63       70 </v>
   <v type="int" >       12       25       63       70       71 </v>
   <v type="int" >       12       16       17       24       62 </v>
   <v type="int" >       12       17       24       25       62 </v>
   <v type="int" >       12       24       25       62       70 </v>
   <v type="int" >       12       16       24       61       62 </v>
   <v type="int" >       12       24       61       62       69 </v>
   <v type="int" >       12       24       62       69       70 </v>
   <v type="int" >       12       15       16       23       61 </v>
   <v type="int" >       12       16       23       24       61 </v>
   <v type="int" >       12       23       24       61       69 </v>
   <v type="int" >       12       15       23       60       61 </v>
   <v type="int" >       12       23       60       61       68 </v>
   <v type="int" >       12       23       61       68       69 </v>
   <v type="int" >       12       14       15       22       60 </v>
   <v type="int" >       12       15       22       23       60 </v>
   <v type="int" >       12       22       23       60       68 </v>
   <v type="int" >       12       14       22       59       60 </v>
   <v type="int" >       12       22       59       60       67 </v>
   <v type="int" >       12       22       60       67       68 </v>
   <v type="int" >       12       13       14       21       59 </v>
   <v type="int" >       12       14       21       22       59 </v>
   <v type="int" >       12       21       22       59       67 </v>
   <v type="int" >       12       13       21       58       59 </v>
   <v type="int" >       12       21       58       59       66 </v>
   <v type="int" >       12       21       59       66       67 </v>
   <v type="int" >       12       12       13       20       58 </v>
   <v type="int" >       12       13       20       21       58 </v>
   <v type="int" >       12       20       21       58       66 </v>
   <v type="int" >       12       12       20       57       58 </v>
   <v type="int" >       12       20       57       58       65 </v>
   <v type="int" >       12       20       58       65       66 </v>
   <v type="int" >       12       12       12       20       57 </v>
   <v type="int" >       12       12       20       57       65 </v>
   <v type="int" >       12       12       56       57       57 </v>
   <v type="int" >       12       12       57       57       65 </v>
   <v type="int" >       12        2        3       11       56 </v>
   <v type="int" >       12        3       11       12       56 </v>
   <v type="int" >       12        3       12       56       57 </v>
   <v type="int" >       12       20       21       28       65 </v>
   <v type="int" >       12       21       28       65       66 </v>
   <v type="int" >       12       28       65       66       73 </v>
   <v type="int" >       12       21       22       29       66 </v>
   <v type="int" >       12       21       28       29       66 </v>
   <v type="int" >       12       28       29       66       73 </v>
   <v type="int" >       12       22       29       66       67 </v>
   <v type="int" >       12       29       66       67       74 </v>
   <v type="int" >       12       29       66       73       74 </v>
   <v type="int" >       12       22       23       30       67 </v>
   <v type="int" >       12       22       29       30       67 </v>
   <v type="int" >       12       29       30       67       74 </v>
   <v type="int" >       12       23       30       67       68 </v>
   <v type="int" >       12       30       67       68       75 </v>
   <v type="int" >       12       30       67       74       75 </v>
   <v type="int" >       12       23       24       31       68 </v>
   <v type="int" >       12       23       30       31       68 </v>
   <v type="int" >       12       30       31       68       75 </v>
   <v type="int" >       12       24       31       68       69 </v>
   <v type="int" >       12       31       68       69       76 </v>
   <v type="int" >       12       31       68       75       76 </v>
   <v type="int" >       12       24       25       32       69 </v>
   <v type="int" >       12       24       31       32       69 </v>
   <v type="int" >       12       31       32       69       76 </v>
   <v type="int" >       12       25       32       69       70 </v>
   <v type="int" >       12       32       69       70       77 </v>
   <v type="int" >       12       32       69       76       77 </v>
   <v type="int" >       12       25       26       33       70 </v>
   <v type="int" >       12       25       32       33       70 </v>
   <v type="int" >       12       32       33       70       77 </v>
   <v type="int" >       12       26       33       70       71 </v>
   <v type="int" >       12       33       70       71       78 </v>
   <v type="int" >       12       33       70       77       78 </v>
   <v type="int" >       12       26       27       34       71 </v>
   <v type="int" >       12       26       33       34       71 </v>
   <v type="int" >       12       33       34       71       78 </v>
   <v type="int" >       12       27       34       71       72 </v>
   <v type="int" >       12       34       71       72       79 </v>
   <v type="int" >       12       34       71       78       79 </v>
   <v type="int" >       12       26       27       33       72 </v>
   <v type="int" >       12       27       33       34       72 </v>
   <v type="int" >       12       33       34       72       79 </v>
   <v type="int" >       12       26       33       71       72 </v>
   <v type="int" >       12       33       71       72       78 </v>
   <v type="int" >       12       33       72       78       79 </v>
   <v type="int" >       12       25       26       32       71 </v>
   <v type="int" >       12       26       32       33       71 </v>
   <v type="int" >       12       32       33       71       78 </v>
   <v type="int" >       12       25       32       70       71 </v>
   <v type="int" >       12       32       70       71       77 </v>
   <v type="int" >       12       32       71       77       78 </v>
   <v type="int" >       12       24       25       31       70 </v>
   <v type="int" >       12       25       31       32       70 </v>
   <v type="int" >       12       31       32       70       77 </v>
   <v type="int" >       12       24       31       69       70 </v>
   <v type="int" >       12       31       69       70       76 </v>
   <v type="int" >       12       31       70       76       77 </v>
   <v type="int" >       12       23       24       30       69 </v>
   <v type="int" >       12       24       30       31       69 </v>
   <v type="int" >       12       30       31       69       76 </v>
   <v type="int" >       12       23       30       68       69 </v>
   <v type="int" >       12       30       68       69       75 </v>
   <v type="int" >       12       30       69       75       76 </v>
   <v type="int" >       12       22       23       29       68 </v>
   <v type="int" >       12       23       29       30       68 </v>
   <v type="int" >       12       29       30       68       75 </v>
   <v type="int" >       12       22       29       67       68 </v>
   <v type="int" >       12       29       67       68       74 </v>
   <v type="int" >       12       29       68       74       75 </v>
   <v type="int" >       12       21       22       28       67 </v>
   <v type="int" >       12       22       28       29       67 </v>
   <v type="int" >       12       28       29       67       74 </v>
   <v type="int" >       12       21       28       66       67 </v>
   <v type="int" >       12       28       66       67       73 </v>
   <v type="int" >       12       28       67       73       74 </v>
   <v type="int" >       12       20       21       21       66 </v>
   <v type="int" >       12       21       21       28       66 </v>
   <v type="int" >       12       21       28       66       73 </v>
   <v type="int" >       12       20       21       65       66 </v>
   <v type="int" >       12       21       65       66       66 </v>
   <v type="int" >       12       21       66       66       73 </v>
   <v type="int" >       12       12       13       20       65 </v>
   <v type="int" >       12       13       20       21       65 </v>
   <v type="int" >       12       13       21       65       66 </v>
   <v type="int" >       12       12       13       57       65 </v>
   <v type="int" >       12       13       57       58       65 </v>
   <v type="int" >       12       13       58       65       66 </v>
   <v type="int" >       12        3        4       12       57 </v>
   <v type="int" >       12        4       12       13       57 </v>
   <v type="int" >       12        4       13       57       58 </v>
   <v type="int" >       12       28       29       35       73 </v>
   <v type="int" >       12       29       35       73       74 </v>
   <v type="int" >       12       35       73       74       80 </v>
   <v type="int" >       12       29       30       36       74 </v>
   <v type="int" >       12       29       35       36       74 </v>
   <v type="int" >       12       35       36       74       80 </v>
   <v type="int" >       12       30       36       74       75 </v>
   <v type="int" >       12       36       74       75       81 </v>
   <v type="int" >       12       36       74       80       81 </v>
   <v type="int" >       12       30       31       37       75 </v>
   <v type="int" >       12       30       36       37       75 </v>
   <v type="int" >       12       36       37       75       81 </v>
   <v type="int" >       12       31       37       75       76 </v>
   <v type="int" >       12       37       75       76       82 </v>
   <v type="int" >       12       37       75       81       82 </v>
   <v type="int" >       12       31       32       38       76 </v>
   <v type="int" >       12       31       37       38       76 </v>
   <v type="int" >       12       37       38       76       82 </v>
   <v type="int" >       12       32       38       76       77 </v>
   <v type="int" >       12       38       76       77       83 </v>
   <v type="int" >       12       38       76       82       83 </v>
   <v type="int" >       12       32       33       39       77 </v>
   <v type="int" >       12       32       38       39       77 </v>
   <v type="int" >       12       38       39       77       83 </v>
   <v type="int" >       12       33       39       77       78 </v>
   <v type="int" >       12       39       77       78       84 </v>
   <v type="int" >       12       39       77       83       84 </v>
   <v type="int" >       12       33       34       40       78 </v>
   <v type="int" >       12       33       39       40       78 </v>
   <v type="int" >       12       39       40       78       84 </v>
   <v type="int" >       12       34       40       78       79 </v>
   <v type="int" >       12       40       78       79       85 </v>
   <v type="int" >       12       40       78       84       85 </v>
   <v type="int" >       12       33       34       39       79 </v>
   <v type="int" >       12       34       39       40       79 </v>
   <v type="int" >       12       39       40       79       85 </v>
   <v type="int" >       12       33       39       78       79 </v>
   <v type="int" >       12       39       78       79       84 </v>
   <v type="int" >       12       39       79       84       85 </v>
   <v type="int" >       12       32       33       38       78 </v>
   <v type="int" >       12       33       38       39       78 </v>
   <v type="int" >       12       38       39       78       84 </v>
   <v type="int" >       12       32       38       77       78 </v>
   <v type="int" >       12       38       77       78       83 </v>
   <v type="int" >       12       38       78       83       84 </v>
   <v type="int" >       12       31       32       37       77 </v>
   <v type="int" >       12       32       37       38       77 </v>
   <v type="int" >       12       37       38       77       83 </v>
   <v type="int" >       12       31       37       76       77 </v>
   <v type="int" >       12       37       76       77       82 </v>
   <v type="int" >       12       37       77       82       83 </v>
   <v type="int" >       12       30       31       36       76 </v>
   <v type="int" >       12       31       36       37       76 </v>
   <v type="int" >       12       36       37       76       82 </v>
   <v type="int" >       12       30       36       75       76 </v>
   <v type="int" >       12       36       75       76       81 </v>
   <v type="int" >       12       36       76       81       82 </v>
   <v type="int" >       12       29       30       35       75 </v>
   <v type="int" >       12       30       35       36       75 </v>
   <v type="int" >       12       35       36       75       81 </v>
   <v type="int" >       12       29       35       74       75 </v>
   <v type="int" >       12       35       74       75       80 </v>
   <v type="int" >       12       35       75       80       81 </v>
   <v type="int" >       12       28       29       29       74 </v>
   <v type="int" >       12       29       29       35       74 </v>
   <v type="int" >       12       29       35       74       80 </v>
   <v type="int" >       12       28       29       73       74 </v>
   <v type="int" >       12       29       73       74       74 </v>
   <v type="int" >       12       29       74       74       80 </v>
   <v type="int" >       12       21       22       28       73 </v>
   <v type="int" >       12       22       28       29       73 </v>
   <v type="int" >       12       22       29       73       74 </v>
   <v type="int" >       12       21       22       66       73 </v>
   <v type="int" >       12       22       66       67       73 </v>
   <v type="int" >       12       22       67       73       74 </v>
   <v type="int" >       12       13       14       21       66 </v>
   <v type="int" >       12       14       21       22       66 </v>
   <v type="int" >       12       14       22       66       67 </v>
   <v type="int" >       12       13       14       58       66 </v>
   <v type="int" >       12       14       58       59       66 </v>
   <v type="int" >       12       14       59       66       67 </v>
   <v type="int" >       12        4        5       13       58 </v>
   <v type="int" >       12        5       13       14       58 </v>
   <v type="int" >       12        5       14       58       59 </v>
   <v type="int" >       12       35       36       41       80 </v>
   <v type="int" >       12       36       41       80       81 </v>
   <v type="int" >       12       41       80       81       86 </v>
   <v type="int" >       12       36       37       42       81 </v>
   <v type="int" >       12       36       41       42       81 </v>
   <v type="int" >       12       41       42       81       86 </v>
   <v type="int" >       12       37       42       81       82 </v>
   <v type="int" >       12       42       81       82       87 </v>
   <v type="int" >       12       42       81       86       87 </v>
   <v type="int" >       12       37       38       43       82 </v>
   <v type="int" >       12       37       42       43       82 </v>
   <v type="int" >       12       42       43       82       87 </v>
   <v type="int" >       12       38       43       82       83 </v>
   <v type="int" >       12       43       82       83       88 </v>
   <v type="int" >       12       43       82       87       88 </v>
   <v type="int" >       12       38       39       44       83 </v>
   <v type="int" >       12       38       43       44       83 </v>
   <v type="int" >       12       43       44       83       88 </v>
   <v type="int" >       12       39       44       83       84 </v>
   <v type="int" >       12       44       83       84       89 </v>
   <v type="int" >       12       44       83       88       89 </v>
   <v type="int" >       12       39       40       45       84 </v>
   <v type="int" >       12       39       44       45       84 </v>
   <v type="int" >       12       44       45       84       89 </v>
   <v type="int" >       12       40       45       84       85 </v>
   <v type="int" >       12       45       84       85       90 </v>
   <v type="int" >       12       45       84       89       90 </v>
   <v type="int" >       12       39       40       44       85 </v>
   <v type="int" >       12       40       44       45       85 </v>
   <v type="int" >       12       44       45       85       90 </v>
   <v type="int" >       12       39       44       84       85 </v>
   <v type="int" >       12       44       84       85       89 </v>
   <v type="int" >       12       44       85       89       90 </v>
   <v type="int" >       12       38       39       43       84 </v>
   <v type="int" >       12       39       43       44       84 </v>
   <v type="int" >       12       43       44       84       89 </v>
   <v type="int" >       12       38       43       83       84 </v>
   <v type="int" >       12       43       83       84       88 </v>
   <v type="int" >       12       43       84       88       89 </v>
   <v type="int" >       12       37       38       42       83 </v>
   <v type="int" >       12       38       42       43       83 </v>
   <v type="int" >       12       42       43       83       88 </v>
   <v type="int" >       12       37       42       82       83 </v>
   <v type="int" >       12       42       82       83       87 </v>
   <v type="int" >       12       42       83       87       88 </v>
   <v type="int" >       12       36       37       41       82 </v>
   <v type="int" >       12       37       41       42       82 </v>
   <v type="int" >       12       41       42       82       87 </v>
   <v type="int" >       12       36       41       81       82 </v>
   <v type="int" >       12       41       81       82       86 </v>
   <v type="int" >       12       41       82       86       87 </v>
   <v type="int" >       12       35       36       36       81 </v>
   <v type="int" >       12       36       36       41       81 </v>
   <v type="int" >       12       36       41       81       86 </v>
   <v type="int" >       12       35       36       80       81 </v>
   <v type="int" >       12       36       80       81       81 </v>
   <v type="int" >       12       36       81       81       86 </v>
   <v type="int" >       12       29       30       35       80 </v>
   <v type="int" >       12       30       35       36       80 </v>
   <v type="int" >       12       30       36       80       81 </v>
   <v type="int" >       12       29       30       74       80 </v>
   <v type="int" >       12       30       74       75       80 </v>
   <v type="int" >       12       30       75       80       81 </v>
   <v type="int" >       12       22       23       29       74 </v>
   <v type="int" >       12       23       29       30       74 </v>
   <v type="int" >       12       23       30       74       75 </v>
   <v type="int" >       12       22       23       67       74 </v>
   <v type="int" >       12       23       67       68       74 </v>
   <v type="int" >       12       23       68       74       75 </v>
   <v type="int" >       12       14       15       22       67 </v>
   <v type="int" >       12       15       22       23       67 </v>
   <v type="int" >       12       15       23       67       68 </v>
   <v type="int" >       12       14       15       59       67 </v>
   <v type="int" >       12       15       59       60       67 </v>
   <v type="int" >       12       15       60       67       68 </v>
   <v type="int" >       12        5        6       14       59 </v>
   <v type="int" >       12        6       14       15       59 </v>
   <v type="int" >       12        6       15       59       60 </v>
   <v type="int" >       12       41       42       46       86 </v>
   <v type="int" >       12       42       46       86       87 </v>
   <v type="int" >       12       46       86       87       91 </v>
   <v type="int" >       12       42       43       47       87 </v>
   <v type="int" >       12       42       46       47       87 </v>
   <v type="int" >       12       46       47       87       91 </v>
   <v type="int" >       12       43       47       87       88 </v>
   <v type="int" >       12       47       87       88       92 </v>
   <v type="int" >       12       47       87       91       92 </v>
   <v type="int" >       12       43       44       48       88 </v>
   <v type="int" >       12       43       47       48       88 </v>
   <v type="int" >       12       47       48       88       92 </v>
   <v type="int" >       12       44       48       88       89 </v>
   <v type="int" >       12       48       88       89       93 </v>
   <v type="int" >       12       48       88       92       93 </v>
   <v type="int" >       12       44       45       49       89 </v>
   <v type="int" >       12       44       48       49       89 </v>
   <v type="int" >       12       48       49       89       93 </v>
   <v type="int" >       12       45       49       89       90 </v>
   <v type="int" >       12       49       89       90       94 </v>
   <v type="int" >       12       49       89       93       94 </v>
   <v type="int" >       12       44       45       48       90 </v>
   <v type="int" >       12       45       48       49       90 </v>
   <v type="int" >       12       48       49       90       94 </v>
   <v type="int" >       12       44       48       89       90 </v>
   <v type="int" >       12       48       89       90       93 </v>
   <v type="int" >       12       48       90       93       94 </v>
   <v type="int" >       12       43       44       47       89 </v>
   <v type="int" >       12       44       47       48       89 </v>
   <v type="int" >       12       47       48       89       93 </v>
   <v type="int" >       12       43       47       88       89 </v>
   <v type="int" >       12       47       88       89       92 </v>
   <v type="int" >       12       47       89       92       93 </v>
   <v type="int" >       12       42       43       46       88 </v>
   <v type="int" >       12       43       46       47       88 </v>
   <v type="int" >       12       46       47       88       92 </v>
   <v type="int" >       12       42       46       87       88 </v>
   <v type="int" >       12       46       87       88       91 </v>
   <v type="int" >       12       46       88       91       92 </v>
   <v type="int" >       12       41       42       42       87 </v>
   <v type="int" >       12       42       42       46       87 </v>
   <v type="int" >       12       42       46       87       91 </v>
   <v type="int" >       12       41       42       86       87 </v>
   <v type="int" >       12       42       86       87       87 </v>
   <v type="int" >       12       42       87       87       91 </v>
   <v type="int" >       12       36       37       41       86 </v>
   <v type="int" >       12       37       41       42       86 </v>
   <v type="int" >       12       37       42       86       87 </v>
   <v type="int" >       12       36       37       81       86 </v>
   <v type="int" >       12       37       81       82       86 </v>
   <v type="int" >       12       37       82       86       87 </v>
   <v type="int" >       12       30       31       36       81 </v>
   <v type="int" >       12       31       36       37       81 </v>
   <v type="int" >       12       31       37       81       82 </v>
   <v type="int" >       12       30       31       75       81 </v>
   <v type="int" >       12       31       75       76       81 </v>
   <v type="int" >       12       31       76       81       82 </v>
   <v type="int" >       12       23       24       30       75 </v>
   <v type="int" >       12       24       30       31       75 </v>
   <v type="int" >       12       24       31       75       76 </v>
   <v type="int" >       12       23       24       68       75 </v>
   <v type="int" >       12       24       68       69       75 </v>
   <v type="int" >       12       24       69       75       76 </v>
   <v type="int" >       12       15       16       23       68 </v>
   <v type="int" >       12       16       23       24       68 </v>
   <v type="int" >       12       16       24       68       69 </v>
   <v type="int" >       12       15       16       60       68 </v>
   <v type="int" >       12       16       60       61       68 </v>
   <v type="int" >       12       16       61       68       69 </v>
   <v type="int" >       12        6        7       15       60 </v>
   <v type="int" >       12        7       15       16       60 </v>
   <v type="int" >       12        7       16       60       61 </v>
   <v type="int" >       12       46       47       50       91 </v>
   <v type="int" >       12       47       50       91       92 </v>
   <v type="int" >       12       50       91       92       95 </v>
   <v type="int" >       12       47       48       51       92 </v>
   <v type="int" >       12       47       50       51       92 </v>
   <v type="int" >       12       50       51       92       95 </v>
   <v type="int" >       12       48       51       92       93 </v>
   <v type="int" >       12       51       92       93       96 </v>
   <v type="int" >       12       51       92       95       96 </v>
   <v type="int" >       12       48       49       52       93 </v>
   <v type="int" >       12       48       51       52       93 </v>
   <v type="int" >       12       51       52       93       96 </v>
   <v type="int" >       12       49       52       93       94 </v>
   <v type="int" >       12       52       93       94       97 </v>
   <v type="int" >       12       52       93       96       97 </v>
   <v type="int" >       12       48       49       51       94 </v>
   <v type="int" >       12       49       51       52       94 </v>
   <v type="int" >       12       51       52       94       97 </v>
   <v type="int" >       12       48       51       93       94 </v>
   <v type="int" >       12       51       93       94       96 </v>
   <v type="int" >       12       51       94       96       97 </v>
   <v type="int" >       12       47       48       50       93 </v>
   <v type="int" >       12       48       50       51       93 </v>
   <v type="int" >       12       50       51       93       96 </v>
   <v type="int" >       12       47       50       92       93 </v>
   <v type="int" >       12       50       92       93       95 </v>
   <v type="int" >       12       50       93       95       96 </v>
   <v type="int" >       12       46       47       47       92 </v>
   <v type="int" >       12       47       47       50       92 </v>
   <v type="int" >       12       47       50       92       95 </v>
   <v type="int" >       12       46       47       91       92 </v>
   <v type="int" >       12       47       91       92       92 </v>
   <v type="int" >       12       47       92       92       95 </v>
   <v type="int" >       12       42       43       46       91 </v>
   <v type="int" >       12       43       46       47       91 </v>
   <v type="int" >       12       43       47       91       92 </v>
   <v type="int" >       12       42       43       87       91 </v>
   <v type="int" >       12       43       87       88       91 </v>
   <v type="int" >       12       43       88       91       92 </v>
   <v type="int" >       12       37       38       42       87 </v>
   <v type="int" >       12       38       42       43       87 </v>
   <v type="int" >       12       38       43       87       88 </v>
   <v type="int" >       12       37       38       82       87 </v>
   <v type="int" >       12       38       82       83       87 </v>
   <v type="int" >       12       38       83       87       88 </v>
   <v type="int" >       12       31       32       37       82 </v>
   <v type="int" >       12       32       37       38       82 </v>
   <v type="int" >       12       32       38       82       83 </v>
   <v type="int" >       12       31       32       76       82 </v>
   <v type="int" >       12       32       76       77       82 </v>
   <v type="int" >       12       32       77       82       83 </v>
   <v type="int" >       12       24       25       31       76 </v>
   <v type="int" >       12       25       31       32       76 </v>
   <v type="int" >       12       25       32       76       77 </v>
   <v type="int" >       12       24       25       69       76 </v>
   <v type="int" >       12       25       69       70       76 </v>
   <v type="int" >       12       25       70       76       77 </v>
   <v type="int" >       12       16       17       24       69 </v>
   <v type="int" >       12       17       24       25       69 </v>
   <v type="int" >       12       17       25       69       70 </v>
   <v type="int" >       12       16       17       61       69 </v>
   <v type="int" >       12       17       61       62       69 </v>
   <v type="int" >       12       17       62       69       70 </v>
   <v type="int" >       12        7        8       16       61 </v>
   <v type="int" >       12        8       16       17       61 </v>
   <v type="int" >       12        8       17       61       62 </v>
   <v type="int" >       12       50       51       53       95 </v>
   <v type="int" >       12       51       53       95       96 </v>
   <v type="int" >       12       53       95       96       98 </v>
   <v type="int" >       12       51       52       54       96 </v>
   <v type="int" >       12       51       53       54       96 </v>
   <v type="int" >       12       53       54       96       98 </v>
   <v type="int" >       12       52       54       96       97 </v>
   <v type="int" >       12       54       96       97       99 </v>
   <v type="int" >       12       54       96       98       99 </v>
   <v type="int" >       12       51       52       53       97 </v>
   <v type="int" >       12       52       53       54       97 </v>
   <v type="int" >       12       53       54       97       99 </v>
   <v type="int" >       12       51       53       96       97 </v>
   <v type="int" >       12       53       96       97       98 </v>
   <v type="int" >       12       53       97       98       99 </v>
   <v type="int" >       12       50       51       51       96 </v>
   <v type="int" >       12       51       51       53       96 </v>
   <v type="int" >       12       51       53       96       98 </v>
   <v type="int" >       12       50       51       95       96 </v>
   <v type="int" >       12       51       95       96       96 </v>
   <v type="int" >       12       51       96       96       98 </v>
   <v type="int" >       12       47       48       50       95 </v>
   <v type="int" >       12       48       50       51       95 </v>
   <v type="int" >       12       48       51       95       96 </v>
   <v type="int" >       12       47       48       92       95 </v>
   <v type="int" >       12       48       92       93       95 </v>
   <v type="int" >       12       48       93       95       96 </v>
   <v type="int" >       12       43       44       47       92 </v>
   <v type="int" >       12       44       47       48       92 </v>
   <v type="int" >       12       44       48       92       93 </v>
   <v type="int" >       12       43       44       88       92 </v>
   <v type="int" >       12       44       88       89       92 </v>
   <v type="int" >       12       44       89       92       93 </v>
   <v type="int" >       12       38       39       43       88 </v>
   <v type="int" >       12       39       43       44       88 </v>
   <v type="int" >       12       39       44       88       89 </v>
   <v type="int" >       12       38       39       83       88 </v>
   <v type="int" >       12       39       83       84       88 </v>
   <v type="int" >       12       39       84       88       89 </v>
   <v type="int" >       12       32       33       38       83 </v>
   <v type="int" >       12       33       38       39       83 </v>
   <v type="int" >       12       33       39       83       84 </v>
   <v type="int" >       12       32       33       77       83 </v>
   <v type="int" >       12       33       77       78       83 </v>
   <v type="int" >       12       33       78       83       84 </v>
   <v type="int" >       12       25       26       32       77 </v>
   <v type="int" >       12       26       32       33       77 </v>
   <v type="int" >       12       26       33       77       78 </v>
   <v type="int" >       12       25       26       70       77 </v>
   <v type="int" >       12       26       70       71       77 </v>
   <v type="int" >       12       26       71       77       78 </v>
   <v type="int" >       12       17       18       25       70 </v>
   <v type="int" >       12       18       25       26       70 </v>
   <v type="int" >       12       18       26       70       71 </v>
   <v type="int" >       12       17       18       62       70 </v>
   <v type="int" >       12       18       62       63       70 </v>
   <v type="int" >       12       18       63       70       71 </v>
   <v type="int" >       12        8        9       17       62 </v>
   <v type="int" >       12        9       17       18       62 </v>
   <v type="int" >       12        9       18       62       63 </v>
   <v type="int" >       12       53       54       55       98 </v>
   <v type="int" >       12       54       55       98       99 </v>
   <v type="int" >       12       55       98       99      100 </v>
   <v type="int" >       12       53       54       54       99 </v>
   <v type="int" >       12       54       54       55       99 </v>
   <v type="int" >       12       54       55       99      100 </v>
   <v type="int" >       12       53       54       98       99 </v>
   <v type="int" >       12       54       98       99       99 </v>
   <v type="int" >       12       54       99       99      100 </v>
   <v type="int" >       12       51       52       53       98 </v>
   <v type="int" >       12       52       53       54       98 </v>
   <v type="int" >       12       52       54       98       99 </v>
   <v type="int" >       12       51       52       96       98 </v>
   <v type="int" >       12       52       96       97       98 </v>
   <v type="int" >       12       52       97       98       99 </v>
   <v type="int" >       12       48       49       51       96 </v>
   <v type="int" >       12       49       51       52       96 </v>
   <v type="int" >       12       49       52       96       97 </v>
   <v type="int" >       12       48       49       93       96 </v>
   <v type="int" >       12       49       93       94       96 </v>
   <v type="int" >       12       49       94       96       97 </v>
   <v type="int" >       12       44       45       48       93 </v>
   <v type="int" >       12       45       48       49       93 </v>
   <v type="int" >       12       45       49       93       94 </v>
   <v type="int" >       12       44       45       89       93 </v>
   <v type="int" >       12       45       89       90       93 </v>
   <v type="int" >       12       45       90       93       94 </v>
   <v type="int" >       12       39       40       44       89 </v>
   <v type="int" >       12       40       44       45       89 </v>
   <v type="int" >       12       40       45       89       90 </v>
   <v type="int" >       12       39       40       84       89 </v>
   <v type="int" >       12       40       84       85       89 </v>
   <v type="int" >       12       40       85       89       90 </v>
   <v type="int" >       12       33       34       39       84 </v>
   <v type="int" >       12       34       39       40       84 </v>
   <v type="int" >       12       34       40       84       85 </v>
   <v type="int" >       12       33       34       78       84 </v>
   <v type="int" >       12       34       78       79       84 </v>
   <v type="int" >       12       34       79       84       85 </v>
   <v type="int" >       12       26       27       33       78 </v>
   <v type="int" >       12       27       33       34       78 </v>
   <v type="int" >       12       27       34       78       79 </v>
   <v type="int" >       12       26       27       71       78 </v>
   <v type="int" >       12       27       71       72       78 </v>
   <v type="int" >       12       27       72       78       79 </v>
   <v type="int" >       12       18       19       26       71 </v>
   <v type="int" >       12       19       26       27       71 </v>
   <v type="int" >       12       19       27       71       72 </v>
   <v type="int" >       12       18       19       63       71 </v>
   <v type="int" >       12       19       63       64       71 </v>
   <v type="int" >       12       19       64       71       72 </v>
   <v type="int" >       12        9       10       18       63 </v>
   <v type="int" >       12       10       18       19       63 </v>
   <v type="int" >       12       10       19       63       64 </v>
   <v type="int" >       12       53       54       55      100 </v>
   <v type="int" >       12       53       54       99      100 </v>
   <v type="int" >       12       53       98       99      100 </v>
   <v type="int" >       12       51       52       54       99 </v>
   <v type="int" >       12       51       53       54       99 </v>
   <v type="int" >       12       51       53       98       99 </v>
   <v type="int" >       12       51       52       97       99 </v>
   <v type="int" >       12       51       96       97       99 </v>
   <v type="int" >       12       51       96       98       99 </v>
   <v type="int" >       12       48       49       52       97 </v>
   <v type="int" >       12       48       51       52       97 </v>
   <v type="int" >       12       48       51       96       97 </v>
   <v type="int" >       12       48       49       94       97 </v>
   <v type="int" >       12       48       93       94       97 </v>
   <v type="int" >       12       48       93       96       97 </v>
   <v type="int" >       12       44       45       49       94 </v>
   <v type="int" >       12       44       48       49       94 </v>
   <v type="int" >       12       44       48       93       94 </v>
   <v type="int" >       12       44       45       90       94 </v>
   <v type="int" >       12       44       89       90       94 </v>
   <v type="int" >       12       44       89       93       94 </v>
   <v type="int" >       12       39       40       45       90 </v>
   <v type="int" >       12       39       44       45       90 </v>
   <v type="int" >       12       39       44       89       90 </v>
   <v type="int" >       12       39       40       85       90 </v>
   <v type="int" >       12       39       84       85       90 </v>
   <v type="int" >       12       39       84       89       90 </v>
   <v type="int" >       12       33       34       40       85 </v>
   <v type="int" >       12       33       39       40       85 </v>
   <v type="int" >       12       33       39       84       85 </v>
   <v type="int" >       12       33       34       79       85 </v>
   <v type="int" >       12       33       78       79       85 </v>
   <v type="int" >       12       33       78       84       85 </v>
   <v type="int" >       12       26       27       34       79 </v>
   <v type="int" >       12       26       33       34       79 </v>
   <v type="int" >       12       26       33       78       79 </v>
   <v type="int" >       12       26       27       72       79 </v>
   <v type="int" >       12       26       71       72       79 </v>
   <v type="int" >       12       26       71       78       79 </v>
   <v type="int" >       12       18       19       27       72 </v>
   <v type="int" >       12       18       26       27       72 </v>
   <v type="int" >       12       18       26       71       72 </v>
   <v type="int" >       12       18       19       64       72 </v>
   <v type="int" >       12       18       63       64       72 </v>
   <v type="int" >       12       18       63       71       72 </v>
   <v type="int" >       12        9       10       19       64 </v>
   <v type="int" >       12        9       18       19       64 </v>
   <v type="int" >       12        9       18       63       64 </v>
   <v type="int" >       12       50       51       53       98 </v>
   <v type="int" >       12       50       51       96       98 </v>
   <v type="int" >       12       50       95       96       98 </v>
   <v type="int" >       12       47       48       51       96 </v>
   <v type="int" >       12       47       50       51       96 </v>
   <v type="int" >       12       47       50       95       96 </v>
   <v type="int" >       12       47       48       93       96 </v>
   <v type="int" >       12       47       92       93       96 </v>
   <v type="int" >       12       47       92       95       96 </v>
   <v type="int" >       12       43       44       48       93 </v>
   <v type="int" >       12       43       47       48       93 </v>
   <v type="int" >       12       43       47       92       93 </v>
   <v type="int" >       12       43       44       89       93 </v>
   <v type="int" >       12       43       88       89       93 </v>
   <v type="int" >       12       43       88       92       93 </v>
   <v type="int" >       12       38       39       44       89 </v>
   <v type="int" >       12       38       43       44       89 </v>
   <v type="int" >       12       38       43       88       89 </v>
   <v type="int" >       12       38       39       84       89 </v>
   <v type="int" >       12       38       83       84       89 </v>
   <v type="int" >       12       38       83       88       89 </v>
   <v type="int" >       12       32       33       39       84 </v>
   <v type="int" >       12       32       38       39       84 </v>
   <v type="int" >       12       32       38       83       84 </v>
   <v type="int" >       12       32       33       78       84 </v>
   <v type="int" >       12       32       77       78       84 </v>
   <v type="int" >       12       32       77       83       84 </v>
   <v type="int" >       12       25       26       33       78 </v>
   <v type="int" >       12       25       32       33       78 </v>
   <v type="int" >       12       25       32       77       78 </v>
   <v type="int" >       12       25       26       71       78 </v>
   <v type="int" >       12       25       70       71       78 </v>
   <v type="int" >       12       25       70       77       78 </v>
   <v type="int" >       12       17       18       26       71 </v>
   <v type="int" >       12       17       25       26       71 </v>
   <v type="int" >       12       17       25       70       71 </v>
   <v type="int" >       12       17       18       63       71 </v>
   <v type="int" >       12       17       62       63       71 </v>
   <v type="int" >       12       17       62       70       71 </v>
   <v type="int" >       12        8        9       18       63 </v>
   <v type="int" >       12        8       17       18       63 </v>
   <v type="int" >       12        8       17       62       63 </v>
   <v type="int" >       12       46       47       50       95 </v>
   <v type="int" >       12       46       47       92       95 </v>
   <v type="int" >       12       46       91       92       95 </v>
   <v type="int" >       12       42       43       47       92 </v>
   <v type="int" >       12       42       46       47       92 </v>
   <v type="int" >       12       42       46       91       92 </v>
   <v type="int" >       12       42       43       88       92 </v>
   <v type="int" >       12       42       87       88       92 </v>
   <v type="int" >       12       42       87       91       92 </v>
   <v type="int" >       12       37       38       43       88 </v>
   <v type="int" >       12       37       42       43       88 </v>
   <v type="int" >       12       37       42       87       88 </v>
   <v type="int" >       12       37       38       83       88 </v>
   <v type="int" >       12       37       82       83       88 </v>
   <v type="int" >       12       37       82       87       88 </v>
   <v type="int" >       12       31       32       38       83 </v>
   <v type="int" >       12       31       37       38       83 </v>
   <v type="int" >       12       31       37       82       83 </v>
   <v type="int" >       12       31       32       77       83 </v>
   <v type="int" >       12       31       76       77       83 </v>
   <v type="int" >       12       31       76       82       83 </v>
   <v type="int" >       12       24       25       32       77 </v>
   <v type="int" >       12       24       31       32       77 </v>
   <v type="int" >       12       24       31       76       77 </v>
   <v type="int" >       12       24       25       70       77 </v>
   <v type="int" >       12       24       69       70       77 </v>
   <v type="int" >       12       24       69       76       77 </v>
   <v type="int" >       12       16       17       25       70 </v>
   <v type="int" >       12       16       24       25       70 </v>
   <v type="int" >       12       16       24       69       70 </v>
   <v type="int" >       12       16       17       62       70 </v>
   <v type="int" >       12       16       61       62       70 </v>
   <v type="int" >       12       16       61       69       70 </v>
   <v type="int" >       12        7        8       17       62 </v>
   <v type="int" >       12        7       16       17       62 </v>
   <v type="int" >       12        7       16       61       62 </v>
   <v type="int" >       12       41       42       46       91 </v>
   <v type="int" >       12       41       42       87       91 </v>
   <v type="int" >       12       41       86       87       91 </v>
   <v type="int" >       12       36       37       42       87 </v>
   <v type="int" >       12       36       41       42       87 </v>
   <v type="int" >       12       36       41       86       87 </v>
   <v type="int" >       12       36       37       82       87 </v>
   <v type="int" >       12       36       81       82       87 </v>
   <v type="int" >       12       36       81       86       87 </v>
   <v type="int" >       12       30       31       37       82 </v>
   <v type="int" >       12       30       36       37       82 </v>
   <v type="int" >       12       30       36       81       82 </v>
   <v type="int" >       12       30       31       76       82 </v>
   <v type="int" >       12       30       75       76       82 </v>
   <v type="int" >       12       30       75       81       82 </v>
   <v type="int" >       12       23       24       31       76 </v>
   <v type="int" >       12       23       30       31       76 </v>
   <v type="int" >       12       23       30       75       76 </v>
   <v type="int" >       12       23       24       69       76 </v>
   <v type="int" >       12       23       68       69       76 </v>
   <v type="int" >       12       23       68       75       76 </v>
   <v type="int" >       12       15       16       24       69 </v>
   <v type="int" >       12       15       23       24       69 </v>
   <v type="int" >       12       15       23       68       69 </v>
   <v type="int" >       12       15       16       61       69 </v>
   <v type="int" >       12       15       60       61       69 </v>
   <v type="int" >       12       15       60       68       69 </v>
   <v type="int" >       12        6        7       16       61 </v>
   <v type="int" >       12        6       15       16       61 </v>
   <v type="int" >       12        6       15       60       61 </v>
   <v type="int" >       12       35       36       41       86 </v>
   <v type="int" >       12       35       36       81       86 </v>
   <v type="int" >       12       35       80       81       86 </v>
   <v type="int" >       12       29       30       36       81 </v>
   <v type="int" >       12       29       35       36       81 </v>
   <v type="int" >       12       29       35       80       81 </v>
   <v type="int" >       12       29       30       75       81 </v>
   <v type="int" >       12       29       74       75       81 </v>
   <v type="int" >       12       29       74       80       81 </v>
   <v type="int" >       12       22       23       30       75 </v>
   <v type="int" >       12       22       29       30       75 </v>
   <v type="int" >       12       22       29       74       75 </v>
   <v type="int" >       12       22       23       68       75 </v>
   <v type="int" >       12       22       67       68       75 </v>
   <v type="int" >       12       22       67       74       75 </v>
   <v type="int" >       12       14       15       23       68 </v>
   <v type="int" >       12       14       22       23       68 </v>
   <v type="int" >       12       14       22       67       68 </v>
   <v type="int" >       12       14       15       60       68 </v>
[...]
       </set>
       <set comment="band 12">
        <r>  0.0000  0.0416  0.0025  0.0243  0.0116  0.1150  0.0006  0.1969  0.0098 </r>
        <r>  0.0000  0.0416  0.0025  0.0243  0.0116  0.1150  0.0006  0.1969  0.0098 </r>
       </set>
       <set comment="band 13">
        <r>  0.0000  0.0001  0.0000  0.0000  0.0006  0.0053  0.0265  0.0093  0.4494 </r>
        <r>  0.0000  0.0001  0.0000  0.0000  0.0006  0.0053  0.0265  0.0093  0.4494 </r>
       </set>
       <set comment="band 14">
        <r>  0.0000  0.0000  0.0001  0.0000  0.0095  0.0048  0.4494  0.0008  0.0265 </r>
        <r>  0.0000  0.0000  0.0001  0.0000  0.0095  0.0048  0.4494  0.0008  0.0265 </r>
       </set>
       <set comment="band 15">
        <r>  0.0000  0.0000  0.0000  0.0000  0.0047  0.0033  0.3863  0.0008  0.0961 </r>
        <r>  0.0000  0.0000  0.0000  0.0000  0.0047  0.0033  0.3863  0.0008  0.0961 </r>
       </set>
       <set comment="band 16">
        <r>  0.0000  0.0000  0.0000  0.0000  0.0012  0.0026  0.0961  0.0051  0.3863 </r>
        <r>  0.0000  0.0000  0.0000  0.0000  0.0012  0.0026  0.0961  0.0051  0.3863 </r>
       </set>
       <set comment="band 17">
        <r>  0.0296  0.0434  0.0434  0.0434  0.0800  0.0800  0.0000  0.0800  0.0000 </r>
        <r>  0.0296  0.0434  0.0434  0.0434  0.0800  0.0800  0.0000  0.0800  0.0000 </r>
       </set>
       <set comment="band 18">
        <r>  0.0000  0.0917  0.0792  0.0005  0.0962  0.0007  0.0046  0.1113  0.0020 </r>
        <r>  0.0000  0.0917  0.0792  0.0005  0.0962  0.0007  0.0046  0.1113  0.0020 </r>
       </set>
       <set comment="band 19">
        <r>  0.0000  0.0226  0.0351  0.1137  0.0426  0.1381  0.0020  0.0274  0.0046 </r>
        <r>  0.0000  0.0226  0.0351  0.1137  0.0426  0.1381  0.0020  0.0274  0.0046 </r>
       </set>
       <set comment="band 20">
        <r>  0.2087  0.0155  0.0155  0.0155  0.0403  0.0403  0.0000  0.0403  0.0000 </r>
        <r>  0.2087  0.0155  0.0155  0.0155  0.0403  0.0403  0.0000  0.0403  0.0000 </r>
       </set>
       <set comment="band 21">
        <r>  0.0000  0.0102  0.0546  0.1120  0.0586  0.1200  0.0020  0.0109  0.0023 </r>
        <r>  0.0000  0.0102  0.0546  0.1120  0.0586  0.1200  0.0020  0.0109  0.0023 </r>
       </set>
       <set comment="band 22">
        <r>  0.0000  0.1077  0.0632  0.0059  0.0678  0.0063  0.0023  0.1154  0.0020 </r>
        <r>  0.0000  0.1077  0.0632  0.0059  0.0678  0.0063  0.0023  0.1154  0.0020 </r>
       </set>
       <set comment="band 23">
        <r>  0.3353  0.0152  0.0152  0.0152  0.0006  0.0006  0.0000  0.0006  0.0000 </r>
        <r>  0.3353  0.0152  0.0152  0.0152  0.0006  0.0006  0.0000  0.0006  0.0000 </r>
       </set>
       <set comment="band 24">
        <r>  0.1599  0.0472  0.0472  0.0472  0.0243  0.0243  0.0000  0.0243  0.0000 </r>
        <r>  0.1599  0.0472  0.0472  0.0472  0.0243  0.0243  0.0000  0.0243  0.0000 </r>
       </set>
      </set>
      <set comment="kpoint 218">
       <set comment="band 1">
        <r>  0.0000  0.0350  0.0350  0.4342  0.0001  0.0000  0.0000  0.0001  0.0000 </r>
        <r>  0.0000  0.2081  0.2081  0.0731  0.0000  0.0001  0.0000  0.0000  0.0000 </r>
       </set>
       <set comment="band 2">
        <r>  0.0000  0.2081  0.2081  0.0731  0.0000  0.0001  0.0000  0.0000  0.0000 </r>
        <r>  0.0000  0.0350  0.0350  0.4342  0.0001  0.0000  0.0000  0.0001  0.0000 </r>
       </set>
       <set comment="band 3">
        <r>  0.0000  0.4034  0.4034  0.0000  0.0000  0.0000  0.0000  0.0000  0.0000 </r>
        <r>  0.0000  0.0939  0.0939  0.0000  0.0001  0.0000  0.0000  0.0001  0.0000 </r>
       </set>
       <set comment="band 4">
        <r>  0.0000  0.0939  0.0939  0.0000  0.0001  0.0000  0.0000  0.0001  0.0000 </r>
        <r>  0.0000  0.4034  0.4034  0.0000  0.0000  0.0000  0.0000  0.0000  0.0000 </r>
       </set>
       <set comment="band 5">
        <r>  0.0000  0.1159  0.1159  0.2650  0.0000  0.0001  0.0000  0.0000  0.0000 </r>
        <r>  0.0000  0.1382  0.1382  0.2223  0.0000  0.0001  0.0000  0.0000  0.0000 </r>
       </set>
       <set comment="band 6">
        <r>  0.0000  0.1382  0.1382  0.2223  0.0000  0.0001  0.0000  0.0000  0.0000 </r>
        <r>  0.0000  0.1159  0.1159  0.2650  0.0000  0.0001  0.0000  0.0000  0.0000 </r>
       </set>
       <set comment="band 7">
        <r>  0.0050  0.0217  0.0217  0.0056  0.0973  0.1292  0.0005  0.0973  0.0016 </r>
        <r>  0.0028  0.0122  0.0122  0.0098  0.1724  0.0729  0.0003  0.1724  0.0009 </r>
       </set>
       <set comment="band 8">
        <r>  0.0028  0.0122  0.0122  0.0098  0.1724  0.0729  0.0003  0.1724  0.0009 </r>
        <r>  0.0050  0.0217  0.0217  0.0056  0.0973  0.1292  0.0005  0.0973  0.0016 </r>
       </set>
       <set comment="band 9">
        <r>  0.0000  0.0033  0.0033  0.0000  0.3262  0.0000  0.0007  0.3262  0.0002 </r>
        <r>  0.0000  0.0524  0.0524  0.0000  0.0207  0.0000  0.0113  0.0207  0.0038 </r>
       </set>
       <set comment="band 10">
        <r>  0.0000  0.0524  0.0524  0.0000  0.0207  0.0000  0.0113  0.0207  0.0038 </r>
        <r>  0.0000  0.0033  0.0033  0.0000  0.3262  0.0000  0.0007  0.3262  0.0002 </r>
       </set>
       <set comment="band 11">
        <r>  0.0022  0.0125  0.0125  0.0441  0.0315  0.2834  0.0003  0.0315  0.0010 </r>
        <r>  0.0017  0.0095  0.0095  0.0577  0.0413  0.2165  0.0002  0.0413  0.0007 </r>
       </set>
       <set comment="band 12">
        <r>  0.0017  0.0095  0.0095  0.0577  0.0413  0.2165  0.0002  0.0413  0.0007 </r>
        <r>  0.0022  0.0125  0.0125  0.0441  0.0315  0.2834  0.0003  0.0315  0.0010 </r>
       </set>
       <set comment="band 13">
        <r>  0.0000  0.0000  0.0000  0.0000  0.0103  0.0000  0.0747  0.0103  0.0249 </r>
        <r>  0.0000  0.0000  0.0000  0.0000  0.0012  0.0000  0.6448  0.0012  0.2149 </r>
       </set>
       <set comment="band 14">
        <r>  0.0000  0.0000  0.0000  0.0000  0.0012  0.0000  0.6448  0.0012  0.2149 </r>
        <r>  0.0000  0.0000  0.0000  0.0000  0.0103  0.0000  0.0747  0.0103  0.0249 </r>
       </set>
       <set comment="band 15">
        <r>  0.0000  0.0000  0.0000  0.0000  0.0006  0.0002  0.2074  0.0006  0.6223 </r>
        <r>  0.0000  0.0000  0.0000  0.0000  0.0033  0.0000  0.0362  0.0033  0.1087 </r>
       </set>
       <set comment="band 16">
        <r>  0.0000  0.0000  0.0000  0.0000  0.0033  0.0000  0.0362  0.0033  0.1087 </r>
        <r>  0.0000  0.0000  0.0000  0.0000  0.0006  0.0002  0.2074  0.0006  0.6223 </r>
       </set>
       <set comment="band 17">
        <r>  0.0195  0.0439  0.0439  0.0636  0.0516  0.1158  0.0004  0.0516  0.0011 </r>
        <r>  0.0144  0.0324  0.0324  0.0861  0.0698  0.0855  0.0003  0.0698  0.0008 </r>
       </set>
       <set comment="band 18">
        <r>  0.0144  0.0324  0.0324  0.0861  0.0698  0.0855  0.0003  0.0698  0.0008 </r>
        <r>  0.0195  0.0439  0.0439  0.0636  0.0516  0.1158  0.0004  0.0516  0.0011 </r>
       </set>
       <set comment="band 19">
        <r>  0.0000  0.0556  0.0556  0.0000  0.1355  0.0000  0.0025  0.1355  0.0008 </r>
        <r>  0.0000  0.1196  0.1196  0.0000  0.0630  0.0000  0.0054  0.0630  0.0018 </r>
       </set>
       <set comment="band 20">
        <r>  0.0000  0.1196  0.1196  0.0000  0.0630  0.0000  0.0054  0.0630  0.0018 </r>
        <r>  0.0000  0.0556  0.0556  0.0000  0.1355  0.0000  0.0025  0.1355  0.0008 </r>
       </set>
       <set comment="band 21">
        <r>  0.0301  0.0036  0.0036  0.1442  0.0532  0.0241  0.0000  0.0532  0.0001 </r>
        <r>  0.1932  0.0231  0.0231  0.0225  0.0083  0.1545  0.0001  0.0083  0.0004 </r>
       </set>
       <set comment="band 22">
        <r>  0.1932  0.0231  0.0231  0.0225  0.0083  0.1545  0.0001  0.0083  0.0004 </r>
        <r>  0.0301  0.0036  0.0036  0.1442  0.0532  0.0241  0.0000  0.0532  0.0001 </r>
       </set>
       <set comment="band 23">
        <r>  0.1009  0.0161  0.0161  0.0219  0.0222  0.0065  0.0000  0.0222  0.0001 </r>
        <r>  0.3841  0.0614  0.0614  0.0058  0.0058  0.0247  0.0001  0.0058  0.0004 </r>
       </set>
       <set comment="band 24">
        <r>  0.3841  0.0614  0.0614  0.0058  0.0058  0.0247  0.0001  0.0058  0.0004 </r>
        <r>  0.1009  0.0161  0.0161  0.0219  0.0222  0.0065  0.0000  0.0222  0.0001 </r>
       </set>
      </set>
      <set comment="kpoint 219">
       <set comment="band 1">
        <r>  0.0000  0.0806  0.0000  0.4163  0.0000  0.0000  0.0000  0.0001  0.0000 </r>
        <r>  0.0000  0.4163  0.0000  0.0806  0.0000  0.0001  0.0000  0.0000  0.0000 </r>
       </set>
       <set comment="band 2">
        <r>  0.0000  0.4163  0.0000  0.0806  0.0000  0.0001  0.0000  0.0000  0.0000 </r>
        <r>  0.0000  0.0806  0.0000  0.4163  0.0000  0.0000  0.0000  0.0001  0.0000 </r>
       </set>
       <set comment="band 3">
        <r>  0.0000  0.0000  0.6290  0.0000  0.0001  0.0000  0.0000  0.0000  0.0000 </r>
        <r>  0.0000  0.0000  0.3656  0.0000  0.0002  0.0000  0.0000  0.0000  0.0000 </r>
       </set>
       <set comment="band 4">
        <r>  0.0000  0.0000  0.3656  0.0000  0.0002  0.0000  0.0000  0.0000  0.0000 </r>
        <r>  0.0000  0.0000  0.6290  0.0000  0.0001  0.0000  0.0000  0.0000  0.0000 </r>
       </set>
       <set comment="band 5">
        <r>  0.0000  0.1095  0.0000  0.3881  0.0000  0.0000  0.0000  0.0001  0.0000 </r>
        <r>  0.0000  0.3881  0.0000  0.1095  0.0000  0.0001  0.0000  0.0000  0.0000 </r>
       </set>
       <set comment="band 6">
        <r>  0.0000  0.3881  0.0000  0.1095  0.0000  0.0001  0.0000  0.0000  0.0000 </r>
        <r>  0.0000  0.1095  0.0000  0.3881  0.0000  0.0000  0.0000  0.0001  0.0000 </r>
       </set>
       <set comment="band 7">
        <r>  0.0001  0.0000  0.0017  0.0000  0.6805  0.0000  0.0002  0.0000  0.0000 </r>
        <r>  0.0058  0.0000  0.1086  0.0000  0.0108  0.0000  0.0104  0.0000  0.0000 </r>
       </set>
       <set comment="band 8">
        <r>  0.0058  0.0000  0.1086  0.0000  0.0108  0.0000  0.0104  0.0000  0.0000 </r>
        <r>  0.0001  0.0000  0.0017  0.0000  0.6805  0.0000  0.0002  0.0000  0.0000 </r>
       </set>
       <set comment="band 9">
        <r>  0.0000  0.0058  0.0000  0.0396  0.0000  0.0477  0.0000  0.3251  0.0000 </r>
        <r>  0.0000  0.0396  0.0000  0.0058  0.0000  0.3251  0.0000  0.0477  0.0000 </r>
       </set>
       <set comment="band 10">
        <r>  0.0000  0.0396  0.0000  0.0058  0.0000  0.3251  0.0000  0.0477  0.0000 </r>
        <r>  0.0000  0.0058  0.0000  0.0396  0.0000  0.0477  0.0000  0.3251  0.0000 </r>
       </set>
       <set comment="band 11">
        <r>  0.0000  0.0125  0.0000  0.0579  0.0000  0.0590  0.0000  0.2723  0.0000 </r>
        <r>  0.0000  0.0579  0.0000  0.0125  0.0000  0.2723  0.0000  0.0590  0.0000 </r>
       </set>
       <set comment="band 12">
        <r>  0.0000  0.0579  0.0000  0.0125  0.0000  0.2723  0.0000  0.0590  0.0000 </r>
        <r>  0.0000  0.0125  0.0000  0.0579  0.0000  0.0590  0.0000  0.2723  0.0000 </r>
       </set>
       <set comment="band 13">
        <r>  0.0000  0.0000  0.0000  0.0000  0.0147  0.0000  0.0322  0.0000  0.0000 </r>
        <r>  0.0000  0.0000  0.0001  0.0000  0.0005  0.0000  0.9352  0.0000  0.0000 </r>
       </set>
       <set comment="band 14">
        <r>  0.0000  0.0000  0.0001  0.0000  0.0005  0.0000  0.9352  0.0000  0.0000 </r>
        <r>  0.0000  0.0000  0.0000  0.0000  0.0147  0.0000  0.0322  0.0000  0.0000 </r>
       </set>
       <set comment="band 15">
        <r>  0.0000  0.0000  0.0000  0.0000  0.0000  0.0000  0.0000  0.0000  0.4037 </r>
        <r>  0.0000  0.0000  0.0000  0.0000  0.0000  0.0000  0.0000  0.0000  0.5795 </r>
       </set>
       <set comment="band 16">
        <r>  0.0000  0.0000  0.0000  0.0000  0.0000  0.0000  0.0000  0.0000  0.5795 </r>
        <r>  0.0000  0.0000  0.0000  0.0000  0.0000  0.0000  0.0000  0.0000  0.4037 </r>
       </set>
       <set comment="band 17">
        <r>  0.0000  0.0405  0.0000  0.1295  0.0000  0.0514  0.0000  0.1645  0.0000 </r>
        <r>  0.0000  0.1295  0.0000  0.0405  0.0000  0.1645  0.0000  0.0514  0.0000 </r>
       </set>
       <set comment="band 18">
        <r>  0.0000  0.1295  0.0000  0.0405  0.0000  0.1645  0.0000  0.0514  0.0000 </r>
        <r>  0.0000  0.0405  0.0000  0.1295  0.0000  0.0514  0.0000  0.1645  0.0000 </r>
       </set>
       <set comment="band 19">
        <r>  0.0836  0.0000  0.2718  0.0000  0.0157  0.0000  0.0061  0.0000  0.0000 </r>
        <r>  0.0035  0.0000  0.0115  0.0000  0.3717  0.0000  0.0003  0.0000  0.0000 </r>
       </set>
       <set comment="band 20">
        <r>  0.0035  0.0000  0.0115  0.0000  0.3717  0.0000  0.0003  0.0000  0.0000 </r>
        <r>  0.0836  0.0000  0.2718  0.0000  0.0157  0.0000  0.0061  0.0000  0.0000 </r>
       </set>
       <set comment="band 21">
        <r>  0.0000  0.0537  0.0000  0.1228  0.0000  0.0590  0.0000  0.1351  0.0000 </r>
        <r>  0.0000  0.1228  0.0000  0.0537  0.0000  0.1351  0.0000  0.0590  0.0000 </r>
       </set>
       <set comment="band 22">
        <r>  0.0000  0.1228  0.0000  0.0537  0.0000  0.1351  0.0000  0.0590  0.0000 </r>
        <r>  0.0000  0.0537  0.0000  0.1228  0.0000  0.0590  0.0000  0.1351  0.0000 </r>
       </set>
       <set comment="band 23">
        <r>  0.1221  0.0000  0.0138  0.0000  0.0172  0.0000  0.0001  0.0000  0.0000 </r>
        <r>  0.5419  0.0000  0.0611  0.0000  0.0039  0.0000  0.0005  0.0000  0.0000 </r>
       </set>
       <set comment="band 24">
        <r>  0.5419  0.0000  0.0611  0.0000  0.0039  0.0000  0.0005  0.0000  0.0000 </r>
        <r>  0.1221  0.0000  0.0138  0.0000  0.0172  0.0000  0.0001  0.0000  0.0000 </r>
       </set>
      </set>
      <set comment="kpoint 220">
       <set comment="band 1">
        <r>  0.0000  0.0416  0.3225  0.2558  0.0001  0.0000  0.0000  0.0001  0.0000 </r>
        <r>  0.0000  0.1766  0.1615  0.0365  0.0001  0.0001  0.0000  0.0000  0.0000 </r>
       </set>
       <set comment="band 2">
        <r>  0.0000  0.1523  0.0513  0.2835  0.0001  0.0000  0.0000  0.0001  0.0000 </r>
        <r>  0.0000  0.2246  0.2560  0.0269  0.0000  0.0001  0.0000  0.0000  0.0000 </r>
       </set>
       <set comment="band 3">
        <r>  0.0000  0.1045  0.0185  0.0167  0.0001  0.0002  0.0000  0.0000  0.0000 </r>
        <r>  0.0000  0.0347  0.2218  0.5983  0.0000  0.0000  0.0000  0.0000  0.0000 </r>
       </set>
       <set comment="band 4">
        <r>  0.0000  0.3954  0.2703  0.0066  0.0000  0.0000  0.0000  0.0001  0.0000 </r>
        <r>  0.0000  0.2052  0.0098  0.1073  0.0001  0.0000  0.0000  0.0001  0.0000 </r>
       </set>
       <set comment="band 5">
        <r>  0.0000  0.0131  0.0720  0.0017  0.0001  0.0001  0.0000  0.0001  0.0000 </r>
        <r>  0.0000  0.3459  0.3392  0.2227  0.0000  0.0000  0.0000  0.0000  0.0000 </r>
       </set>
       <set comment="band 6">
        <r>  0.0000  0.2876  0.2600  0.4303  0.0000  0.0000  0.0000  0.0000  0.0000 </r>
        <r>  0.0000  0.0074  0.0063  0.0030  0.0001  0.0001  0.0000  0.0001  0.0000 </r>
       </set>
       <set comment="band 7">
        <r>  0.0000  0.0021  0.0125  0.0117  0.4888  0.0130  0.0000  0.0414  0.0000 </r>
        <r>  0.0000  0.0067  0.0793  0.0021  0.0774  0.0721  0.0000  0.0132  0.0000 </r>
       </set>
       <set comment="band 8">
        <r>  0.0000  0.0199  0.0159  0.0248  0.1944  0.0739  0.0000  0.0636  0.0000 </r>
        <r>  0.0000  0.0103  0.0315  0.0120  0.0983  0.1530  0.0000  0.1226  0.0000 </r>
       </set>
       <set comment="band 9">
        <r>  0.0000  0.0010  0.0581  0.0007  0.0049  0.1664  0.0000  0.1656  0.0000 </r>
        <r>  0.0000  0.0268  0.0008  0.0270  0.3586  0.0045  0.0000  0.0060  0.0000 </r>
       </set>
       <set comment="band 10">
        <r>  0.0000  0.0568  0.0140  0.0080  0.0032  0.1779  0.0000  0.0390  0.0000 </r>
        <r>  0.0000  0.0063  0.0005  0.0288  0.0861  0.0491  0.0000  0.3506  0.0000 </r>
       </set>
       <set comment="band 11">
        <r>  0.0000  0.0157  0.0001  0.0061  0.0140  0.2555  0.0000  0.3015  0.0000 </r>
        <r>  0.0000  0.0489  0.0023  0.0414  0.0007  0.0377  0.0000  0.0965  0.0000 </r>
       </set>
       <set comment="band 12">
        <r>  0.0000  0.0190  0.0138  0.0632  0.0006  0.0192  0.0000  0.0948  0.0000 </r>
        <r>  0.0000  0.0154  0.0001  0.0031  0.0848  0.3895  0.0000  0.1170  0.0000 </r>
       </set>
       <set comment="band 13">
        <r>  0.0000  0.0000  0.0000  0.0000  0.0000  0.0000  0.0756  0.0000  0.3802 </r>
        <r>  0.0000  0.0000  0.0000  0.0000  0.0000  0.0000  0.0004  0.0000  0.5270 </r>
       </set>
       <set comment="band 14">
        <r>  0.0000  0.0000  0.0000  0.0000  0.0000  0.0000  0.4628  0.0000  0.1257 </r>
        <r>  0.0000  0.0000  0.0000  0.0000  0.0000  0.0000  0.0763  0.0000  0.3184 </r>
       </set>
       <set comment="band 15">
        <r>  0.0000  0.0000  0.0000  0.0000  0.0000  0.0000  0.3902  0.0000  0.2177 </r>
        <r>  0.0000  0.0000  0.0000  0.0000  0.0000  0.0000  0.3453  0.0000  0.0301 </r>
       </set>
       <set comment="band 16">
        <r>  0.0000  0.0000  0.0000  0.0000  0.0000  0.0000  0.0547  0.0000  0.2596 </r>
        <r>  0.0000  0.0000  0.0000  0.0000  0.0000  0.0000  0.5613  0.0000  0.1078 </r>
       </set>
       <set comment="band 17">
        <r>  0.0000  0.0215  0.0118  0.0531  0.0005  0.0259  0.0000  0.2812  0.0000 </r>
        <r>  0.0000  0.2399  0.0004  0.0220  0.0139  0.0623  0.0000  0.0252  0.0000 </r>
       </set>
       <set comment="band 18">
        <r>  0.0000  0.0980  0.0273  0.0222  0.0521  0.1210  0.0000  0.0628  0.0000 </r>
        <r>  0.0000  0.0536  0.0445  0.1032  0.0321  0.0260  0.0000  0.1149  0.0000 </r>
       </set>
       <set comment="band 19">
        <r>  0.0000  0.0466  0.2545  0.0046  0.0126  0.0009  0.0000  0.0369  0.0000 </r>
        <r>  0.0000  0.0315  0.0108  0.0008  0.2984  0.0054  0.0000  0.0546  0.0000 </r>
       </set>
       <set comment="band 20">
        <r>  0.0000  0.0061  0.0197  0.0463  0.3022  0.0122  0.0000  0.0100  0.0000 </r>
        <r>  0.0000  0.0085  0.2577  0.0104  0.0231  0.0542  0.0000  0.0072  0.0000 </r>
       </set>
       <set comment="band 21">
        <r>  0.0000  0.1721  0.0328  0.0203  0.0166  0.1211  0.0000  0.0073  0.0000 </r>
        <r>  0.0000  0.0062  0.0142  0.1033  0.0384  0.0238  0.0000  0.2018  0.0000 </r>
       </set>
       <set comment="band 22">
        <r>  0.0000  0.0045  0.0026  0.2024  0.0249  0.1279  0.0000  0.0107  0.0000 </r>
        <r>  0.0000  0.0092  0.0212  0.1091  0.0030  0.2373  0.0000  0.0052  0.0000 </r>
       </set>
       <set comment="band 23">
        <r>  0.4332  0.0000  0.0000  0.0000  0.0000  0.0000  0.0000  0.0000  0.0000 </r>
        <r>  0.3268  0.0000  0.0000  0.0000  0.0000  0.0000  0.0000  0.0000  0.0000 </r>
       </set>
       <set comment="band 24">
        <r>  0.3268  0.0000  0.0000  0.0000  0.0000  0.0000  0.0000  0.0000  0.0000 </r>
        <r>  0.4332  0.0000  0.0000  0.0000  0.0000  0.0000  0.0000  0.0000  0.0000 </r>
       </set>
      </set>
     </set>
    </set>
   </array>
  </projected>
 </calculation>
 <structure name="finalpos" >
  <crystal>
   <varray name="basis" >
    <v>       2.84005200       0.00000000       0.00000000 </v>
    <v>       0.00000000       2.84005200       0.00000000 </v>
    <v>       0.00000000       0.00000000       2.84005200 </v>
   </varray>
   <i name="volume">     22.90756226 </i>
   <varray name="rec_basis" >
    <v>       0.35210623       0.00000000       0.00000000 </v>
    <v>       0.00000000       0.35210623       0.00000000 </v>
    <v>       0.00000000       0.00000000       0.35210623 </v>
   </varray>
  </crystal>
  <varray name="positions" >
   <v>       0.00000000       0.00000000       0.00000000 </v>
   <v>       0.50000000       0.50000000       0.50000000 </v>
  </varray>
 </structure>
</modeling>
