=========================================
SLURM_JOB_ID = 63461601
SLURM_JOB_NODELIST = lnode14
SLURM_GPUS = 
SLURM_CPUS_ON_NODE = 16
SLURM_JOB_PARTITION = lenovo
SLURM_TASK_PID = 1223557
CUDA_VISIBLE_DEVICES = 
==========================================
 running on   16 total cores
 distrk:  each k-point on   16 cores,    1 groups
 distr:  one band on    4 cores,    4 groups
 using from now: INCAR     
 vasp.5.4.4.18Apr17-6-g9f103f2a35 (build Apr 28 2018 00:24:27) complex          
  
 POSCAR found type information on POSCAR  Gd
 POSCAR found :  1 types and       4 ions
 scaLAPACK will be used

 ----------------------------------------------------------------------------- 
|                                                                             |
|  ADVICE TO THIS USER RUNNING 'VASP/VAMP'   (HEAR YOUR MASTER'S VOICE ...):  |
|                                                                             |
|      You have a (more or less) 'small supercell' and for smaller cells      |
|      it is recommended  to use the reciprocal-space projection scheme!      |
|      The real space optimization is not  efficient for small cells and it   |
|      is also less accurate ...                                              |
|      Therefore set LREAL=.FALSE. in the  INCAR file                         |
|                                                                             |
 ----------------------------------------------------------------------------- 

 LDA part: xc-table for Pade appr. of Perdew
 POSCAR, INCAR and KPOINTS ok, starting setup
 FFT: planning ...
 WAVECAR not read
 entering main loop
       N       E                     dE             d eps       ncg     rms          rms(c)
DAV:   1     0.747547202242E+03    0.74755E+03   -0.26274E+04 26660   0.410E+03
DAV:   2     0.185482298846E+03   -0.56206E+03   -0.51193E+03 33616   0.543E+02
DAV:   3    -0.207379990115E+02   -0.20622E+03   -0.20370E+03 28616   0.332E+02
DAV:   4    -0.419377763683E+02   -0.21200E+02   -0.20524E+02 34164   0.894E+01
DAV:   5    -0.459274971468E+02   -0.39897E+01   -0.38836E+01 44176   0.269E+01    0.187E+01
DAV:   6    -0.664914236144E+02   -0.20564E+02   -0.40299E+02 37056   0.108E+02    0.408E+01
DAV:   7    -0.520378736230E+02    0.14454E+02   -0.13759E+02 39472   0.124E+02    0.191E+01
DAV:   8    -0.563724824010E+02   -0.43346E+01   -0.38668E+01 38576   0.438E+01    0.163E+01
DAV:   9    -0.569439563497E+02   -0.57147E+00   -0.34835E+00 38416   0.129E+01    0.137E+01
DAV:  10    -0.568091161489E+02    0.13484E+00   -0.16574E+00 34596   0.161E+01    0.803E+00
DAV:  11    -0.565396725126E+02    0.26944E+00   -0.13379E+00 37260   0.955E+00    0.648E+00
DAV:  12    -0.565127324054E+02    0.26940E-01   -0.35306E-01 45660   0.386E+00    0.560E+00
DAV:  13    -0.564799377086E+02    0.32795E-01   -0.50988E-02 39672   0.191E+00    0.422E+00
DAV:  14    -0.564365395054E+02    0.43398E-01   -0.41110E-02 38200   0.236E+00    0.303E+00
DAV:  15    -0.563858700940E+02    0.50669E-01   -0.73379E-02 34368   0.272E+00    0.213E+00
DAV:  16    -0.563692808331E+02    0.16589E-01   -0.35046E-02 38992   0.175E+00    0.160E+00
DAV:  17    -0.563671382235E+02    0.21426E-02   -0.68883E-03 37952   0.846E-01    0.147E+00
DAV:  18    -0.563662159617E+02    0.92226E-03   -0.21185E-03 42116   0.331E-01    0.140E+00
DAV:  19    -0.563659464488E+02    0.26951E-03   -0.79681E-04 41728   0.200E-01    0.131E+00
DAV:  20    -0.563568822377E+02    0.90642E-02   -0.43412E-02 35200   0.149E+00    0.668E-01
DAV:  21    -0.563552868938E+02    0.15953E-02   -0.25647E-02 40004   0.104E+00    0.266E-01
DAV:  22    -0.563555326239E+02   -0.24573E-03   -0.19823E-03 37240   0.419E-01    0.215E-01
DAV:  23    -0.563555734352E+02   -0.40811E-04   -0.11534E-03 38400   0.564E-01    0.253E-01
DAV:  24    -0.563556278521E+02   -0.54417E-04   -0.18595E-03 38460   0.469E-01    0.110E-01
DAV:  25    -0.563556677028E+02   -0.39851E-04   -0.45539E-04 42064   0.250E-01    0.753E-02
DAV:  26    -0.563556998797E+02   -0.32177E-04   -0.24741E-04 35600   0.211E-01    0.393E-02
DAV:  27    -0.563556999317E+02   -0.51925E-07   -0.62969E-05 41968   0.861E-02    0.300E-02
DAV:  28    -0.563556989311E+02    0.10006E-05   -0.21294E-05 42760   0.432E-02    0.234E-02
DAV:  29    -0.563557000336E+02   -0.11025E-05   -0.24484E-06 36336   0.159E-02    0.172E-02
DAV:  30    -0.563556942893E+02    0.57443E-05   -0.13714E-05 39720   0.426E-02    0.720E-03
DAV:  31    -0.563556940660E+02    0.22332E-06   -0.10753E-06 33192   0.980E-03    0.394E-03
DAV:  32    -0.563556937179E+02    0.34805E-06   -0.33173E-07 24024   0.581E-03    0.327E-03
DAV:  33    -0.563556930351E+02    0.68286E-06   -0.45177E-07 21960   0.102E-02    0.180E-03
DAV:  34    -0.563556921680E+02    0.86703E-06   -0.86046E-07 26848   0.838E-03    0.778E-04
DAV:  35    -0.563556920854E+02    0.82686E-07   -0.93119E-08 21560   0.542E-03
   1 F= -.56355692E+02 E0= -.56355692E+02  d E =0.000000E+00  mag=     0.0001
