unknown system                          
   1.00000000000000     
     2.500784    0.000000    0.000000
     1.250392    2.165742    0.000000
     0.000000    0.000000    4.033331
   Co
     2
Direct
  0.666667  0.666667  0.250000
  0.333333  0.333333  0.750000
 
   40   40   60
 0.42620741926E+01 0.42728456908E+01 0.43050461921E+01 0.43583651033E+01 0.44323784526E+01
 0.45266530237E+01 0.46408266975E+01 0.47746172785E+01 0.49277224312E+01 0.50995955005E+01
 0.52891106841E+01 0.54941602143E+01 0.57112515005E+01 0.59351907146E+01 0.61589474901E+01
 0.63737876173E+01 0.65697305593E+01 0.67363336154E+01 0.68637303439E+01 0.69437740571E+01
 0.69710827357E+01 0.69437740571E+01 0.68637303439E+01 0.67363336154E+01 0.65697305593E+01
 0.63737876173E+01 0.61589474901E+01 0.59351907146E+01 0.57112515005E+01 0.54941602143E+01
 0.52891106841E+01 0.50995955005E+01 0.49277224312E+01 0.47746172785E+01 0.46408266975E+01
 0.45266530237E+01 0.44323784526E+01 0.43583651033E+01 0.43050461921E+01 0.42728456908E+01
 0.42728452735E+01 0.42943305759E+01 0.43370854257E+01 0.44007404572E+01 0.44848746394E+01
 0.45891168713E+01 0.47131980145E+01 0.48569079792E+01 0.50199295239E+01 0.52015470544E+01
 0.54002589732E+01 0.56133507113E+01 0.58365088755E+01 0.60635717217E+01 0.62865124944E+01
 0.64957334700E+01 0.66807045834E+01 0.68309123767E+01 0.69370041940E+01 0.69919412634E+01
 0.69919395288E+01 0.69369991723E+01 0.68309045814E+01 0.66806947701E+01 0.64957225118E+01
 0.62865012531E+01 0.60635609402E+01 0.58364991091E+01 0.56133423029E+01 0.54002520661E+01
 0.52015416301E+01 0.50199254506E+01 0.48569050595E+01 0.47131960250E+01 0.45891155916E+01
 0.44848738708E+01 0.44007400327E+01 0.43370852150E+01 0.42943304863E+01 0.42728452497E+01
 0.43050445696E+01 0.43370842559E+01 0.43901653735E+01 0.44639227828E+01 0.45580270385E+01
 0.46722754344E+01 0.48066033713E+01 0.49609746973E+01 0.51351332243E+01 0.53282283583E+01
 0.55383600687E+01 0.57621177169E+01 0.59942096657E+01 0.62272912398E+01 0.64520906886E+01
 0.66578993100E+01 0.68334299598E+01 0.69679643214E+01 0.70526223402E+01 0.70815253761E+01
 0.70526156109E+01 0.69679515644E+01 0.68334124533E+01 0.66578786907E+01 0.64520686946E+01
 0.62272694711E+01 0.59941894088E+01 0.57620998531E+01 0.55383450662E+01 0.53282163258E+01
 0.51351239996E+01 0.49609679441E+01 0.48065986663E+01 0.46722723343E+01 0.45580251265E+01
 0.44639216957E+01 0.43901648162E+01 0.43370840068E+01 0.43050444816E+01 0.42943292454E+01
 0.43583616254E+01 0.44007375357E+01 0.44639210977E+01 0.45476457074E+01 0.46517934472E+01
 0.47764612438E+01 0.49219121799E+01 0.50883770584E+01 0.52757012008E+01 0.54828667085E+01
 0.57074559985E+01 0.59451535919E+01 0.61894043741E+01 0.64313505708E+01 0.66601479929E+01
 0.68637082977E+01 0.70298294075E+01 0.71475750600E+01 0.72086746021E+01 0.72086696345E+01
 0.71475606827E+01 0.70298071014E+01 0.68636802391E+01 0.66601166936E+01 0.64313185049E+01
 0.61893736686E+01 0.59451258307E+01 0.57074321538E+01 0.54828471805E+01 0.52756859277E+01
 0.50883656557E+01 0.49219040769E+01 0.47764557958E+01 0.46517900171E+01 0.45476437183E+01
 0.44639200621E+01 0.44007370702E+01 0.43583614556E+01 0.43370819744E+01 0.43370820127E+01
 0.44323726879E+01 0.44848696325E+01 0.45580234264E+01 0.46517916077E+01 0.47664117806E+01
 0.49024206965E+01 0.50605188674E+01 0.52412554821E+01 0.54445449678E+01 0.56690674302E+01
 0.59116452116E+01 0.61667207303E+01 0.64260785679E+01 0.66789476206E+01 0.69125774128E+01
 0.71133020901E+01 0.72679942031E+01 0.73656930928E+01 0.73991078527E+01 0.73656805647E+01
 0.72679704661E+01 0.71132695448E+01 0.69125391287E+01 0.66789068497E+01 0.64260382956E+01
 0.61666833469E+01 0.59116123458E+01 0.56690399381E+01 0.54445230366E+01 0.52412387973E+01
 0.50605067931E+01 0.49024124344E+01 0.47664064934E+01 0.46517885028E+01 0.45580218072E+01
 0.44848689264E+01 0.44323724602E+01 0.44007342949E+01 0.43901601135E+01 0.44007343358E+01
 0.45266448305E+01 0.45891097583E+01 0.46722699836E+01 0.47764577507E+01 0.49024191334E+01
 0.50512559560E+01 0.52241712352E+01 0.54220070960E+01 0.56446082922E+01 0.58900919515E+01
 0.61541485184E+01 0.64295315688E+01 0.67059043956E+01 0.69701867006E+01 0.72074754629E+01
 0.74025001667E+01 0.75414325534E+01 0.76137437903E+01 0.76137362900E+01 0.75414108544E+01
 0.74024665287E+01 0.72074332020E+01 0.69701396367E+01 0.67058562812E+01 0.64294856186E+01
 0.61541071158E+01 0.58900565499E+01 0.56445794795E+01 0.54219847644E+01 0.52241547916E+01
 0.50512445246E+01 0.49024117215E+01 0.47764533686E+01 0.46722677230E+01 0.45891088395E+01
 0.45266446295E+01 0.44848654692E+01 0.44639139655E+01 0.44639139138E+01 0.44848654063E+01
 0.46408162821E+01 0.47131891396E+01 0.48065965427E+01 0.49219075899E+01 0.50605163786E+01
 0.52241703821E+01 0.54145619649E+01 0.56326923439E+01 0.58780697517E+01 0.61478574024E+01
 0.64361337606E+01 0.67334565175E+01 0.70269186724E+01 0.73008354473E+01 0.75380956460E+01
 0.77220588252E+01 0.78387140339E+01 0.78786920774E+01 0.78386975223E+01 0.77220275594E+01
 0.75380528218E+01 0.73007851445E+01 0.70268652056E+01 0.67334038377E+01 0.64360850230E+01
 0.61478147503E+01 0.58780343067E+01 0.56326643461E+01 0.54145409921E+01 0.52241555830E+01
 0.50605066772E+01 0.49219018423E+01 0.48065936457E+01 0.47131881018E+01 0.46408162685E+01
 0.45891047717E+01 0.45580144427E+01 0.45476340155E+01 0.45580141495E+01 0.45891044102E+01
 0.47746052434E+01 0.48568980910E+01 0.49609673524E+01 0.50883723160E+01 0.52412530713E+01
 0.54220064386E+01 0.56326925782E+01 0.58742092854E+01 0.61453311103E+01 0.64417687851E+01
 0.67554507369E+01 0.70742487817E+01 0.73823467553E+01 0.76613669517E+01 0.78922204188E+01
 0.80574557101E+01 0.81437004177E+01 0.81436915041E+01 0.80574299309E+01 0.78921804823E+01
 0.76613168294E+01 0.73822910182E+01 0.70741919159E+01 0.67553965835E+01 0.64417201936E+01
 0.61452898237E+01 0.58741760181E+01 0.56326672137E+01 0.54219882729E+01 0.52412410441E+01
 0.50883651995E+01 0.49609638899E+01 0.48568970938E+01 0.47746056569E+01 0.47131835070E+01
 0.46722592361E+01 0.46517770656E+01 0.46517767399E+01 0.46722583955E+01 0.47131825544E+01
 0.49277098123E+01 0.50199197997E+01 0.51351266376E+01 0.52756976387E+01 0.54445439970E+01
 0.56446092028E+01 0.58780715927E+01 0.61453327119E+01 0.64439288257E+01 0.67675627344E+01
 0.71054947307E+01 0.74425372191E+01 0.77598449344E+01 0.80365648936E+01 0.82522130114E+01
 0.83894207681E+01 0.84365215674E+01 0.83894028162E+01 0.82521790273E+01 0.80365183685E+01
 0.77597903266E+01 0.74424792471E+01 0.71054377237E+01 0.67675101637E+01 0.64438830711E+01
 0.61452950466E+01 0.58780423282E+01 0.56445879140E+01 0.54445297602E+01 0.52756892409E+01
 0.51351227389E+01 0.50199190538E+01 0.49277109558E+01 0.48568920751E+01 0.48065842094E+01
 0.47764404105E+01 0.47663911489E+01 0.47764393432E+01 0.48065823996E+01 0.48568901512E+01
 0.50995837850E+01 0.52015391015E+01 0.53282242029E+01 0.54828660217E+01 0.56690695853E+01
 0.58900960863E+01 0.61478624614E+01 0.64417735437E+01 0.67675658282E+01 0.71163996416E+01
 0.74744686521E+01 0.78233787604E+01 0.81414562239E+01 0.84059653625E+01 0.86306158413E+01
 0.87362857851E+01 0.87362766152E+01 0.86305893781E+01 0.84059254217E+01 0.81414060930E+01
 0.78233230222E+01 0.74744118248E+01 0.71163456244E+01 0.67675175551E+01 0.64417328616E+01
 0.61478301926E+01 0.58900722047E+01 0.56690534354E+01 0.54828565272E+01 0.53282200411E+01
 0.52015388396E+01 0.50995859890E+01 0.50199137430E+01 0.49609537231E+01 0.49218876240E+01
 0.49023945780E+01 0.49023937269E+01 0.49218852664E+01 0.49609504298E+01 0.50199104140E+01
 0.52891017950E+01 0.54002547911E+01 0.55383603606E+01 0.57074601754E+01 0.59116524227E+01
 0.61541577266E+01 0.64361437860E+01 0.67554602794E+01 0.71055024056E+01 0.74744730837E+01
 0.78453298641E+01 0.81966532151E+01 0.85363084980E+01 0.87933098448E+01 0.89590675530E+01
 0.90163769268E+01 0.89590504771E+01 0.87932776219E+01 0.85362645964E+01 0.81966029365E+01
 0.78452764405E+01 0.74744205487E+01 0.71054540577E+01 0.67554184587E+01 0.64361098403E+01
 0.61541321111E+01 0.59116348701E+01 0.57074498794E+01 0.55383561412E+01 0.54002552328E+01
 0.52891053661E+01 0.52015334049E+01 0.51351121244E+01 0.50883500584E+01 0.50604880723E+01
 0.50512238647E+01 0.50604856976E+01 0.50883457694E+01 0.51351067956E+01 0.52015282410E+01
 0.54941564391E+01 0.56133525930E+01 0.57621246958E+01 0.59451647786E+01 0.61667350215E+01
 0.64295477266E+01 0.67334732084E+01 0.70742645982E+01 0.74425507290E+01 0.78233886253E+01
 0.81966583933E+01 0.85731427100E+01 0.88796128670E+01 0.91036301828E+01 0.92221108431E+01
 0.92221030589E+01 0.91036077130E+01 0.88795781827E+01 0.85730993919E+01 0.81966114101E+01
 0.78233406114E+01 0.74425050616E+01 0.70742239261E+01 0.67334393261E+01 0.64295215852E+01
 0.61667168242E+01 0.59451541112E+01 0.57621206578E+01 0.56133539173E+01 0.54941616050E+01
 0.54002498784E+01 0.53282093360E+01 0.52756736170E+01 0.52412214263E+01 0.52241333664E+01
 0.52241317211E+01 0.52412167665E+01 0.52756667390E+01 0.53282014631E+01 0.54002425284E+01
 0.57112553427E+01 0.58365192303E+01 0.59942255960E+01 0.61894246572E+01 0.64261018209E+01
 0.67059291487E+01 0.70269434003E+01 0.73823699048E+01 0.77598649983E+01 0.81414718939E+01
 0.85363188655E+01 0.88796177510E+01 0.91537642464E+01 0.93312241700E+01 0.93926143492E+01
 0.93312112021E+01 0.91537397340E+01 0.88795842694E+01 0.85362796779E+01 0.81414311728E+01
 0.77598247898E+01 0.73823328902E+01 0.70269116413E+01 0.67059040152E+01 0.64260840007E+01
 0.61894142106E+01 0.59942220275E+01 0.58365215643E+01 0.57112622076E+01 0.56133488703E+01
 0.55383457670E+01 0.54828409692E+01 0.54445097180E+01 0.54219650402E+01 0.54145163731E+01
 0.54219608733E+01 0.54445020219E+01 0.54828309341E+01 0.55383349828E+01 0.56133391372E+01
 0.59352046533E+01 0.60635928110E+01 0.62273181283E+01 0.64313816784E+01 0.66789812589E+01
 0.69702211328E+01 0.73008689164E+01 0.76613977281E+01 0.80365913883E+01 0.84059863210E+01
 0.87933245627E+01 0.91036387889E+01 0.93312276175E+01 0.94516505190E+01 0.94516454091E+01
 0.93312128173E+01 0.91036158311E+01 0.87932956998E+01 0.84059549875E+01 0.80365590719E+01
 0.76613668168E+01 0.73008414734E+01 0.69701987719E+01 0.66789650761E+01 0.64313722222E+01
 0.62273153920E+01 0.60635962407E+01 0.59352131782E+01 0.58365170485E+01 0.57621110628E+01
 0.57074350157E+01 0.56690336927E+01 0.56445643790E+01 0.56326416487E+01 0.56326390154E+01
 0.56445568552E+01 0.56690223505E+01 0.57074214672E+01 0.57620972374E+01 0.58365049485E+01
 0.61589736571E+01 0.62865460957E+01 0.64521299406E+01 0.66601909445E+01 0.69126220477E+01
 0.72075197470E+01 0.75381375661E+01 0.78922580693E+01 0.82522447606E+01 0.86306405328E+01
 0.89590848384E+01 0.92221212172E+01 0.93926191837E+01 0.94516467141E+01 0.93926122848E+01
 0.92221080588E+01 0.89590666468E+01 0.86306189212E+01 0.82522220425E+01 0.78922352964E+01
 0.75381164937E+01 0.72075019767E+01 0.69126089127E+01 0.66601834054E+01 0.64521284930E+01
 0.62865506939E+01 0.61589836687E+01 0.60635924400E+01 0.59942136256E+01 0.59451405816E+01
 0.59116162331E+01 0.58900492346E+01 0.58780166192E+01 0.58741498696E+01 0.58780104399E+01
 0.58900377166E+01 0.59116009224E+01 0.59451234901E+01 0.59941969389E+01 0.60635782299E+01
 0.63738274248E+01 0.64957805129E+01 0.66579513769E+01 0.68637630658E+01 0.71133572050E+01
 0.74025532885E+01 0.77221076996E+01 0.80574983125E+01 0.83894555298E+01 0.87363118082E+01
 0.90163942875E+01 0.92221127825E+01 0.93312151503E+01 0.93312133176E+01 0.92221074076E+01
 0.90163857399E+01 0.87363006974E+01 0.83894430841E+01 0.80574849617E+01 0.77220945994E+01
 0.74025417347E+01 0.71133485206E+01 0.68637584552E+01 0.66579517621E+01 0.64957863711E+01
 0.63738386538E+01 0.62865477169E+01 0.62273084896E+01 0.61894025683E+01 0.61667000793E+01
 0.61541106456E+01 0.61478053029E+01 0.61452689189E+01 0.61452652990E+01 0.61477949234E+01
 0.61540948636E+01 0.61666808981E+01 0.61893823133E+01 0.62272894597E+01 0.62865318785E+01
 0.65697843443E+01 0.66807648295E+01 0.68334940561E+01 0.70298946782E+01 0.72680579724E+01
 0.75414922109E+01 0.78387671606E+01 0.81437450006E+01 0.84365562747E+01 0.87363009595E+01
 0.89590651555E+01 0.91036143938E+01 0.91537408034E+01 0.91036139044E+01 0.89590640379E+01
 0.87362990171E+01 0.84365536027E+01 0.81437413568E+01 0.78387628928E+01 0.75414880367E+01
 0.72680549247E+01 0.70298939656E+01 0.68334968609E+01 0.66807720767E+01 0.65697964798E+01
 0.64957842278E+01 0.64521232276E+01 0.64313628320E+01 0.64260697858E+01 0.64295025058E+01
 0.64360867893E+01 0.64417077542E+01 0.64438586971E+01 0.64416998488E+01 0.64360720041E+01
 0.64294827045E+01 0.64260473403E+01 0.64313402268E+01 0.64521026836E+01 0.64957674122E+01
 0.67364003838E+01 0.68309842267E+01 0.69680382971E+01 0.71476481804E+01 0.73657624200E+01
 0.76138065394E+01 0.78787458147E+01 0.81437344267E+01 0.83894340484E+01 0.86306090113E+01
 0.87932871487E+01 0.88795799608E+01 0.88795811622E+01 0.87932905053E+01 0.86306138588E+01
 0.83894395514E+01 0.81437396949E+01 0.78787503120E+01 0.76138102148E+01 0.73657657602E+01
 0.71476521298E+01 0.69680440648E+01 0.68309930221E+01 0.67364131274E+01 0.66807706795E+01
 0.66579480767E+01 0.66601763733E+01 0.66789537638E+01 0.67058879958E+01 0.67334190362E+01
 0.67553954073E+01 0.67674942945E+01 0.67674899995E+01 0.67553830814E+01 0.67334002477E+01
 0.67058650237E+01 0.66789291825E+01 0.66601526170E+01 0.66579270739E+01 0.66807536192E+01
 0.68638076949E+01 0.69370846961E+01 0.70527027750E+01 0.72087517686E+01 0.73991786644E+01
 0.76137979497E+01 0.78387477932E+01 0.80574674568E+01 0.82522036056E+01 0.84059381132E+01
 0.85362672853E+01 0.85730952991E+01 0.85362719957E+01 0.84059467146E+01 0.82522148656E+01
 0.80574798805E+01 0.78387600344E+01 0.76138091246E+01 0.73991885373E+01 0.72087607762E+01
 0.70527118938E+01 0.69370951912E+01 0.68638208004E+01 0.68309922143E+01 0.68334945301E+01
 0.68637536221E+01 0.69126005501E+01 0.69701861636E+01 0.70268947834E+01 0.70742038398E+01
 0.71054328921E+01 0.71163264839E+01 0.71054242384E+01 0.70741876552E+01 0.70268730857E+01
 0.69701614692E+01 0.69125754065E+01 0.68637301766E+01 0.68334742195E+01 0.68309756235E+01
 0.69438583387E+01 0.69920263581E+01 0.70816079135E+01 0.72087463207E+01 0.73657483307E+01
 0.75414671031E+01 0.77220704902E+01 0.78922094104E+01 0.80365339222E+01 0.81414101862E+01
 0.81965984725E+01 0.81966017656E+01 0.81414195897E+01 0.80365481229E+01 0.78922265665E+01
 0.77220886506E+01 0.75414846252E+01 0.73657641982E+01 0.72087602958E+01 0.70816205065E+01
 0.69920386368E+01 0.69438716255E+01 0.69370947981E+01 0.69680427720E+01 0.70298909757E+01
 0.71133428570E+01 0.72074927728E+01 0.73008283673E+01 0.73823164054E+01 0.74424868323E+01
 0.74744032859E+01 0.74743989965E+01 0.74424745353E+01 0.73822976930E+01 0.73008055172E+01
 0.72074682891E+01 0.71133189999E+01 0.70298693834E+01 0.69680242472E+01 0.69370792810E+01
 0.69711694306E+01 0.69920245093E+01 0.70526954899E+01 0.71476322355E+01 0.72680308427E+01
 0.74025135604E+01 0.75380853622E+01 0.76613350213E+01 0.77597956798E+01 0.78233182271E+01
 0.78452649270E+01 0.78233259462E+01 0.77598100704E+01 0.76613542229E+01 0.75381071063E+01
 0.74025356398E+01 0.72680515300E+01 0.71476505619E+01 0.70527113383E+01 0.69920385227E+01
 0.69711827711E+01 0.69920385227E+01 0.70527113383E+01 0.71476505619E+01 0.72680515300E+01
 0.74025356398E+01 0.75381071063E+01 0.76613542229E+01 0.77598100704E+01 0.78233259462E+01
 0.78452649270E+01 0.78233182271E+01 0.77597956798E+01 0.76613350213E+01 0.75380853622E+01
 0.74025135604E+01 0.72680308427E+01 0.71476322355E+01 0.70526954899E+01 0.69920245093E+01
 0.69438583387E+01 0.69370792810E+01 0.69680242472E+01 0.70298693834E+01 0.71133189999E+01
 0.72074682891E+01 0.73008055172E+01 0.73822976930E+01 0.74424745353E+01 0.74743989965E+01
 0.74744032859E+01 0.74424868323E+01 0.73823164054E+01 0.73008283673E+01 0.72074927728E+01
 0.71133428570E+01 0.70298909757E+01 0.69680427720E+01 0.69370947981E+01 0.69438716255E+01
 0.69920386368E+01 0.70816205065E+01 0.72087602958E+01 0.73657641982E+01 0.75414846252E+01
 0.77220886506E+01 0.78922265665E+01 0.80365481229E+01 0.81414195897E+01 0.81966017656E+01
 0.81965984725E+01 0.81414101862E+01 0.80365339222E+01 0.78922094104E+01 0.77220704902E+01
 0.75414671031E+01 0.73657483307E+01 0.72087463207E+01 0.70816079135E+01 0.69920263581E+01
 0.68638076949E+01 0.68309756235E+01 0.68334742195E+01 0.68637301766E+01 0.69125754065E+01
 0.69701614692E+01 0.70268730857E+01 0.70741876552E+01 0.71054242384E+01 0.71163264839E+01
 0.71054328921E+01 0.70742038398E+01 0.70268947834E+01 0.69701861636E+01 0.69126005501E+01
 0.68637536221E+01 0.68334945301E+01 0.68309922143E+01 0.68638208004E+01 0.69370951912E+01
 0.70527118938E+01 0.72087607762E+01 0.73991885373E+01 0.76138091246E+01 0.78387600344E+01
 0.80574798805E+01 0.82522148656E+01 0.84059467146E+01 0.85362719957E+01 0.85730952991E+01
 0.85362672853E+01 0.84059381132E+01 0.82522036056E+01 0.80574674568E+01 0.78387477932E+01
 0.76137979497E+01 0.73991786644E+01 0.72087517686E+01 0.70527027750E+01 0.69370846961E+01
 0.67364003838E+01 0.66807536192E+01 0.66579270739E+01 0.66601526170E+01 0.66789291825E+01
 0.67058650237E+01 0.67334002477E+01 0.67553830814E+01 0.67674899995E+01 0.67674942945E+01
 0.67553954073E+01 0.67334190362E+01 0.67058879958E+01 0.66789537638E+01 0.66601763733E+01
 0.66579480767E+01 0.66807706795E+01 0.67364131274E+01 0.68309930221E+01 0.69680440648E+01
 0.71476521298E+01 0.73657657602E+01 0.76138102148E+01 0.78787503120E+01 0.81437396949E+01
 0.83894395514E+01 0.86306138588E+01 0.87932905053E+01 0.88795811622E+01 0.88795799608E+01
 0.87932871487E+01 0.86306090113E+01 0.83894340484E+01 0.81437344267E+01 0.78787458147E+01
 0.76138065394E+01 0.73657624200E+01 0.71476481804E+01 0.69680382971E+01 0.68309842267E+01
 0.65697843443E+01 0.64957674122E+01 0.64521026836E+01 0.64313402268E+01 0.64260473403E+01
 0.64294827045E+01 0.64360720041E+01 0.64416998488E+01 0.64438586971E+01 0.64417077542E+01
 0.64360867893E+01 0.64295025058E+01 0.64260697858E+01 0.64313628320E+01 0.64521232276E+01
 0.64957842278E+01 0.65697964798E+01 0.66807720767E+01 0.68334968609E+01 0.70298939656E+01
 0.72680549247E+01 0.75414880367E+01 0.78387628928E+01 0.81437413568E+01 0.84365536027E+01
 0.87362990171E+01 0.89590640379E+01 0.91036139044E+01 0.91537408034E+01 0.91036143938E+01
 0.89590651555E+01 0.87363009595E+01 0.84365562747E+01 0.81437450006E+01 0.78387671606E+01
 0.75414922109E+01 0.72680579724E+01 0.70298946782E+01 0.68334940561E+01 0.66807648295E+01
 0.63738274248E+01 0.62865318785E+01 0.62272894597E+01 0.61893823133E+01 0.61666808981E+01
 0.61540948636E+01 0.61477949234E+01 0.61452652990E+01 0.61452689189E+01 0.61478053029E+01
 0.61541106456E+01 0.61667000793E+01 0.61894025683E+01 0.62273084896E+01 0.62865477169E+01
 0.63738386538E+01 0.64957863711E+01 0.66579517621E+01 0.68637584552E+01 0.71133485206E+01
 0.74025417347E+01 0.77220945994E+01 0.80574849617E+01 0.83894430841E+01 0.87363006974E+01
 0.90163857399E+01 0.92221074076E+01 0.93312133176E+01 0.93312151503E+01 0.92221127825E+01
 0.90163942875E+01 0.87363118082E+01 0.83894555298E+01 0.80574983125E+01 0.77221076996E+01
 0.74025532885E+01 0.71133572050E+01 0.68637630658E+01 0.66579513769E+01 0.64957805129E+01
 0.61589736571E+01 0.60635782299E+01 0.59941969389E+01 0.59451234901E+01 0.59116009224E+01
 0.58900377166E+01 0.58780104399E+01 0.58741498696E+01 0.58780166192E+01 0.58900492346E+01
 0.59116162331E+01 0.59451405816E+01 0.59942136256E+01 0.60635924400E+01 0.61589836687E+01
 0.62865506939E+01 0.64521284930E+01 0.66601834054E+01 0.69126089127E+01 0.72075019767E+01
 0.75381164937E+01 0.78922352964E+01 0.82522220425E+01 0.86306189212E+01 0.89590666468E+01
 0.92221080588E+01 0.93926122848E+01 0.94516467141E+01 0.93926191837E+01 0.92221212172E+01
 0.89590848384E+01 0.86306405328E+01 0.82522447606E+01 0.78922580693E+01 0.75381375661E+01
 0.72075197470E+01 0.69126220477E+01 0.66601909445E+01 0.64521299406E+01 0.62865460957E+01
 0.59352046533E+01 0.58365049485E+01 0.57620972374E+01 0.57074214672E+01 0.56690223505E+01
 0.56445568552E+01 0.56326390154E+01 0.56326416487E+01 0.56445643790E+01 0.56690336927E+01
 0.57074350157E+01 0.57621110628E+01 0.58365170485E+01 0.59352131782E+01 0.60635962407E+01
 0.62273153920E+01 0.64313722222E+01 0.66789650761E+01 0.69701987719E+01 0.73008414734E+01
 0.76613668168E+01 0.80365590719E+01 0.84059549875E+01 0.87932956998E+01 0.91036158311E+01
 0.93312128173E+01 0.94516454091E+01 0.94516505190E+01 0.93312276175E+01 0.91036387889E+01
 0.87933245627E+01 0.84059863210E+01 0.80365913883E+01 0.76613977281E+01 0.73008689164E+01
 0.69702211328E+01 0.66789812589E+01 0.64313816784E+01 0.62273181283E+01 0.60635928110E+01
 0.57112553427E+01 0.56133391372E+01 0.55383349828E+01 0.54828309341E+01 0.54445020219E+01
 0.54219608733E+01 0.54145163731E+01 0.54219650402E+01 0.54445097180E+01 0.54828409692E+01
 0.55383457670E+01 0.56133488703E+01 0.57112622076E+01 0.58365215643E+01 0.59942220275E+01
 0.61894142106E+01 0.64260840007E+01 0.67059040152E+01 0.70269116413E+01 0.73823328902E+01
 0.77598247898E+01 0.81414311728E+01 0.85362796779E+01 0.88795842694E+01 0.91537397340E+01
 0.93312112021E+01 0.93926143492E+01 0.93312241700E+01 0.91537642464E+01 0.88796177510E+01
 0.85363188655E+01 0.81414718939E+01 0.77598649983E+01 0.73823699048E+01 0.70269434003E+01
 0.67059291487E+01 0.64261018209E+01 0.61894246572E+01 0.59942255960E+01 0.58365192303E+01
 0.54941564391E+01 0.54002425284E+01 0.53282014631E+01 0.52756667390E+01 0.52412167665E+01
 0.52241317211E+01 0.52241333664E+01 0.52412214263E+01 0.52756736170E+01 0.53282093360E+01
 0.54002498784E+01 0.54941616050E+01 0.56133539173E+01 0.57621206578E+01 0.59451541112E+01
 0.61667168242E+01 0.64295215852E+01 0.67334393261E+01 0.70742239261E+01 0.74425050616E+01
 0.78233406114E+01 0.81966114101E+01 0.85730993919E+01 0.88795781827E+01 0.91036077130E+01
 0.92221030589E+01 0.92221108431E+01 0.91036301828E+01 0.88796128670E+01 0.85731427100E+01
 0.81966583933E+01 0.78233886253E+01 0.74425507290E+01 0.70742645982E+01 0.67334732084E+01
 0.64295477266E+01 0.61667350215E+01 0.59451647786E+01 0.57621246958E+01 0.56133525930E+01
 0.52891017950E+01 0.52015282410E+01 0.51351067956E+01 0.50883457694E+01 0.50604856976E+01
 0.50512238647E+01 0.50604880723E+01 0.50883500584E+01 0.51351121244E+01 0.52015334049E+01
 0.52891053661E+01 0.54002552328E+01 0.55383561412E+01 0.57074498794E+01 0.59116348701E+01
 0.61541321111E+01 0.64361098403E+01 0.67554184587E+01 0.71054540577E+01 0.74744205487E+01
 0.78452764405E+01 0.81966029365E+01 0.85362645964E+01 0.87932776219E+01 0.89590504771E+01
 0.90163769268E+01 0.89590675530E+01 0.87933098448E+01 0.85363084980E+01 0.81966532151E+01
 0.78453298641E+01 0.74744730837E+01 0.71055024056E+01 0.67554602794E+01 0.64361437860E+01
 0.61541577266E+01 0.59116524227E+01 0.57074601754E+01 0.55383603606E+01 0.54002547911E+01
 0.50995837850E+01 0.50199104140E+01 0.49609504298E+01 0.49218852664E+01 0.49023937269E+01
 0.49023945780E+01 0.49218876240E+01 0.49609537231E+01 0.50199137430E+01 0.50995859890E+01
 0.52015388396E+01 0.53282200411E+01 0.54828565272E+01 0.56690534354E+01 0.58900722047E+01
 0.61478301926E+01 0.64417328616E+01 0.67675175551E+01 0.71163456244E+01 0.74744118248E+01
 0.78233230222E+01 0.81414060930E+01 0.84059254217E+01 0.86305893781E+01 0.87362766152E+01
 0.87362857851E+01 0.86306158413E+01 0.84059653625E+01 0.81414562239E+01 0.78233787604E+01
 0.74744686521E+01 0.71163996416E+01 0.67675658282E+01 0.64417735437E+01 0.61478624614E+01
 0.58900960863E+01 0.56690695853E+01 0.54828660217E+01 0.53282242029E+01 0.52015391015E+01
 0.49277098123E+01 0.48568901512E+01 0.48065823996E+01 0.47764393432E+01 0.47663911489E+01
 0.47764404105E+01 0.48065842094E+01 0.48568920751E+01 0.49277109558E+01 0.50199190538E+01
 0.51351227389E+01 0.52756892409E+01 0.54445297602E+01 0.56445879140E+01 0.58780423282E+01
 0.61452950466E+01 0.64438830711E+01 0.67675101637E+01 0.71054377237E+01 0.74424792471E+01
 0.77597903266E+01 0.80365183685E+01 0.82521790273E+01 0.83894028162E+01 0.84365215674E+01
 0.83894207681E+01 0.82522130114E+01 0.80365648936E+01 0.77598449344E+01 0.74425372191E+01
 0.71054947307E+01 0.67675627344E+01 0.64439288257E+01 0.61453327119E+01 0.58780715927E+01
 0.56446092028E+01 0.54445439970E+01 0.52756976387E+01 0.51351266376E+01 0.50199197997E+01
 0.47746052434E+01 0.47131825544E+01 0.46722583955E+01 0.46517767399E+01 0.46517770656E+01
 0.46722592361E+01 0.47131835070E+01 0.47746056569E+01 0.48568970938E+01 0.49609638899E+01
 0.50883651995E+01 0.52412410441E+01 0.54219882729E+01 0.56326672137E+01 0.58741760181E+01
 0.61452898237E+01 0.64417201936E+01 0.67553965835E+01 0.70741919159E+01 0.73822910182E+01
 0.76613168294E+01 0.78921804823E+01 0.80574299309E+01 0.81436915041E+01 0.81437004177E+01
 0.80574557101E+01 0.78922204188E+01 0.76613669517E+01 0.73823467553E+01 0.70742487817E+01
 0.67554507369E+01 0.64417687851E+01 0.61453311103E+01 0.58742092854E+01 0.56326925782E+01
 0.54220064386E+01 0.52412530713E+01 0.50883723160E+01 0.49609673524E+01 0.48568980910E+01
 0.46408162821E+01 0.45891044102E+01 0.45580141495E+01 0.45476340155E+01 0.45580144427E+01
 0.45891047717E+01 0.46408162685E+01 0.47131881018E+01 0.48065936457E+01 0.49219018423E+01
 0.50605066772E+01 0.52241555830E+01 0.54145409921E+01 0.56326643461E+01 0.58780343067E+01
 0.61478147503E+01 0.64360850230E+01 0.67334038377E+01 0.70268652056E+01 0.73007851445E+01
 0.75380528218E+01 0.77220275594E+01 0.78386975223E+01 0.78786920774E+01 0.78387140339E+01
 0.77220588252E+01 0.75380956460E+01 0.73008354473E+01 0.70269186724E+01 0.67334565175E+01
 0.64361337606E+01 0.61478574024E+01 0.58780697517E+01 0.56326923439E+01 0.54145619649E+01
 0.52241703821E+01 0.50605163786E+01 0.49219075899E+01 0.48065965427E+01 0.47131891396E+01
 0.45266448305E+01 0.44848654063E+01 0.44639139138E+01 0.44639139655E+01 0.44848654692E+01
 0.45266446295E+01 0.45891088395E+01 0.46722677230E+01 0.47764533686E+01 0.49024117215E+01
 0.50512445246E+01 0.52241547916E+01 0.54219847644E+01 0.56445794795E+01 0.58900565499E+01
 0.61541071158E+01 0.64294856186E+01 0.67058562812E+01 0.69701396367E+01 0.72074332020E+01
 0.74024665287E+01 0.75414108544E+01 0.76137362900E+01 0.76137437903E+01 0.75414325534E+01
 0.74025001667E+01 0.72074754629E+01 0.69701867006E+01 0.67059043956E+01 0.64295315688E+01
 0.61541485184E+01 0.58900919515E+01 0.56446082922E+01 0.54220070960E+01 0.52241712352E+01
 0.50512559560E+01 0.49024191334E+01 0.47764577507E+01 0.46722699836E+01 0.45891097583E+01
 0.44323726879E+01 0.44007343358E+01 0.43901601135E+01 0.44007342949E+01 0.44323724602E+01
 0.44848689264E+01 0.45580218072E+01 0.46517885028E+01 0.47664064934E+01 0.49024124344E+01
 0.50605067931E+01 0.52412387973E+01 0.54445230366E+01 0.56690399381E+01 0.59116123458E+01
 0.61666833469E+01 0.64260382956E+01 0.66789068497E+01 0.69125391287E+01 0.71132695448E+01
 0.72679704661E+01 0.73656805647E+01 0.73991078527E+01 0.73656930928E+01 0.72679942031E+01
 0.71133020901E+01 0.69125774128E+01 0.66789476206E+01 0.64260785679E+01 0.61667207303E+01
 0.59116452116E+01 0.56690674302E+01 0.54445449678E+01 0.52412554821E+01 0.50605188674E+01
 0.49024206965E+01 0.47664117806E+01 0.46517916077E+01 0.45580234264E+01 0.44848696325E+01
 0.43583616254E+01 0.43370820127E+01 0.43370819744E+01 0.43583614556E+01 0.44007370702E+01
 0.44639200621E+01 0.45476437183E+01 0.46517900171E+01 0.47764557958E+01 0.49219040769E+01
 0.50883656557E+01 0.52756859277E+01 0.54828471805E+01 0.57074321538E+01 0.59451258307E+01
 0.61893736686E+01 0.64313185049E+01 0.66601166936E+01 0.68636802391E+01 0.70298071014E+01
 0.71475606827E+01 0.72086696345E+01 0.72086746021E+01 0.71475750600E+01 0.70298294075E+01
 0.68637082978E+01 0.66601479929E+01 0.64313505708E+01 0.61894043741E+01 0.59451535919E+01
 0.57074559985E+01 0.54828667085E+01 0.52757012008E+01 0.50883770584E+01 0.49219121799E+01
 0.47764612438E+01 0.46517934472E+01 0.45476457074E+01 0.44639210977E+01 0.44007375357E+01
 0.43050445696E+01 0.42943292454E+01 0.43050444816E+01 0.43370840068E+01 0.43901648162E+01
 0.44639216957E+01 0.45580251265E+01 0.46722723343E+01 0.48065986663E+01 0.49609679441E+01
 0.51351239996E+01 0.53282163258E+01 0.55383450662E+01 0.57620998531E+01 0.59941894088E+01
 0.62272694711E+01 0.64520686946E+01 0.66578786907E+01 0.68334124533E+01 0.69679515644E+01
 0.70526156109E+01 0.70815253761E+01 0.70526223402E+01 0.69679643214E+01 0.68334299598E+01
 0.66578993100E+01 0.64520906886E+01 0.62272912398E+01 0.59942096657E+01 0.57621177169E+01
 0.55383600687E+01 0.53282283583E+01 0.51351332243E+01 0.49609746973E+01 0.48066033713E+01
 0.46722754344E+01 0.45580270385E+01 0.44639227828E+01 0.43901653735E+01 0.43370842559E+01
 0.42728452735E+01 0.42728452497E+01 0.42943304863E+01 0.43370852150E+01 0.44007400327E+01
 0.44848738708E+01 0.45891155916E+01 0.47131960250E+01 0.48569050595E+01 0.50199254506E+01
 0.52015416301E+01 0.54002520661E+01 0.56133423029E+01 0.58364991091E+01 0.60635609402E+01
 0.62865012531E+01 0.64957225118E+01 0.66806947701E+01 0.68309045814E+01 0.69369991723E+01
 0.69919395288E+01 0.69919412634E+01 0.69370041940E+01 0.68309123767E+01 0.66807045834E+01
 0.64957334700E+01 0.62865124944E+01 0.60635717217E+01 0.58365088755E+01 0.56133507113E+01
 0.54002589732E+01 0.52015470544E+01 0.50199295239E+01 0.48569079792E+01 0.47131980145E+01
 0.45891168713E+01 0.44848746394E+01 0.44007404572E+01 0.43370854257E+01 0.42943305759E+01
 0.42744149797E+01 0.42852271421E+01 0.43175526452E+01 0.43710894435E+01 0.44454372600E+01
 0.45402108353E+01 0.46551252941E+01 0.47900022172E+01 0.49446575619E+01 0.51186571625E+01
 0.53109565075E+01 0.55194724780E+01 0.57406608711E+01 0.59691913481E+01 0.61978172899E+01
 0.64175269463E+01 0.66180291876E+01 0.67885704683E+01 0.69190053605E+01 0.70009674280E+01
 0.70289344393E+01 0.70009756870E+01 0.69190210735E+01 0.67885921695E+01 0.66180550004E+01
 0.64175548780E+01 0.61978455029E+01 0.59692183567E+01 0.57406856394E+01 0.55194944219E+01