=========================================
SLURM_JOB_ID = 30554668
SLURM_JOB_NODELIST = lnode20
SLURM_GPUS = 
SLURM_CPUS_ON_NODE = 8
SLURM_JOB_PARTITION = lenovo
SLURM_TASK_PID = 1281975
CUDA_VISIBLE_DEVICES = 
==========================================
 running on    8 total cores
 distrk:  each k-point on    8 cores,    1 groups
 distr:  one band on    1 cores,    8 groups
 using from now: INCAR     
 vasp.5.4.4.18Apr17-6-g9f103f2a35 (build Apr 28 2018 00:24:27) complex          
  
 POSCAR found type information on POSCAR  Ni
 POSCAR found :  1 types and       2 ions
 scaLAPACK will be used

 ----------------------------------------------------------------------------- 
|                                                                             |
|           W    W    AA    RRRRR   N    N  II  N    N   GGGG   !!!           |
|           W    W   A  A   R    R  NN   N  II  NN   N  G    G  !!!           |
|           W    W  A    A  R    R  N N  N  II  N N  N  G       !!!           |
|           W WW W  AAAAAA  RRRRR   N  N N  II  N  N N  G  GGG   !            |
|           WW  WW  A    A  R   R   N   NN  II  N   NN  G    G                |
|           W    W  A    A  R    R  N    N  II  N    N   GGGG   !!!           |
|                                                                             |
|      For optimal performance we recommend to set                            |
|        NCORE= 4 - approx SQRT( number of cores)                             |
|      NCORE specifies how many cores store one orbital (NPAR=cpu/NCORE).     |
|      This setting can  greatly improve the performance of VASP for DFT.     |
|      The default,   NCORE=1            might be grossly inefficient         |
|      on modern multi-core architectures or massively parallel machines.     |
|      Do your own testing !!!!                                               |
|      Unfortunately you need to use the default for GW and RPA calculations. |
|      (for HF NCORE is supported but not extensively tested yet)             |
|                                                                             |
 ----------------------------------------------------------------------------- 

 LDA part: xc-table for Pade appr. of Perdew
 POSCAR, INCAR and KPOINTS ok, starting setup
 FFT: planning ...
 WAVECAR not read
 entering main loop
       N       E                     dE             d eps       ncg     rms          rms(c)
DAV:   1     0.842139425356E+02    0.84214E+02   -0.94998E+03  8504   0.177E+03
DAV:   2    -0.103756434008E+02   -0.94590E+02   -0.89510E+02  8136   0.260E+02
DAV:   3    -0.127852557665E+02   -0.24096E+01   -0.23654E+01  9848   0.573E+01
DAV:   4    -0.128146329563E+02   -0.29377E-01   -0.29369E-01 10952   0.498E+00
DAV:   5    -0.128150250777E+02   -0.39212E-03   -0.39212E-03 10128   0.501E-01    0.144E+01
DAV:   6    -0.114871184218E+02    0.13279E+01   -0.12376E+01  8352   0.754E+01    0.828E+00
DAV:   7    -0.108621620467E+02    0.62496E+00   -0.24996E+00  8464   0.311E+01    0.258E+00
DAV:   8    -0.108323102707E+02    0.29852E-01   -0.32684E-02 12520   0.398E+00    0.861E-01
DAV:   9    -0.108296052993E+02    0.27050E-02   -0.35111E-03 10672   0.815E-01    0.350E-01
DAV:  10    -0.108286445771E+02    0.96072E-03   -0.71192E-04 13432   0.589E-01    0.803E-02
DAV:  11    -0.108287396805E+02   -0.95103E-04   -0.68190E-05 11648   0.169E-01    0.520E-02
DAV:  12    -0.108287586198E+02   -0.18939E-04   -0.11939E-05 10960   0.697E-02    0.499E-02
DAV:  13    -0.108287806569E+02   -0.22037E-04   -0.20548E-04 11616   0.488E-01    0.203E-02
DAV:  14    -0.108288174242E+02   -0.36767E-04   -0.56108E-05 12816   0.160E-01    0.100E-02
DAV:  15    -0.108288294071E+02   -0.11983E-04   -0.61708E-06  9432   0.625E-02    0.856E-03
DAV:  16    -0.108288313069E+02   -0.18997E-05   -0.13824E-06  4496   0.328E-02    0.799E-03
DAV:  17    -0.108288335120E+02   -0.22052E-05   -0.10472E-05  7968   0.110E-01    0.237E-03
DAV:  18    -0.108288354418E+02   -0.19298E-05   -0.17168E-06  5288   0.283E-02    0.458E-03
DAV:  19    -0.108288359888E+02   -0.54698E-06   -0.56499E-07  4384   0.191E-02
   1 F= -.10828836E+02 E0= -.10820690E+02  d E =-.244375E-01  mag=    -0.0000
