 vasp.5.4.4.18Apr17-6-g9f103f2a35 (build Apr 28 2018 00:24:27) complex          
  
 executed on             LinuxIFC date 2021.03.19  19:37:15
 running on    8 total cores
 distrk:  each k-point on    8 cores,    1 groups
 distr:  one band on NCORES_PER_BAND=   1 cores,    8 groups


--------------------------------------------------------------------------------------------------------


 INCAR:
 POTCAR:    PAW_PBE Ni 02Aug2007                  

 ----------------------------------------------------------------------------- 
|                                                                             |
|           W    W    AA    RRRRR   N    N  II  N    N   GGGG   !!!           |
|           W    W   A  A   R    R  NN   N  II  NN   N  G    G  !!!           |
|           W    W  A    A  R    R  N N  N  II  N N  N  G       !!!           |
|           W WW W  AAAAAA  RRRRR   N  N N  II  N  N N  G  GGG   !            |
|           WW  WW  A    A  R   R   N   NN  II  N   NN  G    G                |
|           W    W  A    A  R    R  N    N  II  N    N   GGGG   !!!           |
|                                                                             |
|      For optimal performance we recommend to set                            |
|        NCORE= 4 - approx SQRT( number of cores)                             |
|      NCORE specifies how many cores store one orbital (NPAR=cpu/NCORE).     |
|      This setting can  greatly improve the performance of VASP for DFT.     |
|      The default,   NCORE=1            might be grossly inefficient         |
|      on modern multi-core architectures or massively parallel machines.     |
|      Do your own testing !!!!                                               |
|      Unfortunately you need to use the default for GW and RPA calculations. |
|      (for HF NCORE is supported but not extensively tested yet)             |
|                                                                             |
 ----------------------------------------------------------------------------- 

 POTCAR:    PAW_PBE Ni 02Aug2007                  
   SHA256 =  0534bc51ca8003dfef23f56753fef9fdd3e22eac8d719fccacb59f3e6b7a69c7 Ni
   COPYR  = (c) Copyright 02Aug2007 Georg Kresse                                
   COPYR  = This file is part of the software VASP. Any use, copying, and all ot
   COPYR  = If you do not have a valid VASP license, you may not use, copy or di
   VRHFIN =Ni:                                                                  
   LEXCH  = PE                                                                  
   EATOM  =  1077.6739 eV,   79.2068 Ry                                         
                                                                                
   TITEL  = PAW_PBE Ni 02Aug2007                                                
   LULTRA =        F    use ultrasoft PP ?                                      
   IUNSCR =        1    unscreen: 0-lin 1-nonlin 2-no                           
   RPACOR =    2.000    partial core radius                                     
   POMASS =   58.690; ZVAL   =   10.000    mass and valenz                      
   RCORE  =    2.300    outmost cutoff radius                                   
   RWIGS  =    2.430; RWIGS  =    1.286    wigner-seitz radius (au A)           
   ENMAX  =  269.532; ENMIN  =  202.149 eV                                      
   RCLOC  =    1.201    cutoff for local pot                                    
   LCOR   =        T    correct aug charges                                     
   LPAW   =        T    paw PP                                                  
   EAUG   =  544.565                                                            
   DEXC   =    0.000                                                            
   RMAX   =    2.357    core radius for proj-oper                               
   RAUG   =    1.300    factor for augmentation sphere                          
   RDEP   =    2.390    radius for radial grids                                 
   RDEPT  =    1.838    core radius for aug-charge                              
                                                                                
   Atomic configuration                                                         
    9 entries                                                                   
     n  l   j            E        occ.                                          
     1  0  0.50     -8206.4253   2.0000                                         
     2  0  0.50      -976.1748   2.0000                                         
     2  1  1.50      -839.0571   6.0000                                         
     3  0  0.50      -105.9991   2.0000                                         
     3  1  1.50       -66.4603   6.0000                                         
     3  2  2.50        -4.6458   9.0000                                         
     4  0  0.50        -4.4926   1.0000                                         
     4  1  1.50        -4.0817   0.0000                                         
     4  3  2.50        -1.3606   0.0000                                         
   Description                                                                  
     l       E           TYP  RCUT    TYP  RCUT                                 
     2     -4.6457903     23  2.300                                             
     2     -6.0063729     23  2.300                                             
     0     -4.4925590     23  2.300                                             
     0      5.0102601     23  2.300                                             
     1     -2.7211652     23  2.300                                             
     1     16.5183231     23  2.300                                             
  local pseudopotential read in
  partial core-charges read in
  partial kinetic energy density read in
  atomic valenz-charges read in
  non local Contribution for L=           2  read in
    real space projection operators read in
  non local Contribution for L=           2  read in
    real space projection operators read in
  non local Contribution for L=           0  read in
    real space projection operators read in
  non local Contribution for L=           0  read in
    real space projection operators read in
  non local Contribution for L=           1  read in
    real space projection operators read in
  non local Contribution for L=           1  read in
    real space projection operators read in
    PAW grid and wavefunctions read in
 
   number of l-projection  operators is LMAX  =           6
   number of lm-projection operators is LMMAX =          18
 
  PAW_PBE Ni 02Aug2007                  :
 energy of atom  1       EATOM=-1077.6739
 kinetic energy error for atom=    0.0030 (will be added to EATOM!!)
 
 
 POSCAR: Ni1 str #: 2                            
  positions in direct lattice
  No initial velocities read in
 exchange correlation table for  LEXCH =        8
   RHO(1)=    0.500       N(1)  =     2000
   RHO(2)=  100.500       N(2)  =     4000
 


--------------------------------------------------------------------------------------------------------


 ion  position               nearest neighbor table
   1  0.000  0.000  0.000-   2 2.48   2 2.48   2 2.48   2 2.48   2 2.48   2 2.48   2 2.48   2 2.48

   2  0.500  0.500  0.500-   1 2.48   1 2.48   1 2.48   1 2.48   1 2.48   1 2.48   1 2.48   1 2.48

 
  LATTYP: Found a simple tetragonal cell.
 ALAT       =     2.4767001000
 C/A-ratio  =     1.4142135446
  
  Lattice vectors:
  
 A1 = (  -2.4767001000,   0.0000000000,   0.0000000000)
 A2 = (   0.0000000000,   1.4299234700,  -2.0222171000)
 A3 = (   0.0000001000,  -2.8598469300,  -2.0222171000)


Analysis of symmetry for initial positions (statically):
=====================================================================
 Subroutine PRICEL returns following result:
 
  LATTYP: Found a face centered cubic cell.
 ALAT       =     3.5025828309
  
  Lattice vectors:
  
 A1 = (  -1.2383500000,  -2.1448852000,   0.0000000000)
 A2 = (  -2.4767001000,   0.0000000000,   0.0000000000)
 A3 = (  -1.2383500000,  -0.7149617300,  -2.0222171000)
 
   2 primitive cells build up your supercell.
 

 Routine SETGRP: Setting up the symmetry group for a 
 simple tetragonal supercell.


 Subroutine GETGRP returns: Found 16 space group operations
 (whereof 16 operations were pure point group operations)
 out of a pool of 16 trial point group operations.


The static configuration has the point symmetry D_4h.


Analysis of symmetry for dynamics (positions and initial velocities):
=====================================================================
 Subroutine PRICEL returns following result:
 
  LATTYP: Found a face centered cubic cell.
 ALAT       =     3.5025828309
  
  Lattice vectors:
  
 A1 = (  -1.2383500000,  -2.1448852000,   0.0000000000)
 A2 = (  -2.4767001000,   0.0000000000,   0.0000000000)
 A3 = (  -1.2383500000,  -0.7149617300,  -2.0222171000)
 
   2 primitive cells build up your supercell.
 

 Routine SETGRP: Setting up the symmetry group for a 
 simple tetragonal supercell.


 Subroutine GETGRP returns: Found 16 space group operations
 (whereof 16 operations were pure point group operations)
 out of a pool of 16 trial point group operations.


The dynamic configuration has the point symmetry D_4h.


Analysis of structural, dynamic, and magnetic symmetry:
=====================================================================
 Subroutine PRICEL returns following result:
 
  LATTYP: Found a face centered cubic cell.
 ALAT       =     3.5025828309
  
  Lattice vectors:
  
 A1 = (  -1.2383500000,  -2.1448852000,   0.0000000000)
 A2 = (  -2.4767001000,   0.0000000000,   0.0000000000)
 A3 = (  -1.2383500000,  -0.7149617300,  -2.0222171000)
 
   2 primitive cells build up your supercell.
 

 Routine SETGRP: Setting up the symmetry group for a 
 simple tetragonal supercell.


 Subroutine GETGRP returns: Found 16 space group operations
 (whereof 16 operations were pure point group operations)
 out of a pool of 16 trial point group operations.


The magnetic configuration has the point symmetry D_4h.


 Subroutine INISYM returns: Found 16 space group operations
 (whereof 16 operations are pure point group operations),
 and found     2 'primitive' translations

 
 
 KPOINTS: k-points                                

Automatic generation of k-mesh.
Space group operators:
 irot       det(A)        alpha          n_x          n_y          n_z        tau_x        tau_y        tau_z
    1     1.000000     0.000000     1.000000     0.000000     0.000000     0.000000     0.000000     0.000000
    2    -1.000000     0.000000     1.000000     0.000000     0.000000     0.000000     0.000000     0.000000
    3     1.000000    90.000000    -0.000000     0.816497     0.577350     0.000000     0.000000     0.000000
    4    -1.000000    90.000000    -0.000000     0.816497     0.577350     0.000000     0.000000     0.000000
    5     1.000000   180.000000     0.000000    -0.816497    -0.577350     0.000000     0.000000     0.000000
    6    -1.000000   180.000000     0.000000    -0.816497    -0.577350     0.000000     0.000000     0.000000
    7     1.000000    90.000000     0.000000    -0.816497    -0.577350     0.000000     0.000000     0.000000
    8    -1.000000    90.000000     0.000000    -0.816497    -0.577350     0.000000     0.000000     0.000000
    9     1.000000   180.000000     0.000000    -0.577350     0.816497     0.000000     0.000000     0.000000
   10    -1.000000   180.000000     0.000000    -0.577350     0.816497     0.000000     0.000000     0.000000
   11     1.000000   180.000000    -0.707107     0.408248    -0.577350     0.000000     0.000000     0.000000
   12    -1.000000   180.000000    -0.707107     0.408248    -0.577350     0.000000     0.000000     0.000000
   13     1.000000   180.000000     1.000000     0.000000     0.000000     0.000000     0.000000     0.000000
   14    -1.000000   180.000000     1.000000     0.000000     0.000000     0.000000     0.000000     0.000000
   15     1.000000   180.000000     0.707107     0.408248    -0.577350     0.000000     0.000000     0.000000
   16    -1.000000   180.000000     0.707107     0.408248    -0.577350     0.000000     0.000000     0.000000
 
 Subroutine IBZKPT returns following result:
 ===========================================
 
 Found    126 irreducible k-points:
 
 Following reciprocal coordinates:
            Coordinates               Weight
  0.000000  0.000000  0.000000      1.000000
  0.090909 -0.000000  0.000000      4.000000
  0.181818 -0.000000  0.000000      4.000000
  0.272727  0.000000 -0.000000      4.000000
  0.363636 -0.000000  0.000000      4.000000
  0.454545  0.000000  0.000000      4.000000
  0.000000  0.090909  0.000000      2.000000
  0.090909  0.090909  0.000000      8.000000
  0.181818  0.090909  0.000000      8.000000
  0.272727  0.090909 -0.000000      8.000000
  0.363636  0.090909 -0.000000      8.000000
  0.454545  0.090909 -0.000000      8.000000
  0.000000  0.181818  0.000000      2.000000
  0.090909  0.181818  0.000000      8.000000
  0.181818  0.181818  0.000000      8.000000
  0.272727  0.181818  0.000000      8.000000
  0.363636  0.181818  0.000000      8.000000
  0.454545  0.181818  0.000000      8.000000
  0.000000  0.272727  0.000000      2.000000
  0.090909  0.272727  0.000000      8.000000
  0.181818  0.272727  0.000000      8.000000
  0.272727  0.272727  0.000000      8.000000
  0.363636  0.272727  0.000000      8.000000
  0.454545  0.272727  0.000000      8.000000
  0.000000  0.363636  0.000000      2.000000
  0.090909  0.363636  0.000000      8.000000
  0.181818  0.363636  0.000000      8.000000
  0.272727  0.363636 -0.000000      8.000000
  0.363636  0.363636  0.000000      8.000000
  0.454545  0.363636  0.000000      8.000000
  0.000000  0.454545 -0.000000      2.000000
  0.090909  0.454545 -0.000000      8.000000
  0.181818  0.454545  0.000000      8.000000
  0.272727  0.454545 -0.000000      8.000000
  0.363636  0.454545 -0.000000      8.000000
  0.454545  0.454545 -0.000000      8.000000
  0.090909 -0.000000  0.090909      4.000000
  0.181818 -0.000000  0.090909      8.000000
  0.272727 -0.000000  0.090909      8.000000
  0.363636 -0.000000  0.090909      8.000000
  0.454545  0.000000  0.090909      8.000000
  0.090909  0.090909  0.090909      8.000000
  0.181818  0.090909  0.090909     16.000000
  0.272727  0.090909  0.090909     16.000000
  0.363636  0.090909  0.090909     16.000000
  0.454545  0.090909  0.090909     16.000000
  0.090909  0.181818  0.090909      8.000000
  0.181818  0.181818  0.090909     16.000000
  0.272727  0.181818  0.090909     16.000000
  0.363636  0.181818  0.090909     16.000000
  0.454545  0.181818  0.090909     16.000000
  0.090909  0.272727  0.090909      8.000000
  0.181818  0.272727  0.090909     16.000000
  0.272727  0.272727  0.090909     16.000000
  0.363636  0.272727  0.090909     16.000000
  0.454545  0.272727  0.090909     16.000000
  0.090909  0.363636  0.090909      8.000000
  0.181818  0.363636  0.090909     16.000000
  0.272727  0.363636  0.090909     16.000000
  0.363636  0.363636  0.090909     16.000000
  0.454545  0.363636  0.090909     16.000000
  0.090909  0.454545  0.090909      8.000000
  0.181818  0.454545  0.090909     16.000000
  0.272727  0.454545  0.090909     16.000000
  0.363636  0.454545  0.090909     16.000000
  0.454545  0.454545  0.090909     16.000000
  0.181818 -0.000000  0.181818      4.000000
  0.272727 -0.000000  0.181818      8.000000
  0.363636 -0.000000  0.181818      8.000000
  0.454545 -0.000000  0.181818      8.000000
  0.181818  0.090909  0.181818      8.000000
  0.272727  0.090909  0.181818     16.000000
  0.363636  0.090909  0.181818     16.000000
  0.454545  0.090909  0.181818     16.000000
  0.181818  0.181818  0.181818      8.000000
  0.272727  0.181818  0.181818     16.000000
  0.363636  0.181818  0.181818     16.000000
  0.454545  0.181818  0.181818     16.000000
  0.181818  0.272727  0.181818      8.000000
  0.272727  0.272727  0.181818     16.000000
  0.363636  0.272727  0.181818     16.000000
  0.454545  0.272727  0.181818     16.000000
  0.181818  0.363636  0.181818      8.000000
  0.272727  0.363636  0.181818     16.000000
  0.363636  0.363636  0.181818     16.000000
  0.454545  0.363636  0.181818     16.000000
  0.181818  0.454545  0.181818      8.000000
  0.272727  0.454545  0.181818     16.000000
  0.363636  0.454545  0.181818     16.000000
  0.454545  0.454545  0.181818     16.000000
  0.272727  0.000000  0.272727      4.000000
  0.363636 -0.000000  0.272727      8.000000
  0.454545 -0.000000  0.272727      8.000000
  0.272727  0.090909  0.272727      8.000000
  0.363636  0.090909  0.272727     16.000000
  0.454545  0.090909  0.272727     16.000000
  0.272727  0.181818  0.272727      8.000000
  0.363636  0.181818  0.272727     16.000000
  0.454545  0.181818  0.272727     16.000000
  0.272727  0.272727  0.272727      8.000000
  0.363636  0.272727  0.272727     16.000000
  0.454545  0.272727  0.272727     16.000000
  0.272727  0.363636  0.272727      8.000000
  0.363636  0.363636  0.272727     16.000000
  0.454545  0.363636  0.272727     16.000000
  0.272727  0.454545  0.272727      8.000000
  0.363636  0.454545  0.272727     16.000000
  0.454545  0.454545  0.272727     16.000000
  0.363636 -0.000000  0.363636      4.000000
  0.454545 -0.000000  0.363636      8.000000
  0.363636  0.090909  0.363636      8.000000
  0.454545  0.090909  0.363636     16.000000
  0.363636  0.181818  0.363636      8.000000
  0.454545  0.181818  0.363636     16.000000
  0.363636  0.272727  0.363636      8.000000
  0.454545  0.272727  0.363636     16.000000
  0.363636  0.363636  0.363636      8.000000
  0.454545  0.363636  0.363636     16.000000
  0.363636  0.454545  0.363636      8.000000
  0.454545  0.454545  0.363636     16.000000
  0.454545  0.000000  0.454545      4.000000
  0.454545  0.090909  0.454545      8.000000
  0.454545  0.181818  0.454545      8.000000
  0.454545  0.272727  0.454545      8.000000
  0.454545  0.363636  0.454545      8.000000
  0.454545  0.454545  0.454545      8.000000
 
 Following cartesian coordinates:
            Coordinates               Weight
  0.000000  0.000000  0.000000      1.000000
  0.036706  0.000000  0.000000      4.000000
  0.073411  0.000000  0.000000      4.000000
  0.110117  0.000000  0.000000      4.000000
  0.146823  0.000000  0.000000      4.000000
  0.183529  0.000000  0.000000      4.000000
  0.000000  0.021192  0.014985      2.000000
  0.036706  0.021192  0.014985      8.000000
  0.073411  0.021192  0.014985      8.000000
  0.110117  0.021192  0.014985      8.000000
  0.146823  0.021192  0.014985      8.000000
  0.183529  0.021192  0.014985      8.000000
  0.000000  0.042384  0.029970      2.000000
  0.036706  0.042384  0.029970      8.000000
  0.073411  0.042384  0.029970      8.000000
  0.110117  0.042384  0.029970      8.000000
  0.146823  0.042384  0.029970      8.000000
  0.183529  0.042384  0.029970      8.000000
  0.000000  0.063576  0.044955      2.000000
  0.036706  0.063576  0.044955      8.000000
  0.073411  0.063576  0.044955      8.000000
  0.110117  0.063576  0.044955      8.000000
  0.146823  0.063576  0.044955      8.000000
  0.183529  0.063576  0.044955      8.000000
  0.000000  0.084768  0.059940      2.000000
  0.036706  0.084768  0.059940      8.000000
  0.073411  0.084768  0.059940      8.000000
  0.110117  0.084768  0.059940      8.000000
  0.146823  0.084768  0.059940      8.000000
  0.183529  0.084768  0.059940      8.000000
  0.000000  0.105960  0.074925      2.000000
  0.036706  0.105960  0.074925      8.000000
  0.073411  0.105960  0.074925      8.000000
  0.110117  0.105960  0.074925      8.000000
  0.146823  0.105960  0.074925      8.000000
  0.183529  0.105960  0.074925      8.000000
  0.036706 -0.021192  0.029970      4.000000
  0.073411 -0.021192  0.029970      8.000000
  0.110117 -0.021192  0.029970      8.000000
  0.146823 -0.021192  0.029970      8.000000
  0.183529 -0.021192  0.029970      8.000000
  0.036706  0.000000  0.044955      8.000000
  0.073411  0.000000  0.044955     16.000000
  0.110117  0.000000  0.044955     16.000000
  0.146823  0.000000  0.044955     16.000000
  0.183529  0.000000  0.044955     16.000000
  0.036706  0.021192  0.059940      8.000000
  0.073411  0.021192  0.059940     16.000000
  0.110117  0.021192  0.059940     16.000000
  0.146823  0.021192  0.059940     16.000000
  0.183529  0.021192  0.059940     16.000000
  0.036706  0.042384  0.074925      8.000000
  0.073411  0.042384  0.074925     16.000000
  0.110117  0.042384  0.074925     16.000000
  0.146823  0.042384  0.074925     16.000000
  0.183529  0.042384  0.074925     16.000000
  0.036706  0.063576  0.089910      8.000000
  0.073411  0.063576  0.089910     16.000000
  0.110117  0.063576  0.089910     16.000000
  0.146823  0.063576  0.089910     16.000000
  0.183529  0.063576  0.089910     16.000000
  0.036706  0.084768  0.104895      8.000000
  0.073411  0.084768  0.104895     16.000000
  0.110117  0.084768  0.104895     16.000000
  0.146823  0.084768  0.104895     16.000000
  0.183529  0.084768  0.104895     16.000000
  0.073411 -0.042384  0.059940      4.000000
  0.110117 -0.042384  0.059940      8.000000
  0.146823 -0.042384  0.059940      8.000000
  0.183529 -0.042384  0.059940      8.000000
  0.073411 -0.021192  0.074925      8.000000
  0.110117 -0.021192  0.074925     16.000000
  0.146823 -0.021192  0.074925     16.000000
  0.183529 -0.021192  0.074925     16.000000
  0.073411  0.000000  0.089910      8.000000
  0.110117  0.000000  0.089910     16.000000
  0.146823  0.000000  0.089910     16.000000
  0.183529  0.000000  0.089910     16.000000
  0.073411  0.021192  0.104895      8.000000
  0.110117  0.021192  0.104895     16.000000
  0.146823  0.021192  0.104895     16.000000
  0.183529  0.021192  0.104895     16.000000
  0.073411  0.042384  0.119880      8.000000
  0.110117  0.042384  0.119880     16.000000
  0.146823  0.042384  0.119880     16.000000
  0.183529  0.042384  0.119880     16.000000
  0.073411  0.063576  0.134865      8.000000
  0.110117  0.063576  0.134865     16.000000
  0.146823  0.063576  0.134865     16.000000
  0.183529  0.063576  0.134865     16.000000
  0.110117 -0.063576  0.089910      4.000000
  0.146823 -0.063576  0.089910      8.000000
  0.183529 -0.063576  0.089910      8.000000
  0.110117 -0.042384  0.104895      8.000000
  0.146823 -0.042384  0.104895     16.000000
  0.183529 -0.042384  0.104895     16.000000
  0.110117 -0.021192  0.119880      8.000000
  0.146823 -0.021192  0.119880     16.000000
  0.183529 -0.021192  0.119880     16.000000
  0.110117  0.000000  0.134865      8.000000
  0.146823  0.000000  0.134865     16.000000
  0.183529  0.000000  0.134865     16.000000
  0.110117  0.021192  0.149851      8.000000
  0.146823  0.021192  0.149851     16.000000
  0.183529  0.021192  0.149851     16.000000
  0.110117  0.042384  0.164836      8.000000
  0.146823  0.042384  0.164836     16.000000
  0.183529  0.042384  0.164836     16.000000
  0.146823 -0.084768  0.119880      4.000000
  0.183529 -0.084768  0.119880      8.000000
  0.146823 -0.063576  0.134865      8.000000
  0.183529 -0.063576  0.134865     16.000000
  0.146823 -0.042384  0.149851      8.000000
  0.183529 -0.042384  0.149851     16.000000
  0.146823 -0.021192  0.164836      8.000000
  0.183529 -0.021192  0.164836     16.000000
  0.146823  0.000000  0.179821      8.000000
  0.183529  0.000000  0.179821     16.000000
  0.146823  0.021192  0.194806      8.000000
  0.183529  0.021192  0.194806     16.000000
  0.183529 -0.105960  0.149851      4.000000
  0.183529 -0.084768  0.164836      8.000000
  0.183529 -0.063576  0.179821      8.000000
  0.183529 -0.042384  0.194806      8.000000
  0.183529 -0.021192  0.209791      8.000000
  0.183529  0.000000  0.224776      8.000000
 


--------------------------------------------------------------------------------------------------------




 Dimension of arrays:
   k-points           NKPTS =    126   k-points in BZ     NKDIM =    126   number of bands    NBANDS=     16
   number of dos      NEDOS =    301   number of ions     NIONS =      2
   non local maximal  LDIM  =      6   non local SUM 2l+1 LMDIM =     18
   total plane-waves  NPLWV =   9072
   max r-space proj   IRMAX =      1   max aug-charges    IRDMAX=  13885
   dimension x,y,z NGX =    18 NGY =   28 NGZ =   18
   dimension x,y,z NGXF=    36 NGYF=   56 NGZF=   36
   support grid    NGXF=    36 NGYF=   56 NGZF=   36
   ions per type =               2
   NGX,Y,Z   is equivalent  to a cutoff of  12.08, 13.29, 12.08 a.u.
   NGXF,Y,Z  is equivalent  to a cutoff of  24.16, 26.58, 24.16 a.u.

 SYSTEM =  unknown system                          
 POSCAR =  Ni1 str #: 2                            

 Startparameter for this run:
   NWRITE =      2    write-flag & timer
   PREC   = accura    normal or accurate (medium, high low for compatibility)
   ISTART =      0    job   : 0-new  1-cont  2-samecut
   ICHARG =      2    charge: 1-file 2-atom 10-const
   ISPIN  =      2    spin polarized calculation?
   LNONCOLLINEAR =      F non collinear calculations
   LSORBIT =      F    spin-orbit coupling
   INIWAV =      1    electr: 0-lowe 1-rand  2-diag
   LASPH  =      T    aspherical Exc in radial PAW
   METAGGA=      F    non-selfconsistent MetaGGA calc.

 Electronic Relaxation 1
   ENCUT  =  520.0 eV  38.22 Ry    6.18 a.u.   4.61  6.51  4.61*2*pi/ulx,y,z
   ENINI  =  520.0     initial cutoff
   ENAUG  =  544.6 eV  augmentation charge cutoff
   NELM   =     60;   NELMIN=  2; NELMDL= -5     # of ELM steps 
   EDIFF  = 0.1E-05   stopping-criterion for ELM
   LREAL  =      F    real-space projection
   NLSPLINE    = F    spline interpolate recip. space projectors
   LCOMPAT=      F    compatible to vasp.4.4
   GGA_COMPAT  = T    GGA compatible to vasp.4.4-vasp.4.6
   LMAXPAW     = -100 max onsite density
   LMAXMIX     =    2 max onsite mixed and CHGCAR
   VOSKOWN=      0    Vosko Wilk Nusair interpolation
   ROPT   =    0.00000
 Ionic relaxation
   EDIFFG = 0.1E-04   stopping-criterion for IOM
   NSW    =      0    number of steps for IOM
   NBLOCK =      1;   KBLOCK =      1    inner block; outer block 
   IBRION =     -1    ionic relax: 0-MD 1-quasi-New 2-CG
   NFREE  =      1    steps in history (QN), initial steepest desc. (CG)
   ISIF   =      2    stress and relaxation
   IWAVPR =     10    prediction:  0-non 1-charg 2-wave 3-comb
   ISYM   =      2    0-nonsym 1-usesym 2-fastsym
   LCORR  =      T    Harris-Foulkes like correction to forces

   POTIM  = 0.5000    time-step for ionic-motion
   TEIN   =    0.0    initial temperature
   TEBEG  =    0.0;   TEEND  =   0.0 temperature during run
   SMASS  =  -3.00    Nose mass-parameter (am)
   estimated Nose-frequenzy (Omega)   =  0.10E-29 period in steps =****** mass=  -0.140E-27a.u.
   SCALEE = 1.0000    scale energy and forces
   NPACO  =    256;   APACO  = 16.0  distance and # of slots for P.C.
   PSTRESS=    0.0 pullay stress

  Mass of Ions in am
   POMASS =  58.69
  Ionic Valenz
   ZVAL   =  10.00
  Atomic Wigner-Seitz radii
   RWIGS  =  -1.00
  virtual crystal weights 
   VCA    =   1.00
   NELECT =      20.0000    total number of electrons
   NUPDOWN=      -1.0000    fix difference up-down

 DOS related values:
   EMIN   =  10.00;   EMAX   =-10.00  energy-range for DOS
   EFERMI =   0.00
   ISMEAR =     1;   SIGMA  =   0.20  broadening in eV -4-tet -1-fermi 0-gaus

 Electronic relaxation 2 (details)
   IALGO  =     38    algorithm
   LDIAG  =      T    sub-space diagonalisation (order eigenvalues)
   LSUBROT=      F    optimize rotation matrix (better conditioning)
   TURBO    =      0    0=normal 1=particle mesh
   IRESTART =      0    0=no restart 2=restart with 2 vectors
   NREBOOT  =      0    no. of reboots
   NMIN     =      0    reboot dimension
   EREF     =   0.00    reference energy to select bands
   IMIX   =      4    mixing-type and parameters
     AMIX     =   0.40;   BMIX     =  1.00
     AMIX_MAG =   1.60;   BMIX_MAG =  1.00
     AMIN     =   0.10
     WC   =   100.;   INIMIX=   1;  MIXPRE=   1;  MAXMIX= -45

 Intra band minimization:
   WEIMIN = 0.0000     energy-eigenvalue tresh-hold
   EBREAK =  0.16E-07  absolut break condition
   DEPER  =   0.30     relativ break condition  

   TIME   =   0.40     timestep for ELM

  volume/ion in A,a.u.               =      10.74        72.49
  Fermi-wavevector in a.u.,A,eV,Ry     =   1.598477  3.020684 34.764640  2.555129
  Thomas-Fermi vector in A             =   2.695921
 
 Write flags
   LWAVE        =      F    write WAVECAR
   LDOWNSAMPLE  =      F    k-point downsampling of WAVECAR
   LCHARG       =      F    write CHGCAR
   LVTOT        =      F    write LOCPOT, total local potential
   LVHAR        =      F    write LOCPOT, Hartree potential only
   LELF         =      F    write electronic localiz. function (ELF)
   LORBIT       =     11    0 simple, 1 ext, 2 COOP (PROOUT), +10 PAW based schemes


 Dipole corrections
   LMONO  =      F    monopole corrections only (constant potential shift)
   LDIPOL =      F    correct potential (dipole corrections)
   IDIPOL =      0    1-x, 2-y, 3-z, 4-all directions 
   EPSILON=  1.0000000 bulk dielectric constant

 Exchange correlation treatment:
   GGA     =    --    GGA type
   LEXCH   =     8    internal setting for exchange type
   VOSKOWN=      0    Vosko Wilk Nusair interpolation
   LHFCALC =     F    Hartree Fock is set to
   LHFONE  =     F    Hartree Fock one center treatment
   AEXX    =    0.0000 exact exchange contribution

 Linear response parameters
   LEPSILON=     F    determine dielectric tensor
   LRPA    =     F    only Hartree local field effects (RPA)
   LNABLA  =     F    use nabla operator in PAW spheres
   LVEL    =     F    velocity operator in full k-point grid
   LINTERFAST=   F  fast interpolation
   KINTER  =     0    interpolate to denser k-point grid
   CSHIFT  =0.1000    complex shift for real part using Kramers Kronig
   OMEGAMAX=  -1.0    maximum frequency
   DEG_THRESHOLD= 0.2000000E-02 threshold for treating states as degnerate
   RTIME   =   -0.100 relaxation time in fs
  (WPLASMAI=    0.000 imaginary part of plasma frequency in eV, 0.658/RTIME)
   DFIELD  = 0.0000000 0.0000000 0.0000000 field for delta impulse in time
 
 Orbital magnetization related:
   ORBITALMAG=     F  switch on orbital magnetization
   LCHIMAG   =     F  perturbation theory with respect to B field
   DQ        =  0.001000  dq finite difference perturbation B field
   LLRAUG    =     F  two centre corrections for induced B field



--------------------------------------------------------------------------------------------------------


 Static calculation
 charge density and potential will be updated during run
 spin polarized calculation
 Variant of blocked Davidson
 Davidson routine will perform the subspace rotation
 perform sub-space diagonalisation
    after iterative eigenvector-optimisation
 modified Broyden-mixing scheme, WC =      100.0
 initial mixing is a Kerker type mixing with AMIX =  0.4000 and BMIX =      1.0000
 Hartree-type preconditioning will be used
 using additional bands            6
 reciprocal scheme for non local part
 use partial core corrections
 calculate Harris-corrections to forces 
   (improved forces if not selfconsistent)
 use gradient corrections 
 use of overlap-Matrix (Vanderbilt PP)
 Methfessel and Paxton  Order N= 1 SIGMA  =   0.20


--------------------------------------------------------------------------------------------------------


  energy-cutoff  :      520.00
  volume of cell :       21.48
      direct lattice vectors                 reciprocal lattice vectors
     2.476700100  0.000000000  0.000000000     0.403763056  0.000000009  0.000000007
    -0.000000100  2.859846930  2.022217100     0.000000000  0.233112709  0.164835583
     0.000000000 -1.429923470  2.022217100     0.000000000 -0.233112709  0.329671164

  length of vectors
     2.476700100  3.502582827  2.476700048     0.403763056  0.285503598  0.403763064


 
 k-points in units of 2pi/SCALE and weight: k-points                                
   0.00000000  0.00000000  0.00000000       0.001
   0.03670573  0.00000000  0.00000000       0.003
   0.07341146  0.00000000  0.00000000       0.003
   0.11011720  0.00000000  0.00000000       0.003
   0.14682293  0.00000000  0.00000000       0.003
   0.18352866  0.00000000  0.00000000       0.003
   0.00000000  0.02119206  0.01498505       0.002
   0.03670573  0.02119207  0.01498505       0.006
   0.07341146  0.02119207  0.01498505       0.006
   0.11011720  0.02119207  0.01498505       0.006
   0.14682293  0.02119207  0.01498506       0.006
   0.18352866  0.02119207  0.01498506       0.006
   0.00000000  0.04238413  0.02997011       0.002
   0.03670573  0.04238413  0.02997011       0.006
   0.07341146  0.04238413  0.02997011       0.006
   0.11011720  0.04238413  0.02997011       0.006
   0.14682293  0.04238413  0.02997011       0.006
   0.18352866  0.04238413  0.02997011       0.006
   0.00000000  0.06357619  0.04495516       0.002
   0.03670573  0.06357619  0.04495516       0.006
   0.07341146  0.06357620  0.04495516       0.006
   0.11011720  0.06357620  0.04495516       0.006
   0.14682293  0.06357620  0.04495516       0.006
   0.18352866  0.06357620  0.04495516       0.006
   0.00000000  0.08476826  0.05994021       0.002
   0.03670573  0.08476826  0.05994021       0.006
   0.07341146  0.08476826  0.05994021       0.006
   0.11011720  0.08476826  0.05994021       0.006
   0.14682293  0.08476826  0.05994021       0.006
   0.18352866  0.08476826  0.05994021       0.006
   0.00000000  0.10596032  0.07492526       0.002
   0.03670573  0.10596032  0.07492527       0.006
   0.07341146  0.10596032  0.07492527       0.006
   0.11011720  0.10596032  0.07492527       0.006
   0.14682293  0.10596033  0.07492527       0.006
   0.18352866  0.10596033  0.07492527       0.006
   0.03670573 -0.02119206  0.02997011       0.003
   0.07341146 -0.02119206  0.02997011       0.006
   0.11011720 -0.02119206  0.02997011       0.006
   0.14682293 -0.02119206  0.02997011       0.006
   0.18352866 -0.02119206  0.02997011       0.006
   0.03670573  0.00000000  0.04495516       0.006
   0.07341146  0.00000000  0.04495516       0.012
   0.11011720  0.00000000  0.04495516       0.012
   0.14682293  0.00000000  0.04495516       0.012
   0.18352866  0.00000000  0.04495516       0.012
   0.03670573  0.02119207  0.05994021       0.006
   0.07341146  0.02119207  0.05994021       0.012
   0.11011720  0.02119207  0.05994021       0.012
   0.14682293  0.02119207  0.05994021       0.012
   0.18352866  0.02119207  0.05994021       0.012
   0.03670573  0.04238413  0.07492527       0.006
   0.07341146  0.04238413  0.07492527       0.012
   0.11011720  0.04238413  0.07492527       0.012
   0.14682293  0.04238413  0.07492527       0.012
   0.18352866  0.04238413  0.07492527       0.012
   0.03670573  0.06357619  0.08991032       0.006
   0.07341146  0.06357620  0.08991032       0.012
   0.11011720  0.06357620  0.08991032       0.012
   0.14682293  0.06357620  0.08991032       0.012
   0.18352866  0.06357620  0.08991032       0.012
   0.03670573  0.08476826  0.10489537       0.006
   0.07341146  0.08476826  0.10489537       0.012
   0.11011720  0.08476826  0.10489537       0.012
   0.14682293  0.08476826  0.10489537       0.012
   0.18352866  0.08476826  0.10489537       0.012
   0.07341146 -0.04238413  0.05994021       0.003
   0.11011720 -0.04238413  0.05994021       0.006
   0.14682293 -0.04238413  0.05994021       0.006
   0.18352866 -0.04238412  0.05994021       0.006
   0.07341146 -0.02119206  0.07492527       0.006
   0.11011720 -0.02119206  0.07492527       0.012
   0.14682293 -0.02119206  0.07492527       0.012
   0.18352866 -0.02119206  0.07492527       0.012
   0.07341146  0.00000000  0.08991032       0.006
   0.11011720  0.00000000  0.08991032       0.012
   0.14682293  0.00000000  0.08991032       0.012
   0.18352866  0.00000000  0.08991032       0.012
   0.07341146  0.02119207  0.10489537       0.006
   0.11011720  0.02119207  0.10489537       0.012
   0.14682293  0.02119207  0.10489537       0.012
   0.18352866  0.02119207  0.10489537       0.012
   0.07341146  0.04238413  0.11988042       0.006
   0.11011720  0.04238413  0.11988043       0.012
   0.14682293  0.04238413  0.11988043       0.012
   0.18352866  0.04238413  0.11988043       0.012
   0.07341146  0.06357620  0.13486548       0.006
   0.11011720  0.06357620  0.13486548       0.012
   0.14682293  0.06357620  0.13486548       0.012
   0.18352866  0.06357620  0.13486548       0.012
   0.11011720 -0.06357619  0.08991032       0.003
   0.14682293 -0.06357619  0.08991032       0.006
   0.18352866 -0.06357619  0.08991032       0.006
   0.11011720 -0.04238413  0.10489537       0.006
   0.14682293 -0.04238413  0.10489537       0.012
   0.18352866 -0.04238412  0.10489537       0.012
   0.11011720 -0.02119206  0.11988043       0.006
   0.14682293 -0.02119206  0.11988043       0.012
   0.18352866 -0.02119206  0.11988043       0.012
   0.11011720  0.00000000  0.13486548       0.006
   0.14682293  0.00000000  0.13486548       0.012
   0.18352866  0.00000000  0.13486548       0.012
   0.11011720  0.02119207  0.14985053       0.006
   0.14682293  0.02119207  0.14985053       0.012
   0.18352866  0.02119207  0.14985053       0.012
   0.11011720  0.04238413  0.16483558       0.006
   0.14682293  0.04238413  0.16483558       0.012
   0.18352866  0.04238413  0.16483559       0.012
   0.14682293 -0.08476825  0.11988043       0.003
   0.18352866 -0.08476825  0.11988043       0.006
   0.14682293 -0.06357619  0.13486548       0.006
   0.18352866 -0.06357619  0.13486548       0.012
   0.14682293 -0.04238413  0.14985053       0.006
   0.18352866 -0.04238412  0.14985053       0.012
   0.14682293 -0.02119206  0.16483558       0.006
   0.18352866 -0.02119206  0.16483559       0.012
   0.14682293  0.00000000  0.17982064       0.006
   0.18352866  0.00000000  0.17982064       0.012
   0.14682293  0.02119207  0.19480569       0.006
   0.18352866  0.02119207  0.19480569       0.012
   0.18352866 -0.10596032  0.14985053       0.003
   0.18352866 -0.08476825  0.16483559       0.006
   0.18352866 -0.06357619  0.17982064       0.006
   0.18352866 -0.04238412  0.19480569       0.006
   0.18352866 -0.02119206  0.20979074       0.006
   0.18352866  0.00000000  0.22477580       0.006
 
 k-points in reciprocal lattice and weights: k-points                                
   0.00000000  0.00000000  0.00000000       0.001
   0.09090909 -0.00000000  0.00000000       0.003
   0.18181818 -0.00000000  0.00000000       0.003
   0.27272727  0.00000000 -0.00000000       0.003
   0.36363636 -0.00000000  0.00000000       0.003
   0.45454545  0.00000000  0.00000000       0.003
   0.00000000  0.09090909  0.00000000       0.002
   0.09090909  0.09090909  0.00000000       0.006
   0.18181818  0.09090909  0.00000000       0.006
   0.27272727  0.09090909 -0.00000000       0.006
   0.36363636  0.09090909 -0.00000000       0.006
   0.45454545  0.09090909 -0.00000000       0.006
   0.00000000  0.18181818  0.00000000       0.002
   0.09090909  0.18181818  0.00000000       0.006
   0.18181818  0.18181818  0.00000000       0.006
   0.27272727  0.18181818  0.00000000       0.006
   0.36363636  0.18181818  0.00000000       0.006
   0.45454545  0.18181818  0.00000000       0.006
   0.00000000  0.27272727  0.00000000       0.002
   0.09090909  0.27272727  0.00000000       0.006
   0.18181818  0.27272727  0.00000000       0.006
   0.27272727  0.27272727  0.00000000       0.006
   0.36363636  0.27272727  0.00000000       0.006
   0.45454545  0.27272727  0.00000000       0.006
   0.00000000  0.36363636  0.00000000       0.002
   0.09090909  0.36363636  0.00000000       0.006
   0.18181818  0.36363636  0.00000000       0.006
   0.27272727  0.36363636 -0.00000000       0.006
   0.36363636  0.36363636  0.00000000       0.006
   0.45454545  0.36363636  0.00000000       0.006
   0.00000000  0.45454545 -0.00000000       0.002
   0.09090909  0.45454545 -0.00000000       0.006
   0.18181818  0.45454545  0.00000000       0.006
   0.27272727  0.45454545 -0.00000000       0.006
   0.36363636  0.45454545 -0.00000000       0.006
   0.45454545  0.45454545 -0.00000000       0.006
   0.09090909 -0.00000000  0.09090909       0.003
   0.18181818 -0.00000000  0.09090909       0.006
   0.27272727 -0.00000000  0.09090909       0.006
   0.36363636 -0.00000000  0.09090909       0.006
   0.45454545  0.00000000  0.09090909       0.006
   0.09090909  0.09090909  0.09090909       0.006
   0.18181818  0.09090909  0.09090909       0.012
   0.27272727  0.09090909  0.09090909       0.012
   0.36363636  0.09090909  0.09090909       0.012
   0.45454545  0.09090909  0.09090909       0.012
   0.09090909  0.18181818  0.09090909       0.006
   0.18181818  0.18181818  0.09090909       0.012
   0.27272727  0.18181818  0.09090909       0.012
   0.36363636  0.18181818  0.09090909       0.012
   0.45454545  0.18181818  0.09090909       0.012
   0.09090909  0.27272727  0.09090909       0.006
   0.18181818  0.27272727  0.09090909       0.012
   0.27272727  0.27272727  0.09090909       0.012
   0.36363636  0.27272727  0.09090909       0.012
   0.45454545  0.27272727  0.09090909       0.012
   0.09090909  0.36363636  0.09090909       0.006
   0.18181818  0.36363636  0.09090909       0.012
   0.27272727  0.36363636  0.09090909       0.012
   0.36363636  0.36363636  0.09090909       0.012
   0.45454545  0.36363636  0.09090909       0.012
   0.09090909  0.45454545  0.09090909       0.006
   0.18181818  0.45454545  0.09090909       0.012
   0.27272727  0.45454545  0.09090909       0.012
   0.36363636  0.45454545  0.09090909       0.012
   0.45454545  0.45454545  0.09090909       0.012
   0.18181818 -0.00000000  0.18181818       0.003
   0.27272727 -0.00000000  0.18181818       0.006
   0.36363636 -0.00000000  0.18181818       0.006
   0.45454545 -0.00000000  0.18181818       0.006
   0.18181818  0.09090909  0.18181818       0.006
   0.27272727  0.09090909  0.18181818       0.012
   0.36363636  0.09090909  0.18181818       0.012
   0.45454545  0.09090909  0.18181818       0.012
   0.18181818  0.18181818  0.18181818       0.006
   0.27272727  0.18181818  0.18181818       0.012
   0.36363636  0.18181818  0.18181818       0.012
   0.45454545  0.18181818  0.18181818       0.012
   0.18181818  0.27272727  0.18181818       0.006
   0.27272727  0.27272727  0.18181818       0.012
   0.36363636  0.27272727  0.18181818       0.012
   0.45454545  0.27272727  0.18181818       0.012
   0.18181818  0.36363636  0.18181818       0.006
   0.27272727  0.36363636  0.18181818       0.012
   0.36363636  0.36363636  0.18181818       0.012
   0.45454545  0.36363636  0.18181818       0.012
   0.18181818  0.45454545  0.18181818       0.006
   0.27272727  0.45454545  0.18181818       0.012
   0.36363636  0.45454545  0.18181818       0.012
   0.45454545  0.45454545  0.18181818       0.012
   0.27272727  0.00000000  0.27272727       0.003
   0.36363636 -0.00000000  0.27272727       0.006
   0.45454545 -0.00000000  0.27272727       0.006
   0.27272727  0.09090909  0.27272727       0.006
   0.36363636  0.09090909  0.27272727       0.012
   0.45454545  0.09090909  0.27272727       0.012
   0.27272727  0.18181818  0.27272727       0.006
   0.36363636  0.18181818  0.27272727       0.012
   0.45454545  0.18181818  0.27272727       0.012
   0.27272727  0.27272727  0.27272727       0.006
   0.36363636  0.27272727  0.27272727       0.012
   0.45454545  0.27272727  0.27272727       0.012
   0.27272727  0.36363636  0.27272727       0.006
   0.36363636  0.36363636  0.27272727       0.012
   0.45454545  0.36363636  0.27272727       0.012
   0.27272727  0.45454545  0.27272727       0.006
   0.36363636  0.45454545  0.27272727       0.012
   0.45454545  0.45454545  0.27272727       0.012
   0.36363636 -0.00000000  0.36363636       0.003
   0.45454545 -0.00000000  0.36363636       0.006
   0.36363636  0.09090909  0.36363636       0.006
   0.45454545  0.09090909  0.36363636       0.012
   0.36363636  0.18181818  0.36363636       0.006
   0.45454545  0.18181818  0.36363636       0.012
   0.36363636  0.27272727  0.36363636       0.006
   0.45454545  0.27272727  0.36363636       0.012
   0.36363636  0.36363636  0.36363636       0.006
   0.45454545  0.36363636  0.36363636       0.012
   0.36363636  0.45454545  0.36363636       0.006
   0.45454545  0.45454545  0.36363636       0.012
   0.45454545  0.00000000  0.45454545       0.003
   0.45454545  0.09090909  0.45454545       0.006
   0.45454545  0.18181818  0.45454545       0.006
   0.45454545  0.27272727  0.45454545       0.006
   0.45454545  0.36363636  0.45454545       0.006
   0.45454545  0.45454545  0.45454545       0.006
 
 position of ions in fractional coordinates (direct lattice) 
   0.00000000  0.00000000  0.00000000
   0.50000000  0.50000000  0.50000000
 
 position of ions in cartesian coordinates  (Angst):
   0.00000000  0.00000000  0.00000000
   1.23835000  0.71496173  2.02221710
 


--------------------------------------------------------------------------------------------------------


 k-point  1 :   0.0000 0.0000 0.0000  plane waves:     585
 k-point  2 :   0.0909-0.0000 0.0000  plane waves:     577
 k-point  3 :   0.1818-0.0000 0.0000  plane waves:     575
 k-point  4 :   0.2727 0.0000-0.0000  plane waves:     581
 k-point  5 :   0.3636-0.0000 0.0000  plane waves:     579
 k-point  6 :   0.4545 0.0000 0.0000  plane waves:     578
 k-point  7 :   0.0000 0.0909 0.0000  plane waves:     581
 k-point  8 :   0.0909 0.0909 0.0000  plane waves:     588
 k-point  9 :   0.1818 0.0909 0.0000  plane waves:     584
 k-point 10 :   0.2727 0.0909-0.0000  plane waves:     578
 k-point 11 :   0.3636 0.0909-0.0000  plane waves:     580
 k-point 12 :   0.4545 0.0909-0.0000  plane waves:     573
 k-point 13 :   0.0000 0.1818 0.0000  plane waves:     589
 k-point 14 :   0.0909 0.1818 0.0000  plane waves:     587
 k-point 15 :   0.1818 0.1818 0.0000  plane waves:     585
 k-point 16 :   0.2727 0.1818 0.0000  plane waves:     583
 k-point 17 :   0.3636 0.1818 0.0000  plane waves:     584
 k-point 18 :   0.4545 0.1818 0.0000  plane waves:     576
 k-point 19 :   0.0000 0.2727 0.0000  plane waves:     589
 k-point 20 :   0.0909 0.2727 0.0000  plane waves:     590
 k-point 21 :   0.1818 0.2727 0.0000  plane waves:     588
 k-point 22 :   0.2727 0.2727 0.0000  plane waves:     585
 k-point 23 :   0.3636 0.2727 0.0000  plane waves:     579
 k-point 24 :   0.4545 0.2727 0.0000  plane waves:     578
 k-point 25 :   0.0000 0.3636 0.0000  plane waves:     593
 k-point 26 :   0.0909 0.3636 0.0000  plane waves:     589
 k-point 27 :   0.1818 0.3636 0.0000  plane waves:     582
 k-point 28 :   0.2727 0.3636-0.0000  plane waves:     576
 k-point 29 :   0.3636 0.3636 0.0000  plane waves:     574
 k-point 30 :   0.4545 0.3636 0.0000  plane waves:     572
 k-point 31 :   0.0000 0.4545-0.0000  plane waves:     601
 k-point 32 :   0.0909 0.4545-0.0000  plane waves:     593
 k-point 33 :   0.1818 0.4545 0.0000  plane waves:     585
 k-point 34 :   0.2727 0.4545-0.0000  plane waves:     583
 k-point 35 :   0.3636 0.4545-0.0000  plane waves:     569
 k-point 36 :   0.4545 0.4545-0.0000  plane waves:     565
 k-point 37 :   0.0909-0.0000 0.0909  plane waves:     587
 k-point 38 :   0.1818-0.0000 0.0909  plane waves:     581
 k-point 39 :   0.2727-0.0000 0.0909  plane waves:     580
 k-point 40 :   0.3636-0.0000 0.0909  plane waves:     574
 k-point 41 :   0.4545 0.0000 0.0909  plane waves:     576
 k-point 42 :   0.0909 0.0909 0.0909  plane waves:     586
 k-point 43 :   0.1818 0.0909 0.0909  plane waves:     585
 k-point 44 :   0.2727 0.0909 0.0909  plane waves:     578
 k-point 45 :   0.3636 0.0909 0.0909  plane waves:     573
 k-point 46 :   0.4545 0.0909 0.0909  plane waves:     577
 k-point 47 :   0.0909 0.1818 0.0909  plane waves:     583
 k-point 48 :   0.1818 0.1818 0.0909  plane waves:     583
 k-point 49 :   0.2727 0.1818 0.0909  plane waves:     584
 k-point 50 :   0.3636 0.1818 0.0909  plane waves:     580
 k-point 51 :   0.4545 0.1818 0.0909  plane waves:     574
 k-point 52 :   0.0909 0.2727 0.0909  plane waves:     586
 k-point 53 :   0.1818 0.2727 0.0909  plane waves:     585
 k-point 54 :   0.2727 0.2727 0.0909  plane waves:     581
 k-point 55 :   0.3636 0.2727 0.0909  plane waves:     582
 k-point 56 :   0.4545 0.2727 0.0909  plane waves:     576
 k-point 57 :   0.0909 0.3636 0.0909  plane waves:     589
 k-point 58 :   0.1818 0.3636 0.0909  plane waves:     586
 k-point 59 :   0.2727 0.3636 0.0909  plane waves:     584
 k-point 60 :   0.3636 0.3636 0.0909  plane waves:     578
 k-point 61 :   0.4545 0.3636 0.0909  plane waves:     570
 k-point 62 :   0.0909 0.4545 0.0909  plane waves:     589
 k-point 63 :   0.1818 0.4545 0.0909  plane waves:     579
 k-point 64 :   0.2727 0.4545 0.0909  plane waves:     575
 k-point 65 :   0.3636 0.4545 0.0909  plane waves:     574
 k-point 66 :   0.4545 0.4545 0.0909  plane waves:     571
 k-point 67 :   0.1818-0.0000 0.1818  plane waves:     581
 k-point 68 :   0.2727-0.0000 0.1818  plane waves:     584
 k-point 69 :   0.3636-0.0000 0.1818  plane waves:     576
 k-point 70 :   0.4545-0.0000 0.1818  plane waves:     581
 k-point 71 :   0.1818 0.0909 0.1818  plane waves:     584
 k-point 72 :   0.2727 0.0909 0.1818  plane waves:     580
 k-point 73 :   0.3636 0.0909 0.1818  plane waves:     579
 k-point 74 :   0.4545 0.0909 0.1818  plane waves:     581
 k-point 75 :   0.1818 0.1818 0.1818  plane waves:     583
 k-point 76 :   0.2727 0.1818 0.1818  plane waves:     579
 k-point 77 :   0.3636 0.1818 0.1818  plane waves:     578
 k-point 78 :   0.4545 0.1818 0.1818  plane waves:     571
 k-point 79 :   0.1818 0.2727 0.1818  plane waves:     582
 k-point 80 :   0.2727 0.2727 0.1818  plane waves:     575
 k-point 81 :   0.3636 0.2727 0.1818  plane waves:     575
 k-point 82 :   0.4545 0.2727 0.1818  plane waves:     571
 k-point 83 :   0.1818 0.3636 0.1818  plane waves:     583
 k-point 84 :   0.2727 0.3636 0.1818  plane waves:     582
 k-point 85 :   0.3636 0.3636 0.1818  plane waves:     573
 k-point 86 :   0.4545 0.3636 0.1818  plane waves:     574
 k-point 87 :   0.1818 0.4545 0.1818  plane waves:     585
 k-point 88 :   0.2727 0.4545 0.1818  plane waves:     576
 k-point 89 :   0.3636 0.4545 0.1818  plane waves:     575
 k-point 90 :   0.4545 0.4545 0.1818  plane waves:     579
 k-point 91 :   0.2727 0.0000 0.2727  plane waves:     578
 k-point 92 :   0.3636-0.0000 0.2727  plane waves:     585
 k-point 93 :   0.4545-0.0000 0.2727  plane waves:     582
 k-point 94 :   0.2727 0.0909 0.2727  plane waves:     581
 k-point 95 :   0.3636 0.0909 0.2727  plane waves:     579
 k-point 96 :   0.4545 0.0909 0.2727  plane waves:     585
 k-point 97 :   0.2727 0.1818 0.2727  plane waves:     575
 k-point 98 :   0.3636 0.1818 0.2727  plane waves:     577
 k-point 99 :   0.4545 0.1818 0.2727  plane waves:     581
 k-point ** :   0.2727 0.2727 0.2727  plane waves:     569
 k-point ** :   0.3636 0.2727 0.2727  plane waves:     574
 k-point ** :   0.4545 0.2727 0.2727  plane waves:     579
 k-point ** :   0.2727 0.3636 0.2727  plane waves:     575
 k-point ** :   0.3636 0.3636 0.2727  plane waves:     576
 k-point ** :   0.4545 0.3636 0.2727  plane waves:     571
 k-point ** :   0.2727 0.4545 0.2727  plane waves:     574
 k-point ** :   0.3636 0.4545 0.2727  plane waves:     576
 k-point ** :   0.4545 0.4545 0.2727  plane waves:     574
 k-point ** :   0.3636-0.0000 0.3636  plane waves:     580
 k-point ** :   0.4545-0.0000 0.3636  plane waves:     577
 k-point ** :   0.3636 0.0909 0.3636  plane waves:     577
 k-point ** :   0.4545 0.0909 0.3636  plane waves:     578
 k-point ** :   0.3636 0.1818 0.3636  plane waves:     578
 k-point ** :   0.4545 0.1818 0.3636  plane waves:     578
 k-point ** :   0.3636 0.2727 0.3636  plane waves:     576
 k-point ** :   0.4545 0.2727 0.3636  plane waves:     578
 k-point ** :   0.3636 0.3636 0.3636  plane waves:     572
 k-point ** :   0.4545 0.3636 0.3636  plane waves:     574
 k-point ** :   0.3636 0.4545 0.3636  plane waves:     566
 k-point ** :   0.4545 0.4545 0.3636  plane waves:     567
 k-point ** :   0.4545 0.0000 0.4545  plane waves:     592
 k-point ** :   0.4545 0.0909 0.4545  plane waves:     583
 k-point ** :   0.4545 0.1818 0.4545  plane waves:     574
 k-point ** :   0.4545 0.2727 0.4545  plane waves:     575
 k-point ** :   0.4545 0.3636 0.4545  plane waves:     574
 k-point ** :   0.4545 0.4545 0.4545  plane waves:     570

 maximum and minimum number of plane-waves per node :       601      565

 maximum number of plane-waves:       601
 maximum index in each direction: 
   IXMAX=    4   IYMAX=    6   IZMAX=    4
   IXMIN=   -5   IYMIN=   -6   IZMIN=   -5


 serial   3D FFT for wavefunctions
 parallel 3D FFT for charge:
    minimum data exchange during FFTs selected (reduces bandwidth)


 total amount of memory used by VASP MPI-rank0    48221. kBytes
=======================================================================

   base      :      30000. kBytes
   nonl-proj :      11051. kBytes
   fftplans  :        384. kBytes
   grid      :       1499. kBytes
   one-center:         62. kBytes
   wavefun   :       5225. kBytes
 
     INWAV:  cpu time    0.0000: real time    0.0000
 Broyden mixing: mesh for mixing (old mesh)
   NGX =  9   NGY = 13   NGZ =  9
  (NGX  = 36   NGY  = 56   NGZ  = 36)
  gives a total of   1053 points

 initial charge density was supplied:
 charge density of overlapping atoms calculated
 number of electron      20.0000000 magnetization       0.0000000
 keeping initial charge density in first step


--------------------------------------------------------------------------------------------------------


 Maximum index for augmentation-charges         2026 (set IRDMAX)


--------------------------------------------------------------------------------------------------------


 First call to EWALD:  gamma=   0.638
 Maximum number of real-space cells 3x 2x 3
 Maximum number of reciprocal cells 3x 3x 3

    FEWALD:  cpu time    0.0012: real time    0.0012


--------------------------------------- Iteration      1(   1)  ---------------------------------------


    POTLOK:  cpu time    0.0156: real time    0.0181
    SETDIJ:  cpu time    0.4929: real time    0.4942
     EDDAV:  cpu time    0.8966: real time    0.9048
       DOS:  cpu time    0.0021: real time    0.0021
    --------------------------------------------
      LOOP:  cpu time    1.4072: real time    1.4193

 eigenvalue-minimisations  :  8504
 total energy-change (2. order) : 0.8421394E+02  (-0.9499755E+03)
 number of electron      20.0000000 magnetization       0.0000000
 augmentation part       20.0000000 magnetization       0.0000000

 Free energy of the ion-electron system (eV)
  ---------------------------------------------------
  alpha Z        PSCENC =        94.94887387
  Ewald energy   TEWEN  =     -1884.92442377
  -Hartree energ DENC   =      -486.20987861
  -exchange      EXHF   =         0.00000000
  -V(xc)+E(xc)   XCENC  =        63.61455184
  PAW double counting   =      1925.66634721    -2059.34142455
  entropy T*S    EENTRO =        -0.00018035
  eigenvalues    EBANDS =       275.11823810
  atomic energy  EATOM  =      2155.34183880
  Solvation  Ediel_sol  =         0.00000000
  ---------------------------------------------------
  free energy    TOTEN  =        84.21394254 eV

  energy without entropy =       84.21412288  energy(sigma->0) =       84.21400265


--------------------------------------------------------------------------------------------------------




--------------------------------------- Iteration      1(   2)  ---------------------------------------


     EDDAV:  cpu time    0.8336: real time    0.8369
       DOS:  cpu time    0.0024: real time    0.0024
    --------------------------------------------
      LOOP:  cpu time    0.8360: real time    0.8393

 eigenvalue-minimisations  :  8136
 total energy-change (2. order) :-0.9458959E+02  (-0.8951033E+02)
 number of electron      20.0000000 magnetization       0.0000000
 augmentation part       20.0000000 magnetization       0.0000000

 Free energy of the ion-electron system (eV)
  ---------------------------------------------------
  alpha Z        PSCENC =        94.94887387
  Ewald energy   TEWEN  =     -1884.92442377
  -Hartree energ DENC   =      -486.20987861
  -exchange      EXHF   =         0.00000000
  -V(xc)+E(xc)   XCENC  =        63.61455184
  PAW double counting   =      1925.66634721    -2059.34142455
  entropy T*S    EENTRO =        -0.00421161
  eigenvalues    EBANDS =       180.53268343
  atomic energy  EATOM  =      2155.34183880
  Solvation  Ediel_sol  =         0.00000000
  ---------------------------------------------------
  free energy    TOTEN  =       -10.37564340 eV

  energy without entropy =      -10.37143179  energy(sigma->0) =      -10.37423953


--------------------------------------------------------------------------------------------------------




--------------------------------------- Iteration      1(   3)  ---------------------------------------


     EDDAV:  cpu time    1.0180: real time    1.0205
       DOS:  cpu time    0.0025: real time    0.0025
    --------------------------------------------
      LOOP:  cpu time    1.0205: real time    1.0230

 eigenvalue-minimisations  :  9848
 total energy-change (2. order) :-0.2409612E+01  (-0.2365406E+01)
 number of electron      20.0000000 magnetization       0.0000000
 augmentation part       20.0000000 magnetization       0.0000000

 Free energy of the ion-electron system (eV)
  ---------------------------------------------------
  alpha Z        PSCENC =        94.94887387
  Ewald energy   TEWEN  =     -1884.92442377
  -Hartree energ DENC   =      -486.20987861
  -exchange      EXHF   =         0.00000000
  -V(xc)+E(xc)   XCENC  =        63.61455184
  PAW double counting   =      1925.66634721    -2059.34142455
  entropy T*S    EENTRO =        -0.00396903
  eigenvalues    EBANDS =       178.12282847
  atomic energy  EATOM  =      2155.34183880
  Solvation  Ediel_sol  =         0.00000000
  ---------------------------------------------------
  free energy    TOTEN  =       -12.78525577 eV

  energy without entropy =      -12.78128674  energy(sigma->0) =      -12.78393276


--------------------------------------------------------------------------------------------------------




--------------------------------------- Iteration      1(   4)  ---------------------------------------


     EDDAV:  cpu time    1.0970: real time    1.0998
       DOS:  cpu time    0.0025: real time    0.0025
    --------------------------------------------
      LOOP:  cpu time    1.0995: real time    1.1023

 eigenvalue-minimisations  : 10952
 total energy-change (2. order) :-0.2937719E-01  (-0.2936929E-01)
 number of electron      20.0000000 magnetization       0.0000000
 augmentation part       20.0000000 magnetization       0.0000000

 Free energy of the ion-electron system (eV)
  ---------------------------------------------------
  alpha Z        PSCENC =        94.94887387
  Ewald energy   TEWEN  =     -1884.92442377
  -Hartree energ DENC   =      -486.20987861
  -exchange      EXHF   =         0.00000000
  -V(xc)+E(xc)   XCENC  =        63.61455184
  PAW double counting   =      1925.66634721    -2059.34142455
  entropy T*S    EENTRO =        -0.00393437
  eigenvalues    EBANDS =       178.09341663
  atomic energy  EATOM  =      2155.34183880
  Solvation  Ediel_sol  =         0.00000000
  ---------------------------------------------------
  free energy    TOTEN  =       -12.81463296 eV

  energy without entropy =      -12.81069858  energy(sigma->0) =      -12.81332150


--------------------------------------------------------------------------------------------------------




--------------------------------------- Iteration      1(   5)  ---------------------------------------


     EDDAV:  cpu time    1.0362: real time    1.0387
       DOS:  cpu time    0.0025: real time    0.0025
    CHARGE:  cpu time    0.0686: real time    0.0687
    MIXING:  cpu time    0.0004: real time    0.0004
    --------------------------------------------
      LOOP:  cpu time    1.1077: real time    1.1104

 eigenvalue-minimisations  : 10128
 total energy-change (2. order) :-0.3921214E-03  (-0.3921179E-03)
 number of electron      20.0000034 magnetization      -0.0000000
 augmentation part       11.2259148 magnetization      -0.0000000

 Broyden mixing:
  rms(total) = 0.14431E+01    rms(broyden)= 0.14431E+01
  rms(prec ) = 0.28848E+01
  weight for this iteration     100.00

 Free energy of the ion-electron system (eV)
  ---------------------------------------------------
  alpha Z        PSCENC =        94.94887387
  Ewald energy   TEWEN  =     -1884.92442377
  -Hartree energ DENC   =      -486.20987861
  -exchange      EXHF   =         0.00000000
  -V(xc)+E(xc)   XCENC  =        63.61455184
  PAW double counting   =      1925.66634721    -2059.34142455
  entropy T*S    EENTRO =        -0.00393412
  eigenvalues    EBANDS =       178.09302425
  atomic energy  EATOM  =      2155.34183880
  Solvation  Ediel_sol  =         0.00000000
  ---------------------------------------------------
  free energy    TOTEN  =       -12.81502508 eV

  energy without entropy =      -12.81109096  energy(sigma->0) =      -12.81371371


--------------------------------------------------------------------------------------------------------




--------------------------------------- Iteration      1(   6)  ---------------------------------------


    POTLOK:  cpu time    0.0111: real time    0.0112
    SETDIJ:  cpu time    0.5207: real time    0.5220
     EDDAV:  cpu time    0.8701: real time    0.8722
       DOS:  cpu time    0.0025: real time    0.0025
    CHARGE:  cpu time    0.0656: real time    0.0657
    MIXING:  cpu time    0.0005: real time    0.0005
    --------------------------------------------
      LOOP:  cpu time    1.4705: real time    1.4741

 eigenvalue-minimisations  :  8352
 total energy-change (2. order) : 0.1327907E+01  (-0.1237551E+01)
 number of electron      20.0000039 magnetization       0.0000000
 augmentation part       12.9709642 magnetization       0.0000000

 Broyden mixing:
  rms(total) = 0.82849E+00    rms(broyden)= 0.82846E+00
  rms(prec ) = 0.13870E+01
  weight for this iteration     100.00

 eigenvalues of (default mixing * dielectric matrix)
  average eigenvalue GAMMA=   0.7540
  0.7540

 Free energy of the ion-electron system (eV)
  ---------------------------------------------------
  alpha Z        PSCENC =        94.94887387
  Ewald energy   TEWEN  =     -1884.92442377
  -Hartree energ DENC   =      -438.29559773
  -exchange      EXHF   =         0.00000000
  -V(xc)+E(xc)   XCENC  =        60.97766112
  PAW double counting   =      2062.97589923    -2187.90108960
  entropy T*S    EENTRO =        -0.01165591
  eigenvalues    EBANDS =       125.40137556
  atomic energy  EATOM  =      2155.34183880
  Solvation  Ediel_sol  =         0.00000000
  ---------------------------------------------------
  free energy    TOTEN  =       -11.48711842 eV

  energy without entropy =      -11.47546251  energy(sigma->0) =      -11.48323312


--------------------------------------------------------------------------------------------------------




--------------------------------------- Iteration      1(   7)  ---------------------------------------


    POTLOK:  cpu time    0.0117: real time    0.0121
    SETDIJ:  cpu time    0.5120: real time    0.5132
     EDDAV:  cpu time    0.8729: real time    0.8750
       DOS:  cpu time    0.0024: real time    0.0025
    CHARGE:  cpu time    0.0694: real time    0.0696
    MIXING:  cpu time    0.0004: real time    0.0004
    --------------------------------------------
      LOOP:  cpu time    1.4689: real time    1.4729

 eigenvalue-minimisations  :  8464
 total energy-change (2. order) : 0.6249564E+00  (-0.2499587E+00)
 number of electron      20.0000037 magnetization      -0.0000000
 augmentation part       12.2364822 magnetization      -0.0000000

 Broyden mixing:
  rms(total) = 0.25758E+00    rms(broyden)= 0.25756E+00
  rms(prec ) = 0.39287E+00
  weight for this iteration     100.00

 eigenvalues of (default mixing * dielectric matrix)
  average eigenvalue GAMMA=   1.0524
  1.4955  0.6093

 Free energy of the ion-electron system (eV)
  ---------------------------------------------------
  alpha Z        PSCENC =        94.94887387
  Ewald energy   TEWEN  =     -1884.92442377
  -Hartree energ DENC   =      -452.88899355
  -exchange      EXHF   =         0.00000000
  -V(xc)+E(xc)   XCENC  =        61.74315721
  PAW double counting   =      2137.74018941    -2270.46822512
  entropy T*S    EENTRO =        -0.01448866
  eigenvalues    EBANDS =       147.65990977
  atomic energy  EATOM  =      2155.34183880
  Solvation  Ediel_sol  =         0.00000000
  ---------------------------------------------------
  free energy    TOTEN  =       -10.86216205 eV

  energy without entropy =      -10.84767339  energy(sigma->0) =      -10.85733249


--------------------------------------------------------------------------------------------------------




--------------------------------------- Iteration      1(   8)  ---------------------------------------


    POTLOK:  cpu time    0.0113: real time    0.0114
    SETDIJ:  cpu time    0.4942: real time    0.4954
     EDDAV:  cpu time    1.2522: real time    1.2552
       DOS:  cpu time    0.0023: real time    0.0023
    CHARGE:  cpu time    0.0676: real time    0.0678
    MIXING:  cpu time    0.0004: real time    0.0004
    --------------------------------------------
      LOOP:  cpu time    1.8280: real time    1.8324

 eigenvalue-minimisations  : 12520
 total energy-change (2. order) : 0.2985178E-01  (-0.3268407E-02)
 number of electron      20.0000037 magnetization      -0.0000000
 augmentation part       12.3061293 magnetization      -0.0000000

 Broyden mixing:
  rms(total) = 0.86070E-01    rms(broyden)= 0.86062E-01
  rms(prec ) = 0.11967E+00
  weight for this iteration     100.00

 eigenvalues of (default mixing * dielectric matrix)
  average eigenvalue GAMMA=   1.0228
  1.7929  0.6377  0.6377

 Free energy of the ion-electron system (eV)
  ---------------------------------------------------
  alpha Z        PSCENC =        94.94887387
  Ewald energy   TEWEN  =     -1884.92442377
  -Hartree energ DENC   =      -447.55551607
  -exchange      EXHF   =         0.00000000
  -V(xc)+E(xc)   XCENC  =        61.47031220
  PAW double counting   =      2236.88509078    -2372.39829131
  entropy T*S    EENTRO =        -0.01970833
  eigenvalues    EBANDS =       145.41951356
  atomic energy  EATOM  =      2155.34183880
  Solvation  Ediel_sol  =         0.00000000
  ---------------------------------------------------
  free energy    TOTEN  =       -10.83231027 eV

  energy without entropy =      -10.81260194  energy(sigma->0) =      -10.82574083


--------------------------------------------------------------------------------------------------------




--------------------------------------- Iteration      1(   9)  ---------------------------------------


    POTLOK:  cpu time    0.0110: real time    0.0111
    SETDIJ:  cpu time    0.5208: real time    0.5221
     EDDAV:  cpu time    1.0764: real time    1.0789
       DOS:  cpu time    0.0025: real time    0.0025
    CHARGE:  cpu time    0.0721: real time    0.0723
    MIXING:  cpu time    0.0004: real time    0.0004
    --------------------------------------------
      LOOP:  cpu time    1.6832: real time    1.6873

 eigenvalue-minimisations  : 10672
 total energy-change (2. order) : 0.2704971E-02  (-0.3511093E-03)
 number of electron      20.0000037 magnetization       0.0000000
 augmentation part       12.3179571 magnetization       0.0000000

 Broyden mixing:
  rms(total) = 0.34966E-01    rms(broyden)= 0.34953E-01
  rms(prec ) = 0.52678E-01
  weight for this iteration     100.00

 eigenvalues of (default mixing * dielectric matrix)
  average eigenvalue GAMMA=   1.2468
  2.5504  1.1759  0.6304  0.6304

 Free energy of the ion-electron system (eV)
  ---------------------------------------------------
  alpha Z        PSCENC =        94.94887387
  Ewald energy   TEWEN  =     -1884.92442377
  -Hartree energ DENC   =      -446.28278251
  -exchange      EXHF   =         0.00000000
  -V(xc)+E(xc)   XCENC  =        61.40865830
  PAW double counting   =      2265.06093161    -2401.43007727
  entropy T*S    EENTRO =        -0.02114371
  eigenvalues    EBANDS =       145.06851937
  atomic energy  EATOM  =      2155.34183880
  Solvation  Ediel_sol  =         0.00000000
  ---------------------------------------------------
  free energy    TOTEN  =       -10.82960530 eV

  energy without entropy =      -10.80846159  energy(sigma->0) =      -10.82255740


--------------------------------------------------------------------------------------------------------




--------------------------------------- Iteration      1(  10)  ---------------------------------------


    POTLOK:  cpu time    0.0110: real time    0.0115
    SETDIJ:  cpu time    0.5137: real time    0.5149
     EDDAV:  cpu time    1.3398: real time    1.3430
       DOS:  cpu time    0.0025: real time    0.0025
    CHARGE:  cpu time    0.0705: real time    0.0706
    MIXING:  cpu time    0.0005: real time    0.0005
    --------------------------------------------
      LOOP:  cpu time    1.9379: real time    1.9429

 eigenvalue-minimisations  : 13432
 total energy-change (2. order) : 0.9607222E-03  (-0.7119206E-04)
 number of electron      20.0000037 magnetization      -0.0000000
 augmentation part       12.3276619 magnetization      -0.0000000

 Broyden mixing:
  rms(total) = 0.80263E-02    rms(broyden)= 0.79761E-02
  rms(prec ) = 0.81731E-02
  weight for this iteration     100.00

 eigenvalues of (default mixing * dielectric matrix)
  average eigenvalue GAMMA=   1.0831
  2.3262  1.0622  0.7646  0.6314  0.6314

 Free energy of the ion-electron system (eV)
  ---------------------------------------------------
  alpha Z        PSCENC =        94.94887387
  Ewald energy   TEWEN  =     -1884.92442377
  -Hartree energ DENC   =      -445.04220786
  -exchange      EXHF   =         0.00000000
  -V(xc)+E(xc)   XCENC  =        61.34919940
  PAW double counting   =      2294.77068299    -2432.01960617
  entropy T*S    EENTRO =        -0.02247488
  eigenvalues    EBANDS =       144.76947304
  atomic energy  EATOM  =      2155.34183880
  Solvation  Ediel_sol  =         0.00000000
  ---------------------------------------------------
  free energy    TOTEN  =       -10.82864458 eV

  energy without entropy =      -10.80616970  energy(sigma->0) =      -10.82115295


--------------------------------------------------------------------------------------------------------




--------------------------------------- Iteration      1(  11)  ---------------------------------------


    POTLOK:  cpu time    0.0117: real time    0.0118
    SETDIJ:  cpu time    0.5092: real time    0.5105
     EDDAV:  cpu time    1.1542: real time    1.1572
       DOS:  cpu time    0.0025: real time    0.0026
    CHARGE:  cpu time    0.0701: real time    0.0702
    MIXING:  cpu time    0.0005: real time    0.0005
    --------------------------------------------
      LOOP:  cpu time    1.7482: real time    1.7528

 eigenvalue-minimisations  : 11648
 total energy-change (2. order) :-0.9510339E-04  (-0.6818955E-05)
 number of electron      20.0000037 magnetization      -0.0000000
 augmentation part       12.3270970 magnetization      -0.0000000

 Broyden mixing:
  rms(total) = 0.51970E-02    rms(broyden)= 0.51832E-02
  rms(prec ) = 0.56832E-02
  weight for this iteration     100.00

 eigenvalues of (default mixing * dielectric matrix)
  average eigenvalue GAMMA=   0.9222
  2.3172  1.0403  0.7549  0.6323  0.6323  0.1564

 Free energy of the ion-electron system (eV)
  ---------------------------------------------------
  alpha Z        PSCENC =        94.94887387
  Ewald energy   TEWEN  =     -1884.92442377
  -Hartree energ DENC   =      -445.12869729
  -exchange      EXHF   =         0.00000000
  -V(xc)+E(xc)   XCENC  =        61.35347393
  PAW double counting   =      2293.51767758    -2430.70192942
  entropy T*S    EENTRO =        -0.02270480
  eigenvalues    EBANDS =       144.78715142
  atomic energy  EATOM  =      2155.34183880
  Solvation  Ediel_sol  =         0.00000000
  ---------------------------------------------------
  free energy    TOTEN  =       -10.82873968 eV

  energy without entropy =      -10.80603488  energy(sigma->0) =      -10.82117141


--------------------------------------------------------------------------------------------------------




--------------------------------------- Iteration      1(  12)  ---------------------------------------


    POTLOK:  cpu time    0.0113: real time    0.0115
    SETDIJ:  cpu time    0.5006: real time    0.5018
     EDDAV:  cpu time    1.1090: real time    1.1116
       DOS:  cpu time    0.0025: real time    0.0026
    CHARGE:  cpu time    0.0701: real time    0.0703
    MIXING:  cpu time    0.0005: real time    0.0005
    --------------------------------------------
      LOOP:  cpu time    1.6941: real time    1.6982

 eigenvalue-minimisations  : 10960
 total energy-change (2. order) :-0.1893930E-04  (-0.1193897E-05)
 number of electron      20.0000037 magnetization       0.0000000
 augmentation part       12.3271593 magnetization       0.0000000

 Broyden mixing:
  rms(total) = 0.49893E-02    rms(broyden)= 0.49851E-02
  rms(prec ) = 0.54627E-02
  weight for this iteration     100.00

 eigenvalues of (default mixing * dielectric matrix)
  average eigenvalue GAMMA=   0.9198
  2.3105  1.0242  0.7294  0.6311  0.6311  0.5560  0.5560

 Free energy of the ion-electron system (eV)
  ---------------------------------------------------
  alpha Z        PSCENC =        94.94887387
  Ewald energy   TEWEN  =     -1884.92442377
  -Hartree energ DENC   =      -445.13195297
  -exchange      EXHF   =         0.00000000
  -V(xc)+E(xc)   XCENC  =        61.35344701
  PAW double counting   =      2293.73912645    -2430.91767298
  entropy T*S    EENTRO =        -0.02289296
  eigenvalues    EBANDS =       144.78489792
  atomic energy  EATOM  =      2155.34183880
  Solvation  Ediel_sol  =         0.00000000
  ---------------------------------------------------
  free energy    TOTEN  =       -10.82875862 eV

  energy without entropy =      -10.80586566  energy(sigma->0) =      -10.82112763


--------------------------------------------------------------------------------------------------------




--------------------------------------- Iteration      1(  13)  ---------------------------------------


    POTLOK:  cpu time    0.0115: real time    0.0116
    SETDIJ:  cpu time    0.4992: real time    0.5004
     EDDAV:  cpu time    1.1578: real time    1.1610
       DOS:  cpu time    0.0024: real time    0.0024
    CHARGE:  cpu time    0.0693: real time    0.0694
    MIXING:  cpu time    0.0005: real time    0.0005
    --------------------------------------------
      LOOP:  cpu time    1.7407: real time    1.7454

 eigenvalue-minimisations  : 11616
 total energy-change (2. order) :-0.2203715E-04  (-0.2054799E-04)
 number of electron      20.0000037 magnetization       0.0000000
 augmentation part       12.3275583 magnetization       0.0000000

 Broyden mixing:
  rms(total) = 0.20319E-02    rms(broyden)= 0.19633E-02
  rms(prec ) = 0.25791E-02
  weight for this iteration     100.00

 eigenvalues of (default mixing * dielectric matrix)
  average eigenvalue GAMMA=   1.3651
  2.7904  2.7904  1.8444  0.9304  0.6166  0.6409  0.6538  0.6538

 Free energy of the ion-electron system (eV)
  ---------------------------------------------------
  alpha Z        PSCENC =        94.94887387
  Ewald energy   TEWEN  =     -1884.92442377
  -Hartree energ DENC   =      -445.14536002
  -exchange      EXHF   =         0.00000000
  -V(xc)+E(xc)   XCENC  =        61.35239570
  PAW double counting   =      2294.82617282    -2431.97653005
  entropy T*S    EENTRO =        -0.02372548
  eigenvalues    EBANDS =       144.77197747
  atomic energy  EATOM  =      2155.34183880
  Solvation  Ediel_sol  =         0.00000000
  ---------------------------------------------------
  free energy    TOTEN  =       -10.82878066 eV

  energy without entropy =      -10.80505518  energy(sigma->0) =      -10.82087216


--------------------------------------------------------------------------------------------------------




--------------------------------------- Iteration      1(  14)  ---------------------------------------


    POTLOK:  cpu time    0.0110: real time    0.0111
    SETDIJ:  cpu time    0.4905: real time    0.4916
     EDDAV:  cpu time    1.2673: real time    1.2703
       DOS:  cpu time    0.0025: real time    0.0025
    CHARGE:  cpu time    0.0697: real time    0.0698
    MIXING:  cpu time    0.0006: real time    0.0006
    --------------------------------------------
      LOOP:  cpu time    1.8415: real time    1.8459

 eigenvalue-minimisations  : 12816
 total energy-change (2. order) :-0.3676728E-04  (-0.5610783E-05)
 number of electron      20.0000037 magnetization      -0.0000000
 augmentation part       12.3278524 magnetization      -0.0000000

 Broyden mixing:
  rms(total) = 0.10013E-02    rms(broyden)= 0.93792E-03
  rms(prec ) = 0.10723E-02
  weight for this iteration     100.00

 eigenvalues of (default mixing * dielectric matrix)
  average eigenvalue GAMMA=   1.3036
  2.7045  2.7045  1.8104  0.9291  0.9291  0.6270  0.6270  0.7006  0.7006

 Free energy of the ion-electron system (eV)
  ---------------------------------------------------
  alpha Z        PSCENC =        94.94887387
  Ewald energy   TEWEN  =     -1884.92442377
  -Hartree energ DENC   =      -445.11563285
  -exchange      EXHF   =         0.00000000
  -V(xc)+E(xc)   XCENC  =        61.35068030
  PAW double counting   =      2296.28261995    -2433.45130659
  entropy T*S    EENTRO =        -0.02408023
  eigenvalues    EBANDS =       144.76261309
  atomic energy  EATOM  =      2155.34183880
  Solvation  Ediel_sol  =         0.00000000
  ---------------------------------------------------
  free energy    TOTEN  =       -10.82881742 eV

  energy without entropy =      -10.80473719  energy(sigma->0) =      -10.82079068


--------------------------------------------------------------------------------------------------------




--------------------------------------- Iteration      1(  15)  ---------------------------------------


    POTLOK:  cpu time    0.0112: real time    0.0113
    SETDIJ:  cpu time    0.4964: real time    0.4976
     EDDAV:  cpu time    0.9705: real time    0.9728
       DOS:  cpu time    0.0025: real time    0.0025
    CHARGE:  cpu time    0.0702: real time    0.0704
    MIXING:  cpu time    0.0007: real time    0.0007
    --------------------------------------------
      LOOP:  cpu time    1.5515: real time    1.5552

 eigenvalue-minimisations  :  9432
 total energy-change (2. order) :-0.1198295E-04  (-0.6170803E-06)
 number of electron      20.0000037 magnetization      -0.0000000
 augmentation part       12.3278795 magnetization      -0.0000000

 Broyden mixing:
  rms(total) = 0.85587E-03    rms(broyden)= 0.84637E-03
  rms(prec ) = 0.85213E-03
  weight for this iteration     100.00

 eigenvalues of (default mixing * dielectric matrix)
  average eigenvalue GAMMA=   1.2442
  3.1441  2.3230  1.9515  1.1182  0.9117  0.6065  0.6065  0.6385  0.6017  0.5405

 Free energy of the ion-electron system (eV)
[...]
     16      22.1659      0.00000

 k-point   118 :       0.4545    0.3636    0.3636
  band No.  band energies     occupation 
      1       5.8477      1.00000
      2       5.9322      1.00000
      3       6.2073      1.00000
      4       6.2750      1.00000
      5       7.2248      1.00000
      6       7.3579      1.00000
      7       8.5326      1.00000
      8       8.6697      1.00001
      9       9.2221      0.93858
     10       9.4257      0.20646
     11      13.3755     -0.00000
     12      15.1168      0.00000
     13      16.8479      0.00000
     14      18.8457      0.00000
     15      20.8967      0.00000
     16      22.5308      0.00000

 k-point   119 :       0.3636    0.4545    0.3636
  band No.  band energies     occupation 
      1       6.0929      1.00000
      2       6.2393      1.00000
      3       6.3536      1.00000
      4       6.6406      1.00000
      5       6.6525      1.00000
      6       6.9446      1.00000
      7       8.3779      1.00000
      8       8.5134      1.00000
      9       8.9930      1.01485
     10       9.1868      0.99507
     11      12.8407     -0.00000
     12      13.8174     -0.00000
     13      18.1062      0.00000
     14      19.4034      0.00000
     15      20.6743      0.00000
     16      21.3341      0.00000

 k-point   120 :       0.4545    0.4545    0.3636
  band No.  band energies     occupation 
      1       6.0895      1.00000
      2       6.1485      1.00000
      3       6.3492      1.00000
      4       6.4457      1.00000
      5       6.9026      1.00000
      6       7.0120      1.00000
      7       8.4000      1.00000
      8       8.5362      1.00000
      9       9.2009      0.97602
     10       9.4139      0.24723
     11      14.2985     -0.00000
     12      15.1868      0.00000
     13      16.6655      0.00000
     14      17.6473      0.00000
     15      21.4607      0.00000
     16      22.1673      0.00000

 k-point   121 :       0.4545    0.0000    0.4545
  band No.  band energies     occupation 
      1       5.0181      1.00000
      2       5.0723      1.00000
      3       5.6451      1.00000
      4       5.6472      1.00000
      5       9.2000      0.97733
      6       9.2488      0.87568
      7       9.3457      0.52158
      8       9.4741      0.07272
      9       9.5288     -0.00958
     10       9.5314     -0.01185
     11      11.4513     -0.00000
     12      12.3677     -0.00000
     13      19.0395      0.00000
     14      19.7522      0.00000
     15      23.8805      0.00000
     16      24.1361      0.00000

 k-point   122 :       0.4545    0.0909    0.4545
  band No.  band energies     occupation 
      1       5.0774      1.00000
      2       5.1289      1.00000
      3       5.6811      1.00000
      4       5.6824      1.00000
      5       9.0401      1.02522
      6       9.1379      1.03060
      7       9.2150      0.95240
      8       9.3176      0.63844
      9       9.4086      0.26649
     10       9.5820     -0.03465
     11      11.8308     -0.00000
     12      12.6881     -0.00000
     13      19.0606      0.00000
     14      19.7905      0.00000
     15      22.6278      0.00000
     16      24.0409      0.00000

 k-point   123 :       0.4545    0.1818    0.4545
  band No.  band energies     occupation 
      1       5.2461      1.00000
      2       5.2898      1.00000
      3       5.7879      1.00000
      4       5.7895      1.00000
      5       8.5642      1.00000
      6       8.5647      1.00000
      7       9.0689      1.03140
      8       9.1770      1.00573
      9       9.3661      0.43567
     10       9.5921     -0.03540
     11      12.6442     -0.00000
     12      13.4677     -0.00000
     13      19.1160      0.00000
     14      19.9093      0.00000
     15      21.1691      0.00000
     16      22.7116      0.00000

 k-point   124 :       0.4545    0.2727    0.4545
  band No.  band energies     occupation 
      1       5.4925      1.00000
      2       5.5268      1.00000
      3       5.9633      1.00000
      4       5.9716      1.00000
      5       7.9572      1.00000
      6       8.0005      1.00000
      7       8.8609      1.00145
      8       8.9747      1.01152
      9       9.3566      0.47577
     10       9.5952     -0.03546
     11      13.6215     -0.00000
     12      14.4887     -0.00000
     13      19.0703      0.00000
     14      19.9333      0.00000
     15      20.1147      0.00000
     16      21.2228      0.00000

 k-point   125 :       0.4545    0.3636    0.4545
  band No.  band energies     occupation 
      1       5.7552      1.00000
      2       5.7865      1.00000
      3       6.2053      1.00000
      4       6.2291      1.00000
      5       7.4009      1.00000
      6       7.4589      1.00000
      7       8.6315      1.00000
      8       8.7540      1.00010
      9       9.3537      0.48806
     10       9.5965     -0.03546
     11      14.6837     -0.00000
     12      15.6566      0.00000
     13      18.1714      0.00000
     14      19.7348      0.00000
     15      19.7357      0.00000
     16      20.3737      0.00000

 k-point   126 :       0.4545    0.4545    0.4545
  band No.  band energies     occupation 
      1       5.9370      1.00000
      2       5.9715      1.00000
      3       6.5168      1.00000
      4       6.5621      1.00000
      5       6.9197      1.00000
      6       6.9775      1.00000
      7       8.4689      1.00000
      8       8.5993      1.00000
      9       9.3528      0.49191
     10       9.5971     -0.03545
     11      15.8036      0.00000
     12      16.9329      0.00000
     13      16.9719      0.00000
     14      18.2975      0.00000
     15      20.0289      0.00000
     16      20.3851      0.00000


--------------------------------------------------------------------------------------------------------


 soft charge-density along one line, spin component           1
         0         1         2         3         4         5         6         7         8         9
 total charge-density along one line
 
 soft charge-density along one line, spin component           2
         0         1         2         3         4         5         6         7         8         9
 total charge-density along one line
 
 pseudopotential strength for first ion, spin component:           1
 -0.169  -0.000   0.000  -0.020   0.000  -0.865  -0.000   0.000
 -0.000  -0.191   0.016  -0.000  -0.022  -0.000  -0.886   0.015
  0.000   0.016  -0.203  -0.000   0.023   0.000   0.015  -0.897
 -0.020  -0.000  -0.000  -0.155  -0.000  -0.019  -0.000  -0.000
  0.000  -0.022   0.023  -0.000  -0.207   0.000  -0.021   0.021
 -0.865  -0.000   0.000  -0.019   0.000  -1.489  -0.000   0.000
 -0.000  -0.886   0.015  -0.000  -0.021  -0.000  -1.509   0.014
  0.000   0.015  -0.897  -0.000   0.021   0.000   0.014  -1.520
 -0.019  -0.000  -0.000  -0.851  -0.000  -0.019  -0.000  -0.000
  0.000  -0.021   0.021  -0.000  -0.901   0.000  -0.020   0.020
  0.000  -0.002   0.000   0.000   0.001   0.000  -0.002   0.000
  0.000  -0.004   0.000   0.000   0.003   0.000  -0.004   0.000
  0.000   0.000  -0.000   0.000  -0.000   0.000   0.000  -0.000
  0.000   0.000   0.000  -0.000   0.000   0.000   0.000   0.000
  0.000   0.000   0.000   0.000  -0.000   0.000   0.000   0.000
  0.000   0.000  -0.000   0.000  -0.000   0.000   0.000  -0.000
  0.000   0.000   0.000  -0.000   0.000   0.000   0.000   0.000
  0.000   0.000   0.000   0.000  -0.000   0.000   0.000   0.000
 pseudopotential strength for first ion, spin component:           2
 -0.111  -0.000   0.000  -0.008   0.000  -0.810  -0.000   0.000
 -0.000  -0.070  -0.018  -0.000  -0.003  -0.000  -0.771  -0.017
  0.000  -0.018  -0.095  -0.000  -0.025   0.000  -0.017  -0.795
 -0.008  -0.000  -0.000  -0.105  -0.000  -0.008  -0.000  -0.000
  0.000  -0.003  -0.025  -0.000  -0.072   0.000  -0.003  -0.024
 -0.810  -0.000   0.000  -0.008   0.000  -1.436  -0.000   0.000
 -0.000  -0.771  -0.017  -0.000  -0.003  -0.000  -1.399  -0.016
  0.000  -0.017  -0.795  -0.000  -0.024   0.000  -0.016  -1.422
 -0.008  -0.000  -0.000  -0.804  -0.000  -0.008  -0.000  -0.000
  0.000  -0.003  -0.024  -0.000  -0.773   0.000  -0.003  -0.023
  0.000   0.003   0.000   0.000  -0.002   0.000   0.003   0.000
  0.000   0.005   0.000   0.000  -0.003   0.000   0.005   0.000
  0.000   0.000  -0.000  -0.000  -0.000   0.000   0.000  -0.000
 -0.000   0.000   0.000  -0.000   0.000  -0.000   0.000   0.000
  0.000  -0.000   0.000   0.000  -0.000   0.000  -0.000   0.000
  0.000   0.000  -0.000  -0.000  -0.000   0.000   0.000  -0.000
 -0.000   0.000   0.000  -0.000  -0.000  -0.000   0.000   0.000
  0.000  -0.000   0.000   0.000  -0.000   0.000  -0.000   0.000
 total augmentation occupancy for first ion, spin component:           1
  2.938  -0.000   0.000  -0.403   0.000  -1.335   0.000  -0.000   0.188  -0.000   0.000   0.000   0.000   0.000   0.000   0.000
 -0.000   3.241  -0.012  -0.000  -0.395   0.000  -1.482   0.009   0.000   0.183  -0.006  -0.000   0.000   0.000   0.000   0.000
  0.000  -0.012   2.668  -0.000  -0.017  -0.000   0.009  -1.213   0.000   0.012  -0.000  -0.000   0.000  -0.000   0.000   0.000
 -0.403  -0.000  -0.000   3.223  -0.000   0.188   0.000   0.000  -1.469   0.000   0.000   0.000   0.000  -0.000  -0.000   0.000
  0.000  -0.395  -0.017  -0.000   2.962  -0.000   0.183   0.012   0.000  -1.352   0.004   0.000   0.000   0.000   0.000   0.000
 -1.335   0.000  -0.000   0.188  -0.000   1.482  -0.000   0.000  -0.032   0.000  -0.000  -0.000  -0.000   0.000   0.000   0.000
  0.000  -1.482   0.009   0.000   0.183  -0.000   1.514  -0.006  -0.000  -0.028   0.003   0.000   0.000   0.000   0.000   0.000
 -0.000   0.009  -1.213   0.000   0.012   0.000  -0.006   1.467  -0.000  -0.009   0.000   0.000   0.000   0.000   0.000   0.000
  0.188   0.000   0.000  -1.469   0.000  -0.032  -0.000  -0.000   1.505  -0.000  -0.000  -0.000   0.000   0.000   0.000   0.000
 -0.000   0.183   0.012   0.000  -1.352   0.000  -0.028  -0.009  -0.000   1.494  -0.002  -0.000   0.000   0.000  -0.000   0.000
  0.000  -0.006  -0.000   0.000   0.004  -0.000   0.003   0.000  -0.000  -0.002   2.333  -0.328  -0.000  -0.000  -0.000   0.000
  0.000  -0.000  -0.000   0.000   0.000  -0.000   0.000   0.000  -0.000  -0.000  -0.328   0.053   0.000   0.000  -0.000   0.000
 -0.000  -0.000   0.000   0.000   0.000  -0.000   0.000   0.000   0.000   0.000   0.000   0.000   0.310  -0.000  -0.000  -0.034
 -0.000   0.000   0.000  -0.000  -0.000   0.000   0.000   0.000   0.000  -0.000   0.000   0.000  -0.000   0.310  -0.000   0.000
  0.000  -0.000  -0.000   0.000   0.000   0.000   0.000   0.000   0.000   0.000   0.000   0.000  -0.000  -0.000   0.310   0.000
  0.000   0.000   0.000  -0.000   0.000   0.000   0.000   0.000   0.000   0.000   0.000   0.000  -0.034   0.000   0.000   0.004
 -0.000   0.000   0.000   0.000   0.000   0.000   0.000   0.000   0.000   0.000   0.000   0.000   0.000  -0.034   0.000  -0.000
  0.000   0.000  -0.000   0.000   0.000   0.000   0.000   0.000  -0.000  -0.000  -0.000  -0.000   0.000   0.000  -0.034  -0.000
 total augmentation occupancy for first ion, spin component:           2
  0.019  -0.000   0.000   0.016   0.000  -0.004   0.000  -0.000  -0.006  -0.000  -0.000  -0.000   0.000  -0.000  -0.000  -0.000
 -0.000   0.239  -0.122  -0.000   0.064   0.000  -0.132   0.069   0.000  -0.032   0.002   0.001   0.000   0.000   0.000   0.000
  0.000  -0.122   0.179  -0.000  -0.173  -0.000   0.069  -0.093   0.000   0.097   0.000   0.000   0.000   0.000   0.000   0.000
  0.016  -0.000  -0.000   0.007   0.000  -0.006   0.000   0.000   0.000  -0.000  -0.000  -0.000   0.000   0.000   0.000   0.000
  0.000   0.064  -0.173   0.000   0.284  -0.000  -0.032   0.097  -0.000  -0.155  -0.002  -0.000   0.000  -0.000  -0.000   0.000
 -0.004   0.000  -0.000  -0.006  -0.000  -0.007  -0.000  -0.000   0.001   0.000   0.000  -0.000   0.000   0.000   0.000   0.000
  0.000  -0.132   0.069   0.000  -0.032  -0.000   0.063  -0.035  -0.000   0.013  -0.001   0.001   0.000  -0.000   0.000   0.000
 -0.000   0.069  -0.093   0.000   0.097  -0.000  -0.035   0.037   0.000  -0.050  -0.000   0.000  -0.000   0.000   0.000   0.000
 -0.006   0.000   0.000   0.000  -0.000   0.001  -0.000   0.000  -0.008   0.000   0.000  -0.000   0.000   0.000   0.000  -0.000
 -0.000  -0.032   0.097  -0.000  -0.155   0.000   0.013  -0.050   0.000   0.072   0.001  -0.000   0.000  -0.000   0.000   0.000
 -0.000   0.002   0.000  -0.000  -0.002   0.000  -0.001  -0.000   0.000   0.001  -0.017   0.006   0.000   0.000   0.000   0.000
 -0.000   0.001   0.000  -0.000  -0.000  -0.000   0.001   0.000  -0.000  -0.000   0.006  -0.001  -0.000   0.000  -0.000   0.000
  0.000   0.000  -0.000  -0.000  -0.000   0.000   0.000   0.000  -0.000   0.000   0.000   0.000  -0.000  -0.000   0.000   0.000
 -0.000  -0.000   0.000   0.000  -0.000   0.000   0.000   0.000   0.000   0.000  -0.000  -0.000  -0.000  -0.000   0.000   0.000
 -0.000   0.000   0.000   0.000   0.000  -0.000   0.000   0.000  -0.000   0.000   0.000  -0.000   0.000   0.000  -0.000  -0.000
 -0.000   0.000   0.000   0.000   0.000   0.000   0.000   0.000   0.000   0.000   0.000   0.000   0.000   0.000  -0.000  -0.000
 -0.000   0.000   0.000   0.000   0.000   0.000   0.000   0.000   0.000   0.000   0.000  -0.000   0.000   0.000  -0.000  -0.000
  0.000   0.000   0.000   0.000   0.000   0.000   0.000   0.000  -0.000  -0.000   0.000  -0.000  -0.000  -0.000   0.000   0.000


------------------------ aborting loop because EDIFF is reached ----------------------------------------


 


 total charge     
 
# of ion       s       p       d       tot
------------------------------------------
    1        0.500   0.506   8.328   9.334
    2        0.500   0.506   8.328   9.334
--------------------------------------------------
tot          1.000   1.011  16.656  18.668
 


 magnetization (x)
 
# of ion       s       p       d       tot
------------------------------------------
    1        0.000   0.001   0.110   0.111
    2       -0.000  -0.001  -0.110  -0.111
--------------------------------------------------
tot          0.000   0.000  -0.000  -0.000
 
    CHARGE:  cpu time    0.0690: real time    0.0692
    FORLOC:  cpu time    0.0003: real time    0.0003
    FORNL :  cpu time    0.0842: real time    0.0844
    STRESS:  cpu time    0.3179: real time    0.3186
    FORCOR:  cpu time    0.0110: real time    0.0110
    FORHAR:  cpu time    0.0012: real time    0.0012
    MIXING:  cpu time    0.0007: real time    0.0007
    OFIELD:  cpu time    0.0000: real time    0.0000

  FORCE on cell =-STRESS in cart. coord.  units (eV):
  Direction    XX          YY          ZZ          XY          YZ          ZX
  --------------------------------------------------------------------------------------
  Alpha Z    94.94887    94.94887    94.94887
  Ewald    -628.30859  -628.30859  -628.30856     0.00001    -0.00000     0.00001
  Hartree   148.39743   148.33239   148.36491     0.00000    -0.04599     0.00000
  E(xc)    -110.04520  -110.04320  -110.04420     0.00000     0.00142     0.00000
  Local       2.18896     2.40343     2.29618    -0.00001     0.15166    -0.00000
  n-local   -20.69934   -13.81252   -12.06280     1.89895    -2.52335     1.39407
  augment   352.00505   351.92935   351.96719    -0.00000    -0.05353    -0.00000
  Kinetic   159.31187   155.33109   154.90815    -0.79364     1.36363     2.02301
  Fock        0.00000     0.00000     0.00000     0.00000     0.00000     0.00000
  -------------------------------------------------------------------------------------
  Total       0.23844     0.19464     0.21654    -0.00000    -0.03097    -0.00000
  in kB      17.78109    14.51446    16.14777    -0.00000    -2.30986    -0.00000
  external pressure =       16.15 kB  Pullay stress =        0.00 kB


 VOLUME and BASIS-vectors are now :
 -----------------------------------------------------------------------------
  energy-cutoff  :      520.00
  volume of cell :       21.48
      direct lattice vectors                 reciprocal lattice vectors
     2.476700100  0.000000000  0.000000000     0.403763056  0.000000009  0.000000007
    -0.000000100  2.859846930  2.022217100     0.000000000  0.233112709  0.164835583
     0.000000000 -1.429923470  2.022217100     0.000000000 -0.233112709  0.329671164

  length of vectors
     2.476700100  3.502582827  2.476700048     0.403763056  0.285503598  0.403763064


 FORCES acting on ions
    electron-ion (+dipol)            ewald-force                    non-local-force                 convergence-correction
 -----------------------------------------------------------------------------------------------
   0.491E-13 -.110E-13 -.423E-13   -.277E-14 -.119E-13 -.130E-13   0.813E-24 0.207E-23 -.827E-24   0.597E-13 -.664E-14 0.275E-14
   0.496E-12 -.871E-12 -.248E-12   0.893E-14 0.151E-13 0.719E-14   0.880E-24 0.931E-24 -.393E-23   0.533E-13 0.161E-14 0.572E-14
 -----------------------------------------------------------------------------------------------
   0.545E-12 -.882E-12 -.291E-12   0.616E-14 0.319E-14 -.579E-14   0.169E-23 0.300E-23 -.476E-23   0.113E-12 -.503E-14 0.847E-14
 
 
 POSITION                                       TOTAL-FORCE (eV/Angst)
 -----------------------------------------------------------------------------------
      0.00000      0.00000      0.00000        -0.000000     -0.000000      0.000000
      1.23835      0.71496      2.02222         0.000000      0.000000     -0.000000
 -----------------------------------------------------------------------------------
    total drift:                                0.000000     -0.000000     -0.000000


--------------------------------------------------------------------------------------------------------



  FREE ENERGIE OF THE ION-ELECTRON SYSTEM (eV)
  ---------------------------------------------------
  free  energy   TOTEN  =       -10.82883599 eV

  energy  without entropy=      -10.80439846  energy(sigma->0) =      -10.82069015
 


--------------------------------------------------------------------------------------------------------


    POTLOK:  cpu time    0.5578: real time    0.5591


--------------------------------------------------------------------------------------------------------


     LOOP+:  cpu time   29.0918: real time   29.1775
    4ORBIT:  cpu time    0.0000: real time    0.0000
 


 total charge     
 
# of ion       s       p       d       tot
------------------------------------------
    1        0.500   0.506   8.328   9.334
    2        0.500   0.506   8.328   9.334
--------------------------------------------------
tot          1.000   1.011  16.656  18.668
 


 magnetization (x)
 
# of ion       s       p       d       tot
------------------------------------------
    1        0.000   0.001   0.110   0.111
    2       -0.000  -0.001  -0.110  -0.111
--------------------------------------------------
tot          0.000   0.000  -0.000  -0.000
 

 total amount of memory used by VASP MPI-rank0    48221. kBytes
=======================================================================

   base      :      30000. kBytes
   nonl-proj :      11051. kBytes
   fftplans  :        384. kBytes
   grid      :       1499. kBytes
   one-center:         62. kBytes
   wavefun   :       5225. kBytes
 
  
  
 General timing and accounting informations for this job:
 ========================================================
  
                  Total CPU time used (sec):       30.494
                            User time (sec):       30.053
                          System time (sec):        0.441
                         Elapsed time (sec):       31.441
  
                   Maximum memory used (kb):       73920.
                   Average memory used (kb):           0.
  
                          Minor page faults:        20769
                          Major page faults:            0
                 Voluntary context switches:         1401
