unknown system                          
   1.00000000000000     
     0.000000    2.840052    2.840052
     0.000000    2.840052   -2.840052
    -2.840052    0.000000   -2.840052
   Fe
     4
Direct
  0.500000  0.500000  0.000000
  0.750000  0.750000  0.500000
  0.000000  0.000000  0.000000
  0.250000  0.250000  0.500000
 
   60   60   60
 0.20534305655E+04 0.34959533835E+04 0.50910795643E+03 0.63958572549E+03 0.88300581976E+03
 0.77893813005E+03 0.55897170749E+03 0.36488105210E+03 0.22916251358E+03 0.14304778824E+03
 0.90730897610E+02 0.59493702722E+02 0.40894684552E+02 0.29743288824E+02 0.22951672965E+02
 0.18649155583E+02 0.16022004656E+02 0.14260532998E+02 0.13106429209E+02 0.12357567080E+02
 0.11872594327E+02 0.11560708532E+02 0.11366973511E+02 0.11258326891E+02 0.11212689902E+02
 0.11212137003E+02 0.11239926906E+02 0.11280298073E+02 0.11319576535E+02 0.11347386989E+02
 0.11357366479E+02 0.11347386989E+02 0.11319576535E+02 0.11280298073E+02 0.11239926906E+02
 0.11212137003E+02 0.11212689902E+02 0.11258326891E+02 0.11366973511E+02 0.11560708532E+02
 0.11872594327E+02 0.12357567080E+02 0.13106429209E+02 0.14260532998E+02 0.16022004656E+02
 0.18649155583E+02 0.22951672965E+02 0.29743288824E+02 0.40894684552E+02 0.59493702722E+02
 0.90730897610E+02 0.14304778824E+03 0.22916251358E+03 0.36488105210E+03 0.55897170749E+03
 0.77893813005E+03 0.88300581976E+03 0.63958572549E+03 0.50910795643E+03 0.34959533835E+04
 0.34959533835E+04 0.17117260215E+04 0.44294404910E+03 0.72190449148E+03 0.89372094743E+03
 0.76325010603E+03 0.54317768841E+03 0.35439981687E+03 0.22307979049E+03 0.13969645642E+03
 0.88915536973E+02 0.58508540096E+02 0.40351974701E+02 0.29435946709E+02 0.22770906214E+02
 0.18543066150E+02 0.15949270731E+02 0.14210439316E+02 0.13070913193E+02 0.12331161386E+02
 0.11851864209E+02 0.11543612130E+02 0.11352321911E+02 0.11245395128E+02 0.11200977769E+02
 0.11201252464E+02 0.11229550703E+02 0.11270186691E+02 0.11309570467E+02 0.11337405989E+02
 0.11347386989E+02 0.11337405989E+02 0.11309570467E+02 0.11270186691E+02 0.11229550703E+02
 0.11201252464E+02 0.11200977769E+02 0.11245395128E+02 0.11352321911E+02 0.11543612130E+02
 0.11851864209E+02 0.12331161386E+02 0.13070913193E+02 0.14210439316E+02 0.15949270731E+02
 0.18543066150E+02 0.22770906214E+02 0.29435946709E+02 0.40351974701E+02 0.58508540096E+02
 0.88915536973E+02 0.13969645642E+03 0.22307979049E+03 0.35439981687E+03 0.54317768841E+03
 0.76325010603E+03 0.89372094743E+03 0.72190449148E+03 0.44294404910E+03 0.17117260215E+04
 0.50910795643E+03 0.44294404910E+03 0.61356149916E+03 0.87435011518E+03 0.88678552143E+03
 0.70975328790E+03 0.49693649588E+03 0.32460629163E+03 0.20587688772E+03 0.13019830587E+03
 0.83745795862E+02 0.55687863647E+02 0.38791411599E+02 0.28547699687E+02 0.22246006836E+02
 0.18232046790E+02 0.15736286687E+02 0.14063790093E+02 0.12966928634E+02 0.12253870740E+02
 0.11791271932E+02 0.11493793072E+02 0.11309829769E+02 0.11208122791E+02 0.11167460647E+02
 0.11170331535E+02 0.11200272057E+02 0.11241811772E+02 0.11281600920E+02 0.11309570467E+02
 0.11319576535E+02 0.11309570467E+02 0.11281600920E+02 0.11241811772E+02 0.11200272057E+02
 0.11170331535E+02 0.11167460647E+02 0.11208122791E+02 0.11309829769E+02 0.11493793072E+02
 0.11791271932E+02 0.12253870740E+02 0.12966928634E+02 0.14063790093E+02 0.15736286687E+02
 0.18232046790E+02 0.22246006836E+02 0.28547699687E+02 0.38791411599E+02 0.55687863647E+02
 0.83745795862E+02 0.13019830587E+03 0.20587688772E+03 0.32460629163E+03 0.49693649588E+03
 0.70975328790E+03 0.88678552143E+03 0.87435011518E+03 0.61356149916E+03 0.44294404910E+03
 0.63958572549E+03 0.72190449148E+03 0.87435011518E+03 0.92044710654E+03 0.80742539645E+03
 0.61428874126E+03 0.42607811847E+03 0.28046802480E+03 0.18046934190E+03 0.11607432483E+03
 0.75984131928E+02 0.51408677689E+02 0.36396119433E+02 0.27173174084E+02 0.21111695124E+02
 0.17737425221E+02 0.15398313036E+02 0.13831228257E+02 0.12802058119E+02 0.12131477247E+02
 0.11695685186E+02 0.11415771709E+02 0.11244005781E+02 0.11151192670E+02 0.11117092288E+02
 0.11124643854E+02 0.11157685687E+02 0.11201070188E+02 0.11241811772E+02 0.11270186691E+02
 0.11280298073E+02 0.11270186691E+02 0.11241811772E+02 0.11201070188E+02 0.11157685687E+02
 0.11124643854E+02 0.11117092288E+02 0.11151192670E+02 0.11244005781E+02 0.11415771709E+02
 0.11695685186E+02 0.12131477247E+02 0.12802058119E+02 0.13831228257E+02 0.15398313036E+02
 0.17737425221E+02 0.21111695124E+02 0.27173174084E+02 0.36396119433E+02 0.51408677689E+02
 0.75984131928E+02 0.11607432483E+03 0.18046934190E+03 0.28046802480E+03 0.42607811847E+03
 0.61428874126E+03 0.80742539645E+03 0.92044710654E+03 0.87435011518E+03 0.72190449148E+03
 0.88300581976E+03 0.89372094743E+03 0.88678552143E+03 0.80742539645E+03 0.66013554397E+03
 0.49168692179E+03 0.34265472112E+03 0.22940161954E+03 0.15090641506E+03 0.99414962992E+02
 0.66681648130E+02 0.46196253578E+02 0.33434155672E+02 0.25444702297E+02 0.20179150155E+02
 0.17093197748E+02 0.14959429758E+02 0.13529616208E+02 0.12588520080E+02 0.11973533597E+02
 0.11573337636E+02 0.11317300792E+02 0.11162603391E+02 0.11082616500E+02 0.11058272280E+02
 0.11073034752E+02 0.11111092722E+02 0.11157685687E+02 0.11200272057E+02 0.11229550703E+02
 0.11239926906E+02 0.11229550703E+02 0.11200272057E+02 0.11157685687E+02 0.11111092722E+02
 0.11073034752E+02 0.11058272280E+02 0.11082616500E+02 0.11162603391E+02 0.11317300792E+02
 0.11573337636E+02 0.11973533597E+02 0.12588520080E+02 0.13529616208E+02 0.14959429758E+02
 0.17093197748E+02 0.20179150155E+02 0.25444702297E+02 0.33434155672E+02 0.46196253578E+02
 0.66681648130E+02 0.99414962992E+02 0.15090641506E+03 0.22940161954E+03 0.34265472112E+03
 0.49168692179E+03 0.66013554397E+03 0.80742539645E+03 0.88678552143E+03 0.89372094743E+03
 0.77893813005E+03 0.76325010603E+03 0.70975328790E+03 0.61428874126E+03 0.49168692179E+03
 0.36731817753E+03 0.26059940411E+03 0.17899683169E+03 0.12123234037E+03 0.82333427361E+02
 0.56929722485E+02 0.40613196461E+02 0.30194172992E+02 0.23517146812E+02 0.19086439275E+02
 0.16343313174E+02 0.14450410014E+02 0.13180644455E+02 0.12342378387E+02 0.11792973644E+02
 0.11435660517E+02 0.11209282230E+02 0.11076530668E+02 0.11013581277E+02 0.11002597598E+02
 0.11027568424E+02 0.11073034752E+02 0.11124643854E+02 0.11170331535E+02 0.11201252464E+02
 0.11212137003E+02 0.11201252464E+02 0.11170331535E+02 0.11124643854E+02 0.11073034752E+02
 0.11027568424E+02 0.11002597598E+02 0.11013581277E+02 0.11076530668E+02 0.11209282230E+02
 0.11435660517E+02 0.11792973644E+02 0.12342378387E+02 0.13180644455E+02 0.14450410014E+02
 0.16343313174E+02 0.19086439275E+02 0.23517146812E+02 0.30194172992E+02 0.40613196461E+02
 0.56929722485E+02 0.82333427361E+02 0.12123234037E+03 0.17899683169E+03 0.26059940411E+03
 0.36731817753E+03 0.49168692179E+03 0.61428874126E+03 0.70975328790E+03 0.76325010603E+03
 0.55897170749E+03 0.54317768841E+03 0.49693649588E+03 0.42607811847E+03 0.34265472112E+03
 0.26059940411E+03 0.18993637399E+03 0.13472879788E+03 0.94479057753E+02 0.66497439213E+02
 0.47635324776E+02 0.35148476431E+02 0.26940189848E+02 0.21211692773E+02 0.17904390029E+02
 0.15537514079E+02 0.13905741702E+02 0.12808855046E+02 0.12082259098E+02 0.11605238328E+02
 0.11296603739E+02 0.11105140454E+02 0.10999190562E+02 0.10957712150E+02 0.10964030150E+02
 0.11002597598E+02 0.11058272280E+02 0.11117092288E+02 0.11167460647E+02 0.11200977769E+02
 0.11212689902E+02 0.11200977769E+02 0.11167460647E+02 0.11117092288E+02 0.11058272280E+02
 0.11002597598E+02 0.10964030150E+02 0.10957712150E+02 0.10999190562E+02 0.11105140454E+02
 0.11296603739E+02 0.11605238328E+02 0.12082259098E+02 0.12808855046E+02 0.13905741702E+02
 0.15537514079E+02 0.17904390029E+02 0.21211692773E+02 0.26940189848E+02 0.35148476431E+02
 0.47635324776E+02 0.66497439213E+02 0.94479057753E+02 0.13472879788E+03 0.18993637399E+03
 0.26059940411E+03 0.34265472112E+03 0.42607811847E+03 0.49693649588E+03 0.54317768841E+03
 0.36488105210E+03 0.35439981687E+03 0.32460629163E+03 0.28046802480E+03 0.22940161954E+03
 0.17899683169E+03 0.13472879788E+03 0.99109023247E+02 0.72243335944E+02 0.52896928570E+02
 0.39395116524E+02 0.30150606482E+02 0.23876211719E+02 0.19483433733E+02 0.16706535376E+02
 0.14726088826E+02 0.13360106458E+02 0.12439270189E+02 0.11827659588E+02 0.11426939089E+02
 0.11171450508E+02 0.11019677000E+02 0.10945326859E+02 0.10929899069E+02 0.10957712150E+02
 0.11013581277E+02 0.11082616500E+02 0.11151192670E+02 0.11208122791E+02 0.11245395128E+02
 0.11258326891E+02 0.11245395128E+02 0.11208122791E+02 0.11151192670E+02 0.11082616500E+02
 0.11013581277E+02 0.10957712150E+02 0.10929899069E+02 0.10945326859E+02 0.11019677000E+02
 0.11171450508E+02 0.11426939089E+02 0.11827659588E+02 0.12439270189E+02 0.13360106458E+02
 0.14726088826E+02 0.16706535376E+02 0.19483433733E+02 0.23876211719E+02 0.30150606482E+02
 0.39395116524E+02 0.52896928570E+02 0.72243335944E+02 0.99109023247E+02 0.13472879788E+03
 0.17899683169E+03 0.22940161954E+03 0.28046802480E+03 0.32460629163E+03 0.35439981687E+03
 0.22916251358E+03 0.22307979049E+03 0.20587688772E+03 0.18046934190E+03 0.15090641506E+03
 0.12123234037E+03 0.94479057753E+02 0.72243335944E+02 0.54863831685E+02 0.41880543326E+02
 0.32483115634E+02 0.25815590607E+02 0.20860179572E+02 0.17816062585E+02 0.15560512357E+02
 0.13954437827E+02 0.12844897313E+02 0.12095016797E+02 0.11597156461E+02 0.11274356476E+02
 0.11075466636E+02 0.10967826774E+02 0.10929899069E+02 0.10945326859E+02 0.10999190562E+02
 0.11076530668E+02 0.11162603391E+02 0.11244005781E+02 0.11309829769E+02 0.11352321911E+02
 0.11366973511E+02 0.11352321911E+02 0.11309829769E+02 0.11244005781E+02 0.11162603391E+02
 0.11076530668E+02 0.10999190562E+02 0.10945326859E+02 0.10929899069E+02 0.10967826774E+02
 0.11075466636E+02 0.11274356476E+02 0.11597156461E+02 0.12095016797E+02 0.12844897313E+02
 0.13954437827E+02 0.15560512357E+02 0.17816062585E+02 0.20860179572E+02 0.25815590607E+02
 0.32483115634E+02 0.41880543326E+02 0.54863831685E+02 0.72243335944E+02 0.94479057753E+02
 0.12123234037E+03 0.15090641506E+03 0.18046934190E+03 0.20587688772E+03 0.22307979049E+03
 0.14304778824E+03 0.13969645642E+03 0.13019830587E+03 0.11607432483E+03 0.99414962992E+02
 0.82333427361E+02 0.66497439213E+02 0.52896928570E+02 0.41880543326E+02 0.33341323930E+02
 0.26926409466E+02 0.21804232452E+02 0.18693137290E+02 0.16292584039E+02 0.14520458832E+02
 0.13258636801E+02 0.12385478215E+02 0.11795450962E+02 0.11406975423E+02 0.11162281870E+02
 0.11022983380E+02 0.10964030150E+02 0.10967826774E+02 0.11019677000E+02 0.11105140454E+02
 0.11209282230E+02 0.11317300792E+02 0.11415771709E+02 0.11493793072E+02 0.11543612130E+02
 0.11560708532E+02 0.11543612130E+02 0.11493793072E+02 0.11415771709E+02 0.11317300792E+02
 0.11209282230E+02 0.11105140454E+02 0.11019677000E+02 0.10967826774E+02 0.10964030150E+02
 0.11022983380E+02 0.11162281870E+02 0.11406975423E+02 0.11795450962E+02 0.12385478215E+02
 0.13258636801E+02 0.14520458832E+02 0.16292584039E+02 0.18693137290E+02 0.21804232452E+02
 0.26926409466E+02 0.33341323930E+02 0.41880543326E+02 0.52896928570E+02 0.66497439213E+02
 0.82333427361E+02 0.99414962992E+02 0.11607432483E+03 0.13019830587E+03 0.13969645642E+03
 0.90730897610E+02 0.88915536973E+02 0.83745795862E+02 0.75984131928E+02 0.66681648130E+02
 0.56929722485E+02 0.47635324776E+02 0.39395116524E+02 0.32483115634E+02 0.26926409466E+02
 0.22594574637E+02 0.19179182711E+02 0.16797199904E+02 0.14969380983E+02 0.13622369328E+02
 0.12662991408E+02 0.11999766335E+02 0.11555239977E+02 0.11270396543E+02 0.11103753952E+02
 0.11027568424E+02 0.11022983380E+02 0.11075466636E+02 0.11171450508E+02 0.11296603739E+02
 0.11435660517E+02 0.11573337636E+02 0.11695685186E+02 0.11791271932E+02 0.11851864209E+02
 0.11872594327E+02 0.11851864209E+02 0.11791271932E+02 0.11695685186E+02 0.11573337636E+02
 0.11435660517E+02 0.11296603739E+02 0.11171450508E+02 0.11075466636E+02 0.11022983380E+02
 0.11027568424E+02 0.11103753952E+02 0.11270396543E+02 0.11555239977E+02 0.11999766335E+02
 0.12662991408E+02 0.13622369328E+02 0.14969380983E+02 0.16797199904E+02 0.19179182711E+02
 0.22594574637E+02 0.26926409466E+02 0.32483115634E+02 0.39395116524E+02 0.47635324776E+02
 0.56929722485E+02 0.66681648130E+02 0.75984131928E+02 0.83745795862E+02 0.88915536973E+02
 0.59493702722E+02 0.58508540096E+02 0.55687863647E+02 0.51408677689E+02 0.46196253578E+02
 0.40613196461E+02 0.35148476431E+02 0.30150606482E+02 0.25815590607E+02 0.21804232452E+02
 0.19179182711E+02 0.16977561629E+02 0.15218750119E+02 0.13873452187E+02 0.12883361538E+02
 0.12179993414E+02 0.11698392605E+02 0.11384664817E+02 0.11198322055E+02 0.11111092722E+02
 0.11103753952E+02 0.11162281870E+02 0.11274356476E+02 0.11426939089E+02 0.11605238328E+02
 0.11792973644E+02 0.11973533597E+02 0.12131477247E+02 0.12253870740E+02 0.12331161386E+02
 0.12357567080E+02 0.12331161386E+02 0.12253870740E+02 0.12131477247E+02 0.11973533597E+02
 0.11792973644E+02 0.11605238328E+02 0.11426939089E+02 0.11274356476E+02 0.11162281870E+02
 0.11103753952E+02 0.11111092722E+02 0.11198322055E+02 0.11384664817E+02 0.11698392605E+02
 0.12179993414E+02 0.12883361538E+02 0.13873452187E+02 0.15218750119E+02 0.16977561629E+02
 0.19179182711E+02 0.21804232452E+02 0.25815590607E+02 0.30150606482E+02 0.35148476431E+02
 0.40613196461E+02 0.46196253578E+02 0.51408677689E+02 0.55687863647E+02 0.58508540096E+02
 0.40894684552E+02 0.40351974701E+02 0.38791411599E+02 0.36396119433E+02 0.33434155672E+02
 0.30194172992E+02 0.26940189848E+02 0.23876211719E+02 0.20860179572E+02 0.18693137290E+02
 0.16797199904E+02 0.15218750119E+02 0.13963264223E+02 0.13005823741E+02 0.12304489176E+02
 0.11812397774E+02 0.11486307857E+02 0.11291132043E+02 0.11201070188E+02 0.11198322055E+02
 0.11270396543E+02 0.11406975423E+02 0.11597156461E+02 0.11827659588E+02 0.12082259098E+02
 0.12342378387E+02 0.12588520080E+02 0.12802058119E+02 0.12966928634E+02 0.13070913193E+02
 0.13106429209E+02 0.13070913193E+02 0.12966928634E+02 0.12802058119E+02 0.12588520080E+02
 0.12342378387E+02 0.12082259098E+02 0.11827659588E+02 0.11597156461E+02 0.11406975423E+02
 0.11270396543E+02 0.11198322055E+02 0.11201070188E+02 0.11291132043E+02 0.11486307857E+02
 0.11812397774E+02 0.12304489176E+02 0.13005823741E+02 0.13963264223E+02 0.15218750119E+02
 0.16797199904E+02 0.18693137290E+02 0.20860179572E+02 0.23876211719E+02 0.26940189848E+02
 0.30194172992E+02 0.33434155672E+02 0.36396119433E+02 0.38791411599E+02 0.40351974701E+02
 0.29743288824E+02 0.29435946709E+02 0.28547699687E+02 0.27173174084E+02 0.25444702297E+02
 0.23517146812E+02 0.21211692773E+02 0.19483433733E+02 0.17816062585E+02 0.16292584039E+02
 0.14969380983E+02 0.13873452187E+02 0.13005823741E+02 0.12349019191E+02 0.11875768457E+02
 0.11556645532E+02 0.11365387646E+02 0.11281600920E+02 0.11291132043E+02 0.11384664817E+02
 0.11555239977E+02 0.11795450962E+02 0.12095016797E+02 0.12439270189E+02 0.12808855046E+02
 0.13180644455E+02 0.13529616208E+02 0.13831228257E+02 0.14063790093E+02 0.14210439316E+02
 0.14260532998E+02 0.14210439316E+02 0.14063790093E+02 0.13831228257E+02 0.13529616208E+02
 0.13180644455E+02 0.12808855046E+02 0.12439270189E+02 0.12095016797E+02 0.11795450962E+02
 0.11555239977E+02 0.11384664817E+02 0.11291132043E+02 0.11281600920E+02 0.11365387646E+02
 0.11556645532E+02 0.11875768457E+02 0.12349019191E+02 0.13005823741E+02 0.13873452187E+02
 0.14969380983E+02 0.16292584039E+02 0.17816062585E+02 0.19483433733E+02 0.21211692773E+02
 0.23517146812E+02 0.25444702297E+02 0.27173174084E+02 0.28547699687E+02 0.29435946709E+02
 0.22951672965E+02 0.22770906214E+02 0.22246006836E+02 0.21111695124E+02 0.20179150155E+02
 0.19086439275E+02 0.17904390029E+02 0.16706535376E+02 0.15560512357E+02 0.14520458832E+02
 0.13622369328E+02 0.12883361538E+02 0.12304489176E+02 0.11875768457E+02 0.11581803130E+02
 0.11406688942E+02 0.11337405989E+02 0.11365387646E+02 0.11486307857E+02 0.11698392605E+02
 0.11999766335E+02 0.12385478215E+02 0.12844897313E+02 0.13360106458E+02 0.13905741702E+02
 0.14450410014E+02 0.14959429758E+02 0.15398313036E+02 0.15736286687E+02 0.15949270731E+02
 0.16022004656E+02 0.15949270731E+02 0.15736286687E+02 0.15398313036E+02 0.14959429758E+02
 0.14450410014E+02 0.13905741702E+02 0.13360106458E+02 0.12844897313E+02 0.12385478215E+02
 0.11999766335E+02 0.11698392605E+02 0.11486307857E+02 0.11365387646E+02 0.11337405989E+02
 0.11406688942E+02 0.11581803130E+02 0.11875768457E+02 0.12304489176E+02 0.12883361538E+02
 0.13622369328E+02 0.14520458832E+02 0.15560512357E+02 0.16706535376E+02 0.17904390029E+02
 0.19086439275E+02 0.20179150155E+02 0.21111695124E+02 0.22246006836E+02 0.22770906214E+02
 0.18649155583E+02 0.18543066150E+02 0.18232046790E+02 0.17737425221E+02 0.17093197748E+02
 0.16343313174E+02 0.15537514079E+02 0.14726088826E+02 0.13954437827E+02 0.13258636801E+02
 0.12662991408E+02 0.12179993414E+02 0.11812397774E+02 0.11556645532E+02 0.11406688942E+02
 0.11357366479E+02 0.11406688942E+02 0.11556645532E+02 0.11812397774E+02 0.12179993414E+02
 0.12662991408E+02 0.13258636801E+02 0.13954437827E+02 0.14726088826E+02 0.15537514079E+02
 0.16343313174E+02 0.17093197748E+02 0.17737425221E+02 0.18232046790E+02 0.18543066150E+02
 0.18649155583E+02 0.18543066150E+02 0.18232046790E+02 0.17737425221E+02 0.17093197748E+02
 0.16343313174E+02 0.15537514079E+02 0.14726088826E+02 0.13954437827E+02 0.13258636801E+02
 0.12662991408E+02 0.12179993414E+02 0.11812397774E+02 0.11556645532E+02 0.11406688942E+02
 0.11357366479E+02 0.11406688942E+02 0.11556645532E+02 0.11812397774E+02 0.12179993414E+02
 0.12662991408E+02 0.13258636801E+02 0.13954437827E+02 0.14726088826E+02 0.15537514079E+02
 0.16343313174E+02 0.17093197748E+02 0.17737425221E+02 0.18232046790E+02 0.18543066150E+02
 0.16022004656E+02 0.15949270731E+02 0.15736286687E+02 0.15398313036E+02 0.14959429758E+02
 0.14450410014E+02 0.13905741702E+02 0.13360106458E+02 0.12844897313E+02 0.12385478215E+02
 0.11999766335E+02 0.11698392605E+02 0.11486307857E+02 0.11365387646E+02 0.11337405989E+02
 0.11406688942E+02 0.11581803130E+02 0.11875768457E+02 0.12304489176E+02 0.12883361538E+02
 0.13622369328E+02 0.14520458832E+02 0.15560512357E+02 0.16706535376E+02 0.17904390029E+02
 0.19086439275E+02 0.20179150155E+02 0.21111695124E+02 0.22246006836E+02 0.22770906214E+02
 0.22951672965E+02 0.22770906214E+02 0.22246006836E+02 0.21111695124E+02 0.20179150155E+02
 0.19086439275E+02 0.17904390029E+02 0.16706535376E+02 0.15560512357E+02 0.14520458832E+02
 0.13622369328E+02 0.12883361538E+02 0.12304489176E+02 0.11875768457E+02 0.11581803130E+02
 0.11406688942E+02 0.11337405989E+02 0.11365387646E+02 0.11486307857E+02 0.11698392605E+02
 0.11999766335E+02 0.12385478215E+02 0.12844897313E+02 0.13360106458E+02 0.13905741702E+02
 0.14450410014E+02 0.14959429758E+02 0.15398313036E+02 0.15736286687E+02 0.15949270731E+02
 0.14260532998E+02 0.14210439316E+02 0.14063790093E+02 0.13831228257E+02 0.13529616208E+02
 0.13180644455E+02 0.12808855046E+02 0.12439270189E+02 0.12095016797E+02 0.11795450962E+02
 0.11555239977E+02 0.11384664817E+02 0.11291132043E+02 0.11281600920E+02 0.11365387646E+02
 0.11556645532E+02 0.11875768457E+02 0.12349019191E+02 0.13005823741E+02 0.13873452187E+02
 0.14969380983E+02 0.16292584039E+02 0.17816062585E+02 0.19483433733E+02 0.21211692773E+02
 0.23517146812E+02 0.25444702297E+02 0.27173174084E+02 0.28547699687E+02 0.29435946709E+02
 0.29743288824E+02 0.29435946709E+02 0.28547699687E+02 0.27173174084E+02 0.25444702297E+02
 0.23517146812E+02 0.21211692773E+02 0.19483433733E+02 0.17816062585E+02 0.16292584039E+02
 0.14969380983E+02 0.13873452187E+02 0.13005823741E+02 0.12349019191E+02 0.11875768457E+02
 0.11556645532E+02 0.11365387646E+02 0.11281600920E+02 0.11291132043E+02 0.11384664817E+02
 0.11555239977E+02 0.11795450962E+02 0.12095016797E+02 0.12439270189E+02 0.12808855046E+02
 0.13180644455E+02 0.13529616208E+02 0.13831228257E+02 0.14063790093E+02 0.14210439316E+02
 0.13106429209E+02 0.13070913193E+02 0.12966928634E+02 0.12802058119E+02 0.12588520080E+02
 0.12342378387E+02 0.12082259098E+02 0.11827659588E+02 0.11597156461E+02 0.11406975423E+02
 0.11270396543E+02 0.11198322055E+02 0.11201070188E+02 0.11291132043E+02 0.11486307857E+02
 0.11812397774E+02 0.12304489176E+02 0.13005823741E+02 0.13963264223E+02 0.15218750119E+02
 0.16797199904E+02 0.18693137290E+02 0.20860179572E+02 0.23876211719E+02 0.26940189848E+02
 0.30194172992E+02 0.33434155672E+02 0.36396119433E+02 0.38791411599E+02 0.40351974701E+02
 0.40894684552E+02 0.40351974701E+02 0.38791411599E+02 0.36396119433E+02 0.33434155672E+02
 0.30194172992E+02 0.26940189848E+02 0.23876211719E+02 0.20860179572E+02 0.18693137290E+02
 0.16797199904E+02 0.15218750119E+02 0.13963264223E+02 0.13005823741E+02 0.12304489176E+02
 0.11812397774E+02 0.11486307857E+02 0.11291132043E+02 0.11201070188E+02 0.11198322055E+02
 0.11270396543E+02 0.11406975423E+02 0.11597156461E+02 0.11827659588E+02 0.12082259098E+02
 0.12342378387E+02 0.12588520080E+02 0.12802058119E+02 0.12966928634E+02 0.13070913193E+02
 0.12357567080E+02 0.12331161386E+02 0.12253870740E+02 0.12131477247E+02 0.11973533597E+02
 0.11792973644E+02 0.11605238328E+02 0.11426939089E+02 0.11274356476E+02 0.11162281870E+02
 0.11103753952E+02 0.11111092722E+02 0.11198322055E+02 0.11384664817E+02 0.11698392605E+02
 0.12179993414E+02 0.12883361538E+02 0.13873452187E+02 0.15218750119E+02 0.16977561629E+02
 0.19179182711E+02 0.21804232452E+02 0.25815590607E+02 0.30150606482E+02 0.35148476431E+02
 0.40613196461E+02 0.46196253578E+02 0.51408677689E+02 0.55687863647E+02 0.58508540096E+02
 0.59493702722E+02 0.58508540096E+02 0.55687863647E+02 0.51408677689E+02 0.46196253578E+02
 0.40613196461E+02 0.35148476431E+02 0.30150606482E+02 0.25815590607E+02 0.21804232452E+02
 0.19179182711E+02 0.16977561629E+02 0.15218750119E+02 0.13873452187E+02 0.12883361538E+02
 0.12179993414E+02 0.11698392605E+02 0.11384664817E+02 0.11198322055E+02 0.11111092722E+02
 0.11103753952E+02 0.11162281870E+02 0.11274356476E+02 0.11426939089E+02 0.11605238328E+02
 0.11792973644E+02 0.11973533597E+02 0.12131477247E+02 0.12253870740E+02 0.12331161386E+02
 0.11872594327E+02 0.11851864209E+02 0.11791271932E+02 0.11695685186E+02 0.11573337636E+02
 0.11435660517E+02 0.11296603739E+02 0.11171450508E+02 0.11075466636E+02 0.11022983380E+02
 0.11027568424E+02 0.11103753952E+02 0.11270396543E+02 0.11555239977E+02 0.11999766335E+02
 0.12662991408E+02 0.13622369328E+02 0.14969380983E+02 0.16797199904E+02 0.19179182711E+02
 0.22594574637E+02 0.26926409466E+02 0.32483115634E+02 0.39395116524E+02 0.47635324776E+02
 0.56929722485E+02 0.66681648130E+02 0.75984131928E+02 0.83745795862E+02 0.88915536973E+02
 0.90730897610E+02 0.88915536973E+02 0.83745795862E+02 0.75984131928E+02 0.66681648130E+02
 0.56929722485E+02 0.47635324776E+02 0.39395116524E+02 0.32483115634E+02 0.26926409466E+02
 0.22594574637E+02 0.19179182711E+02 0.16797199904E+02 0.14969380983E+02 0.13622369328E+02
 0.12662991408E+02 0.11999766335E+02 0.11555239977E+02 0.11270396543E+02 0.11103753952E+02
 0.11027568424E+02 0.11022983380E+02 0.11075466636E+02 0.11171450508E+02 0.11296603739E+02
 0.11435660517E+02 0.11573337636E+02 0.11695685186E+02 0.11791271932E+02 0.11851864209E+02
 0.11560708532E+02 0.11543612130E+02 0.11493793072E+02 0.11415771709E+02 0.11317300792E+02
 0.11209282230E+02 0.11105140454E+02 0.11019677000E+02 0.10967826774E+02 0.10964030150E+02
 0.11022983380E+02 0.11162281870E+02 0.11406975423E+02 0.11795450962E+02 0.12385478215E+02
 0.13258636801E+02 0.14520458832E+02 0.16292584039E+02 0.18693137290E+02 0.21804232452E+02
 0.26926409466E+02 0.33341323930E+02 0.41880543326E+02 0.52896928570E+02 0.66497439213E+02
 0.82333427361E+02 0.99414962992E+02 0.11607432483E+03 0.13019830587E+03 0.13969645642E+03
 0.14304778824E+03 0.13969645642E+03 0.13019830587E+03 0.11607432483E+03 0.99414962992E+02
 0.82333427361E+02 0.66497439213E+02 0.52896928570E+02 0.41880543326E+02 0.33341323930E+02
 0.26926409466E+02 0.21804232452E+02 0.18693137290E+02 0.16292584039E+02 0.14520458832E+02
 0.13258636801E+02 0.12385478215E+02 0.11795450962E+02 0.11406975423E+02 0.11162281870E+02
 0.11022983380E+02 0.10964030150E+02 0.10967826774E+02 0.11019677000E+02 0.11105140454E+02
 0.11209282230E+02 0.11317300792E+02 0.11415771709E+02 0.11493793072E+02 0.11543612130E+02
 0.11366973511E+02 0.11352321911E+02 0.11309829769E+02 0.11244005781E+02 0.11162603391E+02
 0.11076530668E+02 0.10999190562E+02 0.10945326859E+02 0.10929899069E+02 0.10967826774E+02
 0.11075466636E+02 0.11274356476E+02 0.11597156461E+02 0.12095016797E+02 0.12844897313E+02
 0.13954437827E+02 0.15560512357E+02 0.17816062585E+02 0.20860179572E+02 0.25815590607E+02
 0.32483115634E+02 0.41880543326E+02 0.54863831685E+02 0.72243335944E+02 0.94479057753E+02
 0.12123234037E+03 0.15090641506E+03 0.18046934190E+03 0.20587688772E+03 0.22307979049E+03
 0.22916251358E+03 0.22307979049E+03 0.20587688772E+03 0.18046934190E+03 0.15090641506E+03
 0.12123234037E+03 0.94479057753E+02 0.72243335944E+02 0.54863831685E+02 0.41880543326E+02
 0.32483115634E+02 0.25815590607E+02 0.20860179572E+02 0.17816062585E+02 0.15560512357E+02
 0.13954437827E+02 0.12844897313E+02 0.12095016797E+02 0.11597156461E+02 0.11274356476E+02
 0.11075466636E+02 0.10967826774E+02 0.10929899069E+02 0.10945326859E+02 0.10999190562E+02
 0.11076530668E+02 0.11162603391E+02 0.11244005781E+02 0.11309829769E+02 0.11352321911E+02
 0.11258326891E+02 0.11245395128E+02 0.11208122791E+02 0.11151192670E+02 0.11082616500E+02
 0.11013581277E+02 0.10957712150E+02 0.10929899069E+02 0.10945326859E+02 0.11019677000E+02
 0.11171450508E+02 0.11426939089E+02 0.11827659588E+02 0.12439270189E+02 0.13360106458E+02
 0.14726088826E+02 0.16706535376E+02 0.19483433733E+02 0.23876211719E+02 0.30150606482E+02
 0.39395116524E+02 0.52896928570E+02 0.72243335944E+02 0.99109023247E+02 0.13472879788E+03
 0.17899683169E+03 0.22940161954E+03 0.28046802480E+03 0.32460629163E+03 0.35439981687E+03
 0.36488105210E+03 0.35439981687E+03 0.32460629163E+03 0.28046802480E+03 0.22940161954E+03
 0.17899683169E+03 0.13472879788E+03 0.99109023247E+02 0.72243335944E+02 0.52896928570E+02
 0.39395116524E+02 0.30150606482E+02 0.23876211719E+02 0.19483433733E+02 0.16706535376E+02
 0.14726088826E+02 0.13360106458E+02 0.12439270189E+02 0.11827659588E+02 0.11426939089E+02
 0.11171450508E+02 0.11019677000E+02 0.10945326859E+02 0.10929899069E+02 0.10957712150E+02
 0.11013581277E+02 0.11082616500E+02 0.11151192670E+02 0.11208122791E+02 0.11245395128E+02
 0.11212689902E+02 0.11200977769E+02 0.11167460647E+02 0.11117092288E+02 0.11058272280E+02
 0.11002597598E+02 0.10964030150E+02 0.10957712150E+02 0.10999190562E+02 0.11105140454E+02
 0.11296603739E+02 0.11605238328E+02 0.12082259098E+02 0.12808855046E+02 0.13905741702E+02
 0.15537514079E+02 0.17904390029E+02 0.21211692773E+02 0.26940189848E+02 0.35148476431E+02
 0.47635324776E+02 0.66497439213E+02 0.94479057753E+02 0.13472879788E+03 0.18993637399E+03
 0.26059940411E+03 0.34265472112E+03 0.42607811847E+03 0.49693649588E+03 0.54317768841E+03
 0.55897170749E+03 0.54317768841E+03 0.49693649588E+03 0.42607811847E+03 0.34265472112E+03
 0.26059940411E+03 0.18993637399E+03 0.13472879788E+03 0.94479057753E+02 0.66497439213E+02
 0.47635324776E+02 0.35148476431E+02 0.26940189848E+02 0.21211692773E+02 0.17904390029E+02
 0.15537514079E+02 0.13905741702E+02 0.12808855046E+02 0.12082259098E+02 0.11605238328E+02
 0.11296603739E+02 0.11105140454E+02 0.10999190562E+02 0.10957712150E+02 0.10964030150E+02
 0.11002597598E+02 0.11058272280E+02 0.11117092288E+02 0.11167460647E+02 0.11200977769E+02
 0.11212137003E+02 0.11201252464E+02 0.11170331535E+02 0.11124643854E+02 0.11073034752E+02
 0.11027568424E+02 0.11002597598E+02 0.11013581277E+02 0.11076530668E+02 0.11209282230E+02
 0.11435660517E+02 0.11792973644E+02 0.12342378387E+02 0.13180644455E+02 0.14450410014E+02
 0.16343313174E+02 0.19086439275E+02 0.23517146812E+02 0.30194172992E+02 0.40613196461E+02
 0.56929722485E+02 0.82333427361E+02 0.12123234037E+03 0.17899683169E+03 0.26059940411E+03
 0.36731817753E+03 0.49168692179E+03 0.61428874126E+03 0.70975328790E+03 0.76325010603E+03
 0.77893813005E+03 0.76325010603E+03 0.70975328790E+03 0.61428874126E+03 0.49168692179E+03
 0.36731817753E+03 0.26059940411E+03 0.17899683169E+03 0.12123234037E+03 0.82333427361E+02
 0.56929722485E+02 0.40613196461E+02 0.30194172992E+02 0.23517146812E+02 0.19086439275E+02
 0.16343313174E+02 0.14450410014E+02 0.13180644455E+02 0.12342378387E+02 0.11792973644E+02
 0.11435660517E+02 0.11209282230E+02 0.11076530668E+02 0.11013581277E+02 0.11002597598E+02
 0.11027568424E+02 0.11073034752E+02 0.11124643854E+02 0.11170331535E+02 0.11201252464E+02
 0.11239926906E+02 0.11229550703E+02 0.11200272057E+02 0.11157685687E+02 0.11111092722E+02
 0.11073034752E+02 0.11058272280E+02 0.11082616500E+02 0.11162603391E+02 0.11317300792E+02
 0.11573337636E+02 0.11973533597E+02 0.12588520080E+02 0.13529616208E+02 0.14959429758E+02
 0.17093197748E+02 0.20179150155E+02 0.25444702297E+02 0.33434155672E+02 0.46196253578E+02
 0.66681648130E+02 0.99414962992E+02 0.15090641506E+03 0.22940161954E+03 0.34265472112E+03
 0.49168692179E+03 0.66013554397E+03 0.80742539645E+03 0.88678552143E+03 0.89372094743E+03
 0.88300581976E+03 0.89372094743E+03 0.88678552143E+03 0.80742539645E+03 0.66013554397E+03
 0.49168692179E+03 0.34265472112E+03 0.22940161954E+03 0.15090641506E+03 0.99414962992E+02
 0.66681648130E+02 0.46196253578E+02 0.33434155672E+02 0.25444702297E+02 0.20179150155E+02
 0.17093197748E+02 0.14959429758E+02 0.13529616208E+02 0.12588520080E+02 0.11973533597E+02
 0.11573337636E+02 0.11317300792E+02 0.11162603391E+02 0.11082616500E+02 0.11058272280E+02
 0.11073034752E+02 0.11111092722E+02 0.11157685687E+02 0.11200272057E+02 0.11229550703E+02
 0.11280298073E+02 0.11270186691E+02 0.11241811772E+02 0.11201070188E+02 0.11157685687E+02