=========================================
SLURM_JOB_ID = 30554663
SLURM_JOB_NODELIST = lnode36
SLURM_GPUS = 
SLURM_CPUS_ON_NODE = 8
SLURM_JOB_PARTITION = lenovo
SLURM_TASK_PID = 798106
CUDA_VISIBLE_DEVICES = 
==========================================
 running on    8 total cores
 distrk:  each k-point on    8 cores,    1 groups
 distr:  one band on    1 cores,    8 groups
 using from now: INCAR     
 vasp.5.4.4.18Apr17-6-g9f103f2a35 (build Apr 28 2018 00:24:27) complex          
  
 POSCAR found type information on POSCAR  Ni
 POSCAR found :  1 types and       2 ions
 scaLAPACK will be used

 ----------------------------------------------------------------------------- 
|                                                                             |
|           W    W    AA    RRRRR   N    N  II  N    N   GGGG   !!!           |
|           W    W   A  A   R    R  NN   N  II  NN   N  G    G  !!!           |
|           W    W  A    A  R    R  N N  N  II  N N  N  G       !!!           |
|           W WW W  AAAAAA  RRRRR   N  N N  II  N  N N  G  GGG   !            |
|           WW  WW  A    A  R   R   N   NN  II  N   NN  G    G                |
|           W    W  A    A  R    R  N    N  II  N    N   GGGG   !!!           |
|                                                                             |
|      For optimal performance we recommend to set                            |
|        NCORE= 4 - approx SQRT( number of cores)                             |
|      NCORE specifies how many cores store one orbital (NPAR=cpu/NCORE).     |
|      This setting can  greatly improve the performance of VASP for DFT.     |
|      The default,   NCORE=1            might be grossly inefficient         |
|      on modern multi-core architectures or massively parallel machines.     |
|      Do your own testing !!!!                                               |
|      Unfortunately you need to use the default for GW and RPA calculations. |
|      (for HF NCORE is supported but not extensively tested yet)             |
|                                                                             |
 ----------------------------------------------------------------------------- 

 LDA part: xc-table for Pade appr. of Perdew
 POSCAR, INCAR and KPOINTS ok, starting setup
 FFT: planning ...
 WAVECAR not read
 entering main loop
       N       E                     dE             d eps       ncg     rms          rms(c)
DAV:   1     0.843428245965E+02    0.84343E+02   -0.94731E+03  9840   0.177E+03
DAV:   2    -0.103179703014E+02   -0.94661E+02   -0.89479E+02  9464   0.259E+02
DAV:   3    -0.128236919646E+02   -0.25057E+01   -0.24542E+01 11600   0.582E+01
DAV:   4    -0.128534062510E+02   -0.29714E-01   -0.29705E-01 12720   0.506E+00
DAV:   5    -0.128538101068E+02   -0.40386E-03   -0.40384E-03 11488   0.512E-01    0.143E+01
DAV:   6    -0.114852419722E+02    0.13686E+01   -0.12544E+01  9584   0.753E+01    0.839E+00
DAV:   7    -0.108611284230E+02    0.62411E+00   -0.25053E+00  9800   0.312E+01    0.269E+00
DAV:   8    -0.108340334284E+02    0.27095E-01   -0.45559E-02 14416   0.392E+00    0.109E+00
DAV:   9    -0.108302269712E+02    0.38065E-02   -0.43692E-03 13952   0.111E+00    0.367E-01
DAV:  10    -0.108291218584E+02    0.11051E-02   -0.15589E-03 16232   0.841E-01    0.778E-02
DAV:  11    -0.108291786593E+02   -0.56801E-04   -0.15646E-04 13664   0.249E-01    0.396E-02
DAV:  12    -0.108291721426E+02    0.65166E-05   -0.55661E-05 14424   0.108E-01    0.244E-02
DAV:  13    -0.108291854630E+02   -0.13320E-04   -0.87572E-06 10432   0.552E-02    0.181E-02
DAV:  14    -0.108291862594E+02   -0.79631E-06   -0.54564E-06  5960   0.444E-02
   1 F= -.10829186E+02 E0= -.10823390E+02  d E =-.173891E-01  mag=    -0.0000
