=========================================
SLURM_JOB_ID = 31881299
SLURM_JOB_NODELIST = lnode20
SLURM_GPUS = 
SLURM_CPUS_ON_NODE = 8
SLURM_JOB_PARTITION = lenovo
SLURM_TASK_PID = 2322803
CUDA_VISIBLE_DEVICES = 
==========================================
 running on    8 total cores
 distrk:  each k-point on    8 cores,    1 groups
 distr:  one band on    4 cores,    2 groups
 using from now: INCAR     
 vasp.5.4.4.18Apr17-6-g9f103f2a35 (build Apr 28 2018 00:24:27) complex          
  
 POSCAR found type information on POSCAR  Eu O 
 POSCAR found :  2 types and       4 ions
 scaLAPACK will be used
 LDA part: xc-table for Pade appr. of Perdew
 generate k-points for:    4    4    3
 POSCAR, INCAR and KPOINTS ok, starting setup
 FFT: planning ...
 WAVECAR not read
 entering main loop
       N       E                     dE             d eps       ncg     rms          rms(c)
DAV:   1     0.443259030463E+03    0.44326E+03   -0.18401E+04  2784   0.355E+03
DAV:   2     0.505328592914E+02   -0.39273E+03   -0.36864E+03  3248   0.420E+02
DAV:   3    -0.366561557697E+02   -0.87189E+02   -0.85288E+02  3888   0.270E+02
DAV:   4    -0.440981755088E+02   -0.74420E+01   -0.69358E+01  4060   0.658E+01
DAV:   5    -0.450071213060E+02   -0.90895E+00   -0.84644E+00  4272   0.195E+01    0.276E+01
DAV:   6    -0.948873774933E+02   -0.49880E+02   -0.76983E+02  3824   0.236E+02    0.112E+02
DAV:   7    -0.278823404336E+02    0.67005E+02   -0.50194E+02  3664   0.124E+02    0.276E+01
DAV:   8    -0.412411156629E+02   -0.13359E+02   -0.10336E+02  3748   0.619E+01    0.201E+01
DAV:   9    -0.414752551400E+02   -0.23414E+00   -0.85975E+00  3764   0.213E+01    0.131E+01
DAV:  10    -0.416215965126E+02   -0.14634E+00   -0.25593E+00  4080   0.120E+01    0.819E+00
DAV:  11    -0.416853923688E+02   -0.63796E-01   -0.47407E-01  4480   0.523E+00    0.564E+00
DAV:  12    -0.416387655904E+02    0.46627E-01   -0.11811E+00  3776   0.933E+00    0.162E+00
DAV:  13    -0.416417111941E+02   -0.29456E-02   -0.19700E-01  4452   0.422E+00    0.129E+00
DAV:  14    -0.416390081368E+02    0.27031E-02   -0.18902E-02  3716   0.115E+00    0.119E+00
DAV:  15    -0.416352369683E+02    0.37712E-02   -0.27367E-02  4032   0.119E+00    0.805E-01
DAV:  16    -0.416325626506E+02    0.26743E-02   -0.13676E-02  4236   0.125E+00    0.465E-01
DAV:  17    -0.416314337515E+02    0.11289E-02   -0.34117E-03  3700   0.506E-01    0.305E-01
DAV:  18    -0.416313068447E+02    0.12691E-03   -0.97532E-04  4340   0.337E-01    0.177E-01
DAV:  19    -0.416312468708E+02    0.59974E-04   -0.32597E-04  4012   0.171E-01    0.919E-02
DAV:  20    -0.416311989964E+02    0.47874E-04   -0.53672E-04  4028   0.258E-01    0.497E-02
DAV:  21    -0.416311977908E+02    0.12056E-05   -0.66056E-05  3680   0.566E-02    0.428E-02
DAV:  22    -0.416311991022E+02   -0.13115E-05   -0.33621E-05  3972   0.381E-02    0.227E-02
DAV:  23    -0.416312006907E+02   -0.15885E-05   -0.45192E-06  2296   0.213E-02    0.867E-03
DAV:  24    -0.416312006577E+02    0.33036E-07   -0.60407E-07  1624   0.116E-02
   1 F= -.41631201E+02 E0= -.41638449E+02  d E =0.217450E-01  mag=     0.0000
