=========================================
SLURM_JOB_ID = 30234765
SLURM_JOB_NODELIST = lnode48
SLURM_GPUS = 
SLURM_CPUS_ON_NODE = 8
SLURM_JOB_PARTITION = lenovo
SLURM_TASK_PID = 793422
CUDA_VISIBLE_DEVICES = 
==========================================
 running on    8 total cores
 distrk:  each k-point on    8 cores,    1 groups
 distr:  one band on    4 cores,    2 groups
 using from now: INCAR     
 vasp.5.4.4.18Apr17-6-g9f103f2a35 (build Apr 28 2018 00:24:27) complex          
  
 POSCAR found type information on POSCAR  Eu O 
 POSCAR found :  2 types and       4 ions
 scaLAPACK will be used
 LDA part: xc-table for Pade appr. of Perdew
 POSCAR, INCAR and KPOINTS ok, starting setup
 FFT: planning ...
 WAVECAR not read
 entering main loop
       N       E                     dE             d eps       ncg     rms          rms(c)
DAV:   1     0.436663987145E+03    0.43666E+03   -0.18274E+04  2160   0.352E+03
DAV:   2     0.537241381340E+02   -0.38294E+03   -0.35899E+03  2424   0.418E+02
DAV:   3    -0.364596606622E+02   -0.90184E+02   -0.88425E+02  3060   0.263E+02
DAV:   4    -0.440842808957E+02   -0.76246E+01   -0.71814E+01  3068   0.686E+01
DAV:   5    -0.450304286723E+02   -0.94615E+00   -0.87396E+00  3340   0.195E+01    0.277E+01
DAV:   6    -0.969203243137E+02   -0.51890E+02   -0.80195E+02  3012   0.246E+02    0.113E+02
DAV:   7    -0.277866532034E+02    0.69134E+02   -0.47279E+02  2744   0.122E+02    0.259E+01
DAV:   8    -0.410542407469E+02   -0.13268E+02   -0.98827E+01  2792   0.617E+01    0.223E+01
DAV:   9    -0.414469157394E+02   -0.39267E+00   -0.98514E+00  2924   0.209E+01    0.148E+01
DAV:  10    -0.415049869182E+02   -0.58071E-01   -0.19062E+00  3192   0.104E+01    0.108E+01
DAV:  11    -0.416837406495E+02   -0.17875E+00   -0.68112E-01  3192   0.622E+00    0.695E+00
DAV:  12    -0.418253992962E+02   -0.14166E+00   -0.13328E+00  3496   0.799E+00    0.472E+00
DAV:  13    -0.416324858414E+02    0.19291E+00   -0.69876E-01  2948   0.702E+00    0.250E+00
DAV:  14    -0.416207885007E+02    0.11697E-01   -0.13360E-01  3280   0.259E+00    0.162E+00
DAV:  15    -0.416251432710E+02   -0.43548E-02   -0.51817E-02  2912   0.156E+00    0.740E-01
DAV:  16    -0.416213612815E+02    0.37820E-02   -0.35515E-02  2736   0.160E+00    0.363E-01
DAV:  17    -0.416206995789E+02    0.66170E-03   -0.33799E-03  3504   0.658E-01    0.206E-01
DAV:  18    -0.416205789258E+02    0.12065E-03   -0.42935E-04  3424   0.206E-01    0.186E-01
DAV:  19    -0.416204978750E+02    0.81051E-04   -0.15210E-04  3344   0.123E-01    0.172E-01
DAV:  20    -0.416205534994E+02   -0.55624E-04   -0.57980E-04  3232   0.169E-01    0.905E-02
DAV:  21    -0.416205464758E+02    0.70236E-05   -0.13663E-04  3176   0.102E-01    0.666E-02
DAV:  22    -0.416205266923E+02    0.19784E-04   -0.24801E-05  2800   0.371E-02    0.452E-02
DAV:  23    -0.416205183916E+02    0.83007E-05   -0.20153E-05  2888   0.323E-02    0.333E-02
DAV:  24    -0.416205162065E+02    0.21851E-05   -0.10495E-05  2268   0.216E-02    0.120E-02
DAV:  25    -0.416205162633E+02   -0.56833E-07   -0.20497E-06  1716   0.141E-02
   1 F= -.41620516E+02 E0= -.41628085E+02  d E =0.227065E-01  mag=     0.0000
