 vasp.5.4.4.18Apr17-6-g9f103f2a35 (build Apr 28 2018 00:24:27) complex          
  
 executed on             LinuxIFC date 2021.03.25  01:51:13
 running on    8 total cores
 distrk:  each k-point on    8 cores,    1 groups
 distr:  one band on NCORES_PER_BAND=   4 cores,    2 groups


--------------------------------------------------------------------------------------------------------


 INCAR:
 POTCAR:    PAW_PBE Eu 23Dec2003                  
 POTCAR:    PAW_PBE O 08Apr2002                   
 POTCAR:    PAW_PBE Eu 23Dec2003                  
   SHA256 =  ed303d27e7c5191953f9b15539336e6f36d9037c1d2e92e80c13d733697cb93d Eu
   COPYR  = (c) Copyright 23Dec2003 Georg Kresse                                
   COPYR  = This file is part of the software VASP. Any use, copying, and all ot
   COPYR  = If you do not have a valid VASP license, you may not use, copy or di
   VRHFIN =Eu : [core=Kr4d]                                                     
   LEXCH  = PE                                                                  
   EATOM  =  2619.8085 eV,  192.5505 Ry                                         
                                                                                
   TITEL  = PAW_PBE Eu 23Dec2003                                                
   LULTRA =        F    use ultrasoft PP ?                                      
   IUNSCR =        1    unscreen: 0-lin 1-nonlin 2-no                           
   RPACOR =    2.300    partial core radius                                     
   POMASS =  151.965; ZVAL   =   17.000    mass and valenz                      
   RCORE  =    2.800    outmost cutoff radius                                   
   RWIGS  =    2.800; RWIGS  =    1.482    wigner-seitz radius (au A)           
   ENMAX  =  249.668; ENMIN  =  187.251 eV                                      
   RCLOC  =    2.308    cutoff for local pot                                    
   LCOR   =        T    correct aug charges                                     
   LPAW   =        T    paw PP                                                  
   EAUG   =  549.628                                                            
   DEXC   =    0.000                                                            
   RMAX   =    2.870    core radius for proj-oper                               
   RAUG   =    1.300    factor for augmentation sphere                          
   RDEP   =    2.887    radius for radial grids                                 
   RDEPT  =    2.221    core radius for aug-charge                              
                                                                                
   Atomic configuration                                                         
   14 entries                                                                   
     n  l   j            E        occ.                                          
     1  0  0.50    -48354.7667   2.0000                                         
     2  0  0.50     -7939.6472   2.0000                                         
     2  1  1.50     -7072.6637   6.0000                                         
     3  0  0.50     -1747.1875   2.0000                                         
     3  1  1.50     -1477.5221   6.0000                                         
     3  2  2.50     -1117.4686  10.0000                                         
     4  0  0.50      -346.8682   2.0000                                         
     4  1  1.50      -258.1962   6.0000                                         
     4  2  2.50      -134.7724  10.0000                                         
     5  0  0.50       -44.6510   2.0000                                         
     6  0  0.50        -3.6227   2.0000                                         
     5  1  1.50       -23.7639   6.0000                                         
     5  2  2.50        -1.3130   0.0000                                         
     4  3  2.50        -2.7310   7.0000                                         
   Description                                                                  
     l       E           TYP  RCUT    TYP  RCUT                                 
     0    -44.6510453     23  2.400                                             
     0     -3.6226685     23  2.400                                             
     1    -23.7638687     23  2.400                                             
     1     27.2116520     23  2.400                                             
     2     -1.3129622     23  2.500                                             
     2     13.6058260     23  2.500                                             
     3     -2.7309948     23  2.800                                             
     3     -3.4014565     23  2.800                                             
  local pseudopotential read in
  partial core-charges read in
  partial kinetic energy density read in
  atomic valenz-charges read in
  non local Contribution for L=           0  read in
    real space projection operators read in
  non local Contribution for L=           0  read in
    real space projection operators read in
  non local Contribution for L=           1  read in
    real space projection operators read in
  non local Contribution for L=           1  read in
    real space projection operators read in
  non local Contribution for L=           2  read in
    real space projection operators read in
  non local Contribution for L=           2  read in
    real space projection operators read in
  non local Contribution for L=           3  read in
    real space projection operators read in
  non local Contribution for L=           3  read in
    real space projection operators read in
    PAW grid and wavefunctions read in
 
   number of l-projection  operators is LMAX  =           8
   number of lm-projection operators is LMMAX =          32
 
 POTCAR:    PAW_PBE O 08Apr2002                   
   SHA256 =  818f92134a0a090dccd8ba1447fa70422a3b330e708bb4f08108d8ae51209ddf O/
   COPYR  = (c) Copyright 08Apr2002 Georg Kresse                                
   COPYR  = This file is part of the software VASP. Any use, copying, and all ot
   COPYR  = If you do not have a valid VASP license, you may not use, copy or di
   VRHFIN =O: s2p4                                                              
   LEXCH  = PE                                                                  
   EATOM  =   432.3788 eV,   31.7789 Ry                                         
                                                                                
   TITEL  = PAW_PBE O 08Apr2002                                                 
   LULTRA =        F    use ultrasoft PP ?                                      
   IUNSCR =        1    unscreen: 0-lin 1-nonlin 2-no                           
   RPACOR =    1.200    partial core radius                                     
   POMASS =   16.000; ZVAL   =    6.000    mass and valenz                      
   RCORE  =    1.520    outmost cutoff radius                                   
   RWIGS  =    1.550; RWIGS  =    0.820    wigner-seitz radius (au A)           
   ENMAX  =  400.000; ENMIN  =  300.000 eV                                      
   ICORE  =        2    local potential                                         
   LCOR   =        T    correct aug charges                                     
   LPAW   =        T    paw PP                                                  
   EAUG   =  605.392                                                            
   DEXC   =    0.000                                                            
   RMAX   =    1.553    core radius for proj-oper                               
   RAUG   =    1.300    factor for augmentation sphere                          
   RDEP   =    1.550    radius for radial grids                                 
   RDEPT  =    1.329    core radius for aug-charge                              
                                                                                
   Atomic configuration                                                         
    4 entries                                                                   
     n  l   j            E        occ.                                          
     1  0  0.50      -514.6923   2.0000                                         
     2  0  0.50       -23.9615   2.0000                                         
     2  1  0.50        -9.0305   4.0000                                         
     3  2  1.50        -9.5241   0.0000                                         
   Description                                                                  
     l       E           TYP  RCUT    TYP  RCUT                                 
     0    -23.9615318     23  1.200                                             
     0     -9.5240782     23  1.200                                             
     1     -9.0304911     23  1.520                                             
     1      8.1634956     23  1.520                                             
     2     -9.5240782      7  1.500                                             
  local pseudopotential read in
  partial core-charges read in
  partial kinetic energy density read in
  kinetic energy density of atom read in
  atomic valenz-charges read in
  non local Contribution for L=           0  read in
    real space projection operators read in
  non local Contribution for L=           0  read in
    real space projection operators read in
  non local Contribution for L=           1  read in
    real space projection operators read in
  non local Contribution for L=           1  read in
    real space projection operators read in
    PAW grid and wavefunctions read in
 
   number of l-projection  operators is LMAX  =           4
   number of lm-projection operators is LMMAX =           8
 
  PAW_PBE Eu 23Dec2003                  :
 energy of atom  1       EATOM=-2619.8085
 kinetic energy error for atom=    0.0019 (will be added to EATOM!!)
  PAW_PBE O 08Apr2002                   :
 energy of atom  2       EATOM= -432.3788
 kinetic energy error for atom=    0.0224 (will be added to EATOM!!)
 
 
 POSCAR: Eu1 O1 str #: 2                         
  positions in direct lattice
  No initial velocities read in
 exchange correlation table for  LEXCH =        8
   RHO(1)=    0.500       N(1)  =     2000
   RHO(2)=  100.500       N(2)  =     4000
 


--------------------------------------------------------------------------------------------------------


 ion  position               nearest neighbor table
   1  0.000  0.000  0.000-   3 2.54   3 2.54   4 2.54   4 2.54   4 2.54   4 2.54
   2  0.500  0.500  0.500-   4 2.54   4 2.54   3 2.54   3 2.54   3 2.54   3 2.54
   3  0.000  0.000  0.500-   1 2.54   1 2.54   2 2.54   2 2.54   2 2.54   2 2.54
   4  0.500  0.500  1.000-   2 2.54   2 2.54   1 2.54   1 2.54   1 2.54   1 2.54
 
  LATTYP: Found a simple monoclinic cell.
 ALAT       =     6.2226751670
 B/A-ratio  =     0.5773361626
 C/A-ratio  =     1.4142187552
 COS(beta)  =    -0.9428119261
  
  Lattice vectors:
  
 A1 = (  -3.5927775000,  -4.1483958000,  -2.9333340000)
 A2 = (  -0.0000085000,   2.0741624000,  -2.9333340000)
 A3 = (   7.1854231000,   4.1483958000,   2.9333340000)


Analysis of symmetry for initial positions (statically):
=====================================================================
 Subroutine PRICEL returns following result:
 
  LATTYP: Found a trigonal (rhomboedric) cell.
 ALAT       =     3.5926434857
 COS(alpha) =     0.5000183251
  
  Lattice vectors:
  
 A1 = (  -1.7963930000,  -1.0371167000,  -2.9333340000)
 A2 = (  -1.7963845000,  -3.1112791000,   0.0000000000)
 A3 = (  -3.5926456000,   0.0000000000,   0.0000000000)
 
   2 primitive cells build up your supercell.
 

 Routine SETGRP: Setting up the symmetry group for a 
 simple monoclinic supercell.


 Subroutine GETGRP returns: Found  4 space group operations
 (whereof  4 operations were pure point group operations)
 out of a pool of  4 trial point group operations.


The static configuration has the point symmetry C_2h.


Analysis of symmetry for dynamics (positions and initial velocities):
=====================================================================
 Subroutine PRICEL returns following result:
 
  LATTYP: Found a trigonal (rhomboedric) cell.
 ALAT       =     3.5926434857
 COS(alpha) =     0.5000183251
  
  Lattice vectors:
  
 A1 = (  -1.7963930000,  -1.0371167000,  -2.9333340000)
 A2 = (  -1.7963845000,  -3.1112791000,   0.0000000000)
 A3 = (  -3.5926456000,   0.0000000000,   0.0000000000)
 
   2 primitive cells build up your supercell.
 

 Routine SETGRP: Setting up the symmetry group for a 
 simple monoclinic supercell.


 Subroutine GETGRP returns: Found  4 space group operations
 (whereof  4 operations were pure point group operations)
 out of a pool of  4 trial point group operations.


The dynamic configuration has the point symmetry C_2h.


Analysis of structural, dynamic, and magnetic symmetry:
=====================================================================
 Subroutine PRICEL returns following result:
 
  LATTYP: Found a trigonal (rhomboedric) cell.
 ALAT       =     3.5926434857
 COS(alpha) =     0.5000183251
  
  Lattice vectors:
  
 A1 = (  -1.7963930000,  -1.0371167000,  -2.9333340000)
 A2 = (  -1.7963845000,  -3.1112791000,   0.0000000000)
 A3 = (  -3.5926456000,   0.0000000000,   0.0000000000)
 
   2 primitive cells build up your supercell.
 

 Routine SETGRP: Setting up the symmetry group for a 
 simple monoclinic supercell.


 Subroutine GETGRP returns: Found  4 space group operations
 (whereof  4 operations were pure point group operations)
 out of a pool of  4 trial point group operations.


The magnetic configuration has the point symmetry C_2h.


 Subroutine INISYM returns: Found  4 space group operations
 (whereof  4 operations are pure point group operations),
 and found     2 'primitive' translations

 
 

Automatic generation of k-mesh.
 generate k-points for:    4    4    3
Space group operators:
 irot       det(A)        alpha          n_x          n_y          n_z        tau_x        tau_y        tau_z
    1     1.000000     0.000001     1.000000     0.000000     0.000000     0.000000     0.000000     0.000000
    2    -1.000000     0.000001     1.000000     0.000000     0.000000     0.000000     0.000000     0.000000
    3     1.000000   180.000000     0.000000    -0.577347     0.816499     0.000000     0.000000     0.000000
    4    -1.000000   180.000000     0.000000    -0.577347     0.816499     0.000000     0.000000     0.000000
 
 Subroutine IBZKPT returns following result:
 ===========================================
 
 Found     21 irreducible k-points:
 
 Following reciprocal coordinates:
            Coordinates               Weight
  0.000000  0.000000  0.000000      1.000000
  0.250000  0.000000 -0.000000      2.000000
  0.500000  0.000000 -0.000000      1.000000
  0.000000  0.250000 -0.000000      2.000000
  0.250000  0.250000 -0.000000      4.000000
  0.500000  0.250000 -0.000000      2.000000
  0.000000  0.500000 -0.000000      1.000000
  0.250000  0.500000 -0.000000      2.000000
  0.500000  0.500000 -0.000000      1.000000
 -0.000000  0.000000  0.333333      2.000000
  0.250000  0.000000  0.333333      4.000000
  0.500000  0.000000  0.333333      2.000000
  0.000000  0.250000  0.333333      2.000000
  0.250000  0.250000  0.333333      4.000000
  0.500000  0.250000  0.333333      2.000000
  0.000000  0.500000  0.333333      2.000000
  0.250000  0.500000  0.333333      4.000000
  0.500000  0.500000  0.333333      2.000000
 -0.000000 -0.250000  0.333333      2.000000
  0.250000 -0.250000  0.333333      4.000000
  0.500000 -0.250000  0.333333      2.000000
 
 Following cartesian coordinates:
            Coordinates               Weight
  0.000000  0.000000  0.000000      1.000000
  0.000000 -0.040176  0.056818      2.000000
  0.000000 -0.080353  0.113637      1.000000
  0.069587 -0.000001 -0.000001      2.000000
  0.069587 -0.040178  0.056817      4.000000
  0.069587 -0.080354  0.113636      2.000000
  0.139173 -0.000003 -0.000002      1.000000
  0.139173 -0.040179  0.056816      2.000000
  0.139173 -0.080356  0.113635      1.000000
  0.000000  0.053569  0.037878      2.000000
  0.000000  0.013392  0.094697      4.000000
  0.000000 -0.026784  0.151515      2.000000
  0.069587  0.053567  0.037877      2.000000
  0.069587  0.013391  0.094696      4.000000
  0.069587 -0.026786  0.151514      2.000000
  0.139173  0.053566  0.037876      2.000000
  0.139173  0.013389  0.094694      4.000000
  0.139173 -0.026787  0.151513      2.000000
 -0.069587  0.053570  0.037880      2.000000
 -0.069587  0.013394  0.094698      4.000000
 -0.069587 -0.026783  0.151517      2.000000
 


--------------------------------------------------------------------------------------------------------




 Dimension of arrays:
   k-points           NKPTS =     21   k-points in BZ     NKDIM =     21   number of bands    NBANDS=     28
   number of dos      NEDOS =    301   number of ions     NIONS =      4
   non local maximal  LDIM  =      8   non local SUM 2l+1 LMDIM =     32
   total plane-waves  NPLWV =  11200
   max r-space proj   IRMAX =      1   max aug-charges    IRDMAX=   9962
   dimension x,y,z NGX =    20 NGY =   20 NGZ =   28
   dimension x,y,z NGXF=    40 NGYF=   40 NGZF=   56
   support grid    NGXF=    40 NGYF=   40 NGZF=   56
   ions per type =               2   2
   NGX,Y,Z   is equivalent  to a cutoff of   9.25,  9.25,  9.16 a.u.
   NGXF,Y,Z  is equivalent  to a cutoff of  18.51, 18.51, 18.32 a.u.

 SYSTEM =  "EuO"                                   
 POSCAR =  Eu1 O1 str #: 2                         

 Startparameter for this run:
   NWRITE =      2    write-flag & timer
   PREC   = normal    normal or accurate (medium, high low for compatibility)
   ISTART =      0    job   : 0-new  1-cont  2-samecut
   ICHARG =      2    charge: 1-file 2-atom 10-const
   ISPIN  =      2    spin polarized calculation?
   LNONCOLLINEAR =      F non collinear calculations
   LSORBIT =      F    spin-orbit coupling
   INIWAV =      1    electr: 0-lowe 1-rand  2-diag
   LASPH  =      F    aspherical Exc in radial PAW
   METAGGA=      F    non-selfconsistent MetaGGA calc.

 Electronic Relaxation 1
   ENCUT  =  500.0 eV  36.75 Ry    6.06 a.u.   6.55  6.55  9.26*2*pi/ulx,y,z
   ENINI  =  500.0     initial cutoff
   ENAUG  =  605.4 eV  augmentation charge cutoff
   NELM   =     60;   NELMIN=  2; NELMDL= -5     # of ELM steps 
   EDIFF  = 0.1E-05   stopping-criterion for ELM
   LREAL  =      F    real-space projection
   NLSPLINE    = F    spline interpolate recip. space projectors
   LCOMPAT=      F    compatible to vasp.4.4
   GGA_COMPAT  = T    GGA compatible to vasp.4.4-vasp.4.6
   LMAXPAW     = -100 max onsite density
   LMAXMIX     =    2 max onsite mixed and CHGCAR
   VOSKOWN=      0    Vosko Wilk Nusair interpolation
   ROPT   =    0.00000   0.00000
 Ionic relaxation
   EDIFFG = 0.1E-04   stopping-criterion for IOM
   NSW    =      0    number of steps for IOM
   NBLOCK =      1;   KBLOCK =      1    inner block; outer block 
   IBRION =     -1    ionic relax: 0-MD 1-quasi-New 2-CG
   NFREE  =      1    steps in history (QN), initial steepest desc. (CG)
   ISIF   =      2    stress and relaxation
   IWAVPR =     10    prediction:  0-non 1-charg 2-wave 3-comb
   ISYM   =      2    0-nonsym 1-usesym 2-fastsym
   LCORR  =      T    Harris-Foulkes like correction to forces

   POTIM  = 0.5000    time-step for ionic-motion
   TEIN   =    0.0    initial temperature
   TEBEG  =    0.0;   TEEND  =   0.0 temperature during run
   SMASS  =  -3.00    Nose mass-parameter (am)
   estimated Nose-frequenzy (Omega)   =  0.10E-29 period in steps =****** mass=  -0.295E-27a.u.
   SCALEE = 1.0000    scale energy and forces
   NPACO  =    256;   APACO  = 16.0  distance and # of slots for P.C.
   PSTRESS=    0.0 pullay stress

  Mass of Ions in am
   POMASS = 151.97 16.00
  Ionic Valenz
   ZVAL   =  17.00  6.00
  Atomic Wigner-Seitz radii
   RWIGS  =  -1.00 -1.00
  virtual crystal weights 
   VCA    =   1.00  1.00
   NELECT =      46.0000    total number of electrons
   NUPDOWN=      -1.0000    fix difference up-down

 DOS related values:
   EMIN   =  10.00;   EMAX   =-10.00  energy-range for DOS
   EFERMI =   0.00
   ISMEAR =     1;   SIGMA  =   0.10  broadening in eV -4-tet -1-fermi 0-gaus

 Electronic relaxation 2 (details)
   IALGO  =     38    algorithm
   LDIAG  =      T    sub-space diagonalisation (order eigenvalues)
   LSUBROT=      F    optimize rotation matrix (better conditioning)
   TURBO    =      0    0=normal 1=particle mesh
   IRESTART =      0    0=no restart 2=restart with 2 vectors
   NREBOOT  =      0    no. of reboots
   NMIN     =      0    reboot dimension
   EREF     =   0.00    reference energy to select bands
   IMIX   =      4    mixing-type and parameters
     AMIX     =   0.40;   BMIX     =  1.00
     AMIX_MAG =   1.60;   BMIX_MAG =  1.00
     AMIN     =   0.10
     WC   =   100.;   INIMIX=   1;  MIXPRE=   1;  MAXMIX= -45

 Intra band minimization:
   WEIMIN = 0.0000     energy-eigenvalue tresh-hold
   EBREAK =  0.89E-08  absolut break condition
   DEPER  =   0.30     relativ break condition  

   TIME   =   0.40     timestep for ELM

  volume/ion in A,a.u.               =      16.39       110.63
  Fermi-wavevector in a.u.,A,eV,Ry     =   1.454607  2.748810 28.788335  2.115883
  Thomas-Fermi vector in A             =   2.571738
 
 Write flags
   LWAVE        =      F    write WAVECAR
   LDOWNSAMPLE  =      F    k-point downsampling of WAVECAR
   LCHARG       =      F    write CHGCAR
   LVTOT        =      F    write LOCPOT, total local potential
   LVHAR        =      F    write LOCPOT, Hartree potential only
   LELF         =      F    write electronic localiz. function (ELF)
   LORBIT       =     11    0 simple, 1 ext, 2 COOP (PROOUT), +10 PAW based schemes


 Dipole corrections
   LMONO  =      F    monopole corrections only (constant potential shift)
   LDIPOL =      F    correct potential (dipole corrections)
   IDIPOL =      0    1-x, 2-y, 3-z, 4-all directions 
   EPSILON=  1.0000000 bulk dielectric constant

 Exchange correlation treatment:
   GGA     =    --    GGA type
   LEXCH   =     8    internal setting for exchange type
   VOSKOWN=      0    Vosko Wilk Nusair interpolation
   LHFCALC =     F    Hartree Fock is set to
   LHFONE  =     F    Hartree Fock one center treatment
   AEXX    =    0.0000 exact exchange contribution

 Linear response parameters
   LEPSILON=     F    determine dielectric tensor
   LRPA    =     F    only Hartree local field effects (RPA)
   LNABLA  =     F    use nabla operator in PAW spheres
   LVEL    =     F    velocity operator in full k-point grid
   LINTERFAST=   F  fast interpolation
   KINTER  =     0    interpolate to denser k-point grid
   CSHIFT  =0.1000    complex shift for real part using Kramers Kronig
   OMEGAMAX=  -1.0    maximum frequency
   DEG_THRESHOLD= 0.2000000E-02 threshold for treating states as degnerate
   RTIME   =   -0.100 relaxation time in fs
  (WPLASMAI=    0.000 imaginary part of plasma frequency in eV, 0.658/RTIME)
   DFIELD  = 0.0000000 0.0000000 0.0000000 field for delta impulse in time
 
 Orbital magnetization related:
   ORBITALMAG=     F  switch on orbital magnetization
   LCHIMAG   =     F  perturbation theory with respect to B field
   DQ        =  0.001000  dq finite difference perturbation B field
   LLRAUG    =     F  two centre corrections for induced B field



--------------------------------------------------------------------------------------------------------


 Static calculation
 charge density and potential will be updated during run
 spin polarized calculation
 Variant of blocked Davidson
 Davidson routine will perform the subspace rotation
 perform sub-space diagonalisation
    after iterative eigenvector-optimisation
 modified Broyden-mixing scheme, WC =      100.0
 initial mixing is a Kerker type mixing with AMIX =  0.4000 and BMIX =      1.0000
 Hartree-type preconditioning will be used
 using additional bands            5
 reciprocal scheme for non local part
 use partial core corrections
 calculate Harris-corrections to forces 
   (improved forces if not selfconsistent)
 use gradient corrections 
 use of overlap-Matrix (Vanderbilt PP)
 Methfessel and Paxton  Order N= 1 SIGMA  =   0.10


--------------------------------------------------------------------------------------------------------


  energy-cutoff  :      500.00
  volume of cell :       65.58
      direct lattice vectors                 reciprocal lattice vectors
     0.000008500 -2.074162400  2.933334000     0.000000000 -0.160705608  0.227273972
     3.592645600  0.000000000  0.000000000     0.278346409 -0.000005520 -0.000004710
     0.000131900  4.148395800  2.933334000     0.000000000  0.160705608  0.113635041

  length of vectors
     3.592575402  3.592645600  5.080712163     0.278351847  0.278346409  0.196822801


 
 k-points in units of 2pi/SCALE and weight: read from INCAR                         
   0.00000000  0.00000000  0.00000000       0.021
   0.00000000 -0.04017640  0.05681849       0.042
   0.00000000 -0.08035280  0.11363699       0.021
   0.06958660 -0.00000138 -0.00000118       0.042
   0.06958660 -0.04017778  0.05681732       0.083
   0.06958660 -0.08035418  0.11363581       0.042
   0.13917320 -0.00000276 -0.00000235       0.021
   0.13917320 -0.04017916  0.05681614       0.042
   0.13917320 -0.08035556  0.11363463       0.021
   0.00000000  0.05356854  0.03787835       0.042
   0.00000000  0.01339213  0.09469684       0.083
   0.00000000 -0.02678427  0.15151533       0.042
   0.06958660  0.05356716  0.03787717       0.042
   0.06958660  0.01339075  0.09469566       0.083
   0.06958660 -0.02678565  0.15151416       0.042
   0.13917320  0.05356578  0.03787599       0.042
   0.13917320  0.01338937  0.09469449       0.083
   0.13917320 -0.02678703  0.15151298       0.042
  -0.06958660  0.05356992  0.03787952       0.042
  -0.06958660  0.01339351  0.09469802       0.083
  -0.06958660 -0.02678289  0.15151651       0.042
 
 k-points in reciprocal lattice and weights: read from INCAR                         
   0.00000000  0.00000000  0.00000000       0.021
   0.25000000  0.00000000 -0.00000000       0.042
   0.50000000  0.00000000 -0.00000000       0.021
   0.00000000  0.25000000 -0.00000000       0.042
   0.25000000  0.25000000 -0.00000000       0.083
   0.50000000  0.25000000 -0.00000000       0.042
   0.00000000  0.50000000 -0.00000000       0.021
   0.25000000  0.50000000 -0.00000000       0.042
   0.50000000  0.50000000 -0.00000000       0.021
  -0.00000000  0.00000000  0.33333333       0.042
   0.25000000  0.00000000  0.33333333       0.083
   0.50000000  0.00000000  0.33333333       0.042
   0.00000000  0.25000000  0.33333333       0.042
   0.25000000  0.25000000  0.33333333       0.083
   0.50000000  0.25000000  0.33333333       0.042
   0.00000000  0.50000000  0.33333333       0.042
   0.25000000  0.50000000  0.33333333       0.083
   0.50000000  0.50000000  0.33333333       0.042
  -0.00000000 -0.25000000  0.33333333       0.042
   0.25000000 -0.25000000  0.33333333       0.083
   0.50000000 -0.25000000  0.33333333       0.042
 
 position of ions in fractional coordinates (direct lattice) 
   0.00000000  0.00000000  0.00000000
   0.50000000  0.50000000  0.50000000
   0.00000004  0.00000004  0.50000000
   0.50000004  0.50000004  1.00000000
 
 position of ions in cartesian coordinates  (Angst):
   0.00000000  0.00000000  0.00000000
   1.79639300  1.03711670  2.93333400
   0.00006610  2.07419780  1.46666710
   1.79645910  3.11131450  4.40000110
 


--------------------------------------------------------------------------------------------------------


 k-point  1 :   0.0000 0.0000 0.0000  plane waves:    1675
 k-point  2 :   0.2500 0.0000-0.0000  plane waves:    1661
 k-point  3 :   0.5000 0.0000-0.0000  plane waves:    1674
 k-point  4 :   0.0000 0.2500-0.0000  plane waves:    1661
 k-point  5 :   0.2500 0.2500-0.0000  plane waves:    1681
 k-point  6 :   0.5000 0.2500-0.0000  plane waves:    1672
 k-point  7 :   0.0000 0.5000-0.0000  plane waves:    1674
 k-point  8 :   0.2500 0.5000-0.0000  plane waves:    1672
 k-point  9 :   0.5000 0.5000-0.0000  plane waves:    1612
 k-point 10 :  -0.0000 0.0000 0.3333  plane waves:    1690
 k-point 11 :   0.2500 0.0000 0.3333  plane waves:    1663
 k-point 12 :   0.5000 0.0000 0.3333  plane waves:    1658
 k-point 13 :   0.0000 0.2500 0.3333  plane waves:    1663
 k-point 14 :   0.2500 0.2500 0.3333  plane waves:    1666
 k-point 15 :   0.5000 0.2500 0.3333  plane waves:    1668
 k-point 16 :   0.0000 0.5000 0.3333  plane waves:    1658
 k-point 17 :   0.2500 0.5000 0.3333  plane waves:    1668
 k-point 18 :   0.5000 0.5000 0.3333  plane waves:    1664
 k-point 19 :  -0.0000-0.2500 0.3333  plane waves:    1663
 k-point 20 :   0.2500-0.2500 0.3333  plane waves:    1666
 k-point 21 :   0.5000-0.2500 0.3333  plane waves:    1668

 maximum and minimum number of plane-waves per node :       438      388

 maximum number of plane-waves:      1690
 maximum index in each direction: 
   IXMAX=    6   IYMAX=    6   IZMAX=    9
   IXMIN=   -7   IYMIN=   -7   IZMIN=   -9


 parallel 3D FFT for wavefunctions:
    minimum data exchange during FFTs selected (reduces bandwidth)
 parallel 3D FFT for charge:
    minimum data exchange during FFTs selected (reduces bandwidth)


 total amount of memory used by VASP MPI-rank0    40475. kBytes
=======================================================================

   base      :      30000. kBytes
   nonl-proj :       4521. kBytes
   fftplans  :        475. kBytes
   grid      :       1148. kBytes
   one-center:         98. kBytes
   wavefun   :       4233. kBytes
 
     INWAV:  cpu time    0.0000: real time    0.0002
 Broyden mixing: mesh for mixing (old mesh)
   NGX = 13   NGY = 13   NGZ = 19
  (NGX  = 40   NGY  = 40   NGZ  = 56)
  gives a total of   3211 points

 initial charge density was supplied:
 charge density of overlapping atoms calculated
 number of electron      46.0000000 magnetization       0.0000000
 keeping initial charge density in first step


--------------------------------------------------------------------------------------------------------


 Maximum index for augmentation-charges         1239 (set IRDMAX)


--------------------------------------------------------------------------------------------------------


 First call to EWALD:  gamma=   0.440
 Maximum number of real-space cells 3x 3x 2
 Maximum number of reciprocal cells 3x 3x 3

    FEWALD:  cpu time    0.0012: real time    0.0012


--------------------------------------- Iteration      1(   1)  ---------------------------------------


    POTLOK:  cpu time    0.0362: real time    0.2124
    SETDIJ:  cpu time    0.0110: real time    0.0110
     EDDAV:  cpu time    0.5602: real time    0.5743
       DOS:  cpu time    0.0015: real time    0.0015
    --------------------------------------------
      LOOP:  cpu time    0.6089: real time    0.7992

 eigenvalue-minimisations  :  2784
 total energy-change (2. order) : 0.4432590E+03  (-0.1840080E+04)
 number of electron      46.0000000 magnetization       0.0000000
 augmentation part       46.0000000 magnetization       0.0000000

 Free energy of the ion-electron system (eV)
  ---------------------------------------------------
  alpha Z        PSCENC =       453.10565554
  Ewald energy   TEWEN  =     -4853.25068260
  -Hartree energ DENC   =     -1394.95400397
  -exchange      EXHF   =         0.00000000
  -V(xc)+E(xc)   XCENC  =       227.25687620
  PAW double counting   =      5122.54265185    -5413.80328534
  entropy T*S    EENTRO =        -0.00160747
  eigenvalues    EBANDS =       198.03726110
  atomic energy  EATOM  =      6104.32616516
  Solvation  Ediel_sol  =         0.00000000
  ---------------------------------------------------
  free energy    TOTEN  =       443.25903046 eV

  energy without entropy =      443.26063794  energy(sigma->0) =      443.25956629


--------------------------------------------------------------------------------------------------------




--------------------------------------- Iteration      1(   2)  ---------------------------------------


     EDDAV:  cpu time    0.5993: real time    0.6035
       DOS:  cpu time    0.0016: real time    0.0016
    --------------------------------------------
      LOOP:  cpu time    0.6009: real time    0.6051

 eigenvalue-minimisations  :  3248
 total energy-change (2. order) :-0.3927262E+03  (-0.3686356E+03)
 number of electron      46.0000000 magnetization       0.0000000
 augmentation part       46.0000000 magnetization       0.0000000

 Free energy of the ion-electron system (eV)
  ---------------------------------------------------
  alpha Z        PSCENC =       453.10565554
  Ewald energy   TEWEN  =     -4853.25068260
  -Hartree energ DENC   =     -1394.95400397
  -exchange      EXHF   =         0.00000000
  -V(xc)+E(xc)   XCENC  =       227.25687620
  PAW double counting   =      5122.54265185    -5413.80328534
  entropy T*S    EENTRO =         0.00059378
  eigenvalues    EBANDS =      -194.69111133
  atomic energy  EATOM  =      6104.32616516
  Solvation  Ediel_sol  =         0.00000000
  ---------------------------------------------------
  free energy    TOTEN  =        50.53285929 eV

  energy without entropy =       50.53226552  energy(sigma->0) =       50.53266137


--------------------------------------------------------------------------------------------------------




--------------------------------------- Iteration      1(   3)  ---------------------------------------


     EDDAV:  cpu time    0.7371: real time    0.7391
       DOS:  cpu time    0.0018: real time    0.0018
    --------------------------------------------
      LOOP:  cpu time    0.7389: real time    0.7409

 eigenvalue-minimisations  :  3888
 total energy-change (2. order) :-0.8718902E+02  (-0.8528797E+02)
 number of electron      46.0000000 magnetization       0.0000000
 augmentation part       46.0000000 magnetization       0.0000000

 Free energy of the ion-electron system (eV)
  ---------------------------------------------------
  alpha Z        PSCENC =       453.10565554
  Ewald energy   TEWEN  =     -4853.25068260
  -Hartree energ DENC   =     -1394.95400397
  -exchange      EXHF   =         0.00000000
  -V(xc)+E(xc)   XCENC  =       227.25687620
  PAW double counting   =      5122.54265185    -5413.80328534
  entropy T*S    EENTRO =         0.00139383
  eigenvalues    EBANDS =      -281.88092644
  atomic energy  EATOM  =      6104.32616516
  Solvation  Ediel_sol  =         0.00000000
  ---------------------------------------------------
  free energy    TOTEN  =       -36.65615577 eV

  energy without entropy =      -36.65754960  energy(sigma->0) =      -36.65662038


--------------------------------------------------------------------------------------------------------




--------------------------------------- Iteration      1(   4)  ---------------------------------------


     EDDAV:  cpu time    0.7220: real time    0.7238
       DOS:  cpu time    0.0019: real time    0.0019
    --------------------------------------------
      LOOP:  cpu time    0.7239: real time    0.7257

 eigenvalue-minimisations  :  4060
 total energy-change (2. order) :-0.7442020E+01  (-0.6935786E+01)
 number of electron      46.0000000 magnetization       0.0000000
 augmentation part       46.0000000 magnetization       0.0000000

 Free energy of the ion-electron system (eV)
  ---------------------------------------------------
  alpha Z        PSCENC =       453.10565554
  Ewald energy   TEWEN  =     -4853.25068260
  -Hartree energ DENC   =     -1394.95400397
  -exchange      EXHF   =         0.00000000
  -V(xc)+E(xc)   XCENC  =       227.25687620
  PAW double counting   =      5122.54265185    -5413.80328534
  entropy T*S    EENTRO =         0.00235396
  eigenvalues    EBANDS =      -289.32390631
  atomic energy  EATOM  =      6104.32616516
  Solvation  Ediel_sol  =         0.00000000
  ---------------------------------------------------
  free energy    TOTEN  =       -44.09817551 eV

  energy without entropy =      -44.10052947  energy(sigma->0) =      -44.09896016


--------------------------------------------------------------------------------------------------------




--------------------------------------- Iteration      1(   5)  ---------------------------------------


     EDDAV:  cpu time    0.7604: real time    0.7623
       DOS:  cpu time    0.0018: real time    0.0018
    CHARGE:  cpu time    0.0343: real time    0.0344
    MIXING:  cpu time    0.0005: real time    0.0005
    --------------------------------------------
      LOOP:  cpu time    0.7971: real time    0.7991

 eigenvalue-minimisations  :  4272
 total energy-change (2. order) :-0.9089458E+00  (-0.8464402E+00)
 number of electron      46.0000055 magnetization       0.0000000
 augmentation part        8.5199163 magnetization       0.0000000

 Broyden mixing:
  rms(total) = 0.27585E+01    rms(broyden)= 0.27582E+01
  rms(prec ) = 0.56761E+01
  weight for this iteration     100.00

 Free energy of the ion-electron system (eV)
  ---------------------------------------------------
  alpha Z        PSCENC =       453.10565554
  Ewald energy   TEWEN  =     -4853.25068260
  -Hartree energ DENC   =     -1394.95400397
  -exchange      EXHF   =         0.00000000
  -V(xc)+E(xc)   XCENC  =       227.25687620
  PAW double counting   =      5122.54265185    -5413.80328534
  entropy T*S    EENTRO =         0.00413704
  eigenvalues    EBANDS =      -290.23463519
  atomic energy  EATOM  =      6104.32616516
  Solvation  Ediel_sol  =         0.00000000
  ---------------------------------------------------
  free energy    TOTEN  =       -45.00712131 eV

  energy without entropy =      -45.01125835  energy(sigma->0) =      -45.00850032


--------------------------------------------------------------------------------------------------------




--------------------------------------- Iteration      1(   6)  ---------------------------------------


    POTLOK:  cpu time    0.0133: real time    0.0136
    SETDIJ:  cpu time    0.0084: real time    0.0085
     EDDAV:  cpu time    0.6687: real time    0.6702
       DOS:  cpu time    0.0017: real time    0.0017
    CHARGE:  cpu time    0.0329: real time    0.0330
    MIXING:  cpu time    0.0006: real time    0.0006
    --------------------------------------------
      LOOP:  cpu time    0.7256: real time    0.7275

 eigenvalue-minimisations  :  3824
 total energy-change (2. order) :-0.4988026E+02  (-0.7698322E+02)
 number of electron      46.0000085 magnetization       0.0000000
 augmentation part       22.5760573 magnetization       0.0000000

 Broyden mixing:
  rms(total) = 0.11160E+02    rms(broyden)= 0.11160E+02
  rms(prec ) = 0.19796E+02
  weight for this iteration     100.00

 eigenvalues of (default mixing * dielectric matrix)
  average eigenvalue GAMMA=   0.1397
  0.1397

 Free energy of the ion-electron system (eV)
  ---------------------------------------------------
  alpha Z        PSCENC =       453.10565554
  Ewald energy   TEWEN  =     -4853.25068260
  -Hartree energ DENC   =     -1263.22422728
  -exchange      EXHF   =         0.00000000
  -V(xc)+E(xc)   XCENC  =       223.15157876
  PAW double counting   =      4927.87124839    -5160.65438300
  entropy T*S    EENTRO =        -0.00469677
  eigenvalues    EBANDS =      -526.20803570
  atomic energy  EATOM  =      6104.32616516
  Solvation  Ediel_sol  =         0.00000000
  ---------------------------------------------------
  free energy    TOTEN  =       -94.88737749 eV

  energy without entropy =      -94.88268072  energy(sigma->0) =      -94.88581190


--------------------------------------------------------------------------------------------------------




--------------------------------------- Iteration      1(   7)  ---------------------------------------


    POTLOK:  cpu time    0.0123: real time    0.0124
    SETDIJ:  cpu time    0.0072: real time    0.0072
     EDDAV:  cpu time    0.6550: real time    0.6566
       DOS:  cpu time    0.0015: real time    0.0015
    CHARGE:  cpu time    0.0336: real time    0.0337
    MIXING:  cpu time    0.0006: real time    0.0006
    --------------------------------------------
      LOOP:  cpu time    0.7103: real time    0.7121

 eigenvalue-minimisations  :  3664
 total energy-change (2. order) : 0.6700504E+02  (-0.5019416E+02)
 number of electron      46.0000045 magnetization       0.0000000
 augmentation part       10.8891263 magnetization       0.0000000

 Broyden mixing:
  rms(total) = 0.27635E+01    rms(broyden)= 0.27630E+01
  rms(prec ) = 0.28394E+01
  weight for this iteration     100.00

 eigenvalues of (default mixing * dielectric matrix)
  average eigenvalue GAMMA=   0.2260
  0.2260  0.2260

 Free energy of the ion-electron system (eV)
  ---------------------------------------------------
  alpha Z        PSCENC =       453.10565554
  Ewald energy   TEWEN  =     -4853.25068260
  -Hartree energ DENC   =     -1354.18610652
  -exchange      EXHF   =         0.00000000
  -V(xc)+E(xc)   XCENC  =       223.81286210
  PAW double counting   =      5163.30055321    -5452.40393908
  entropy T*S    EENTRO =        -0.00042690
  eigenvalues    EBANDS =      -312.58642134
  atomic energy  EATOM  =      6104.32616516
  Solvation  Ediel_sol  =         0.00000000
  ---------------------------------------------------
  free energy    TOTEN  =       -27.88234043 eV

  energy without entropy =      -27.88191353  energy(sigma->0) =      -27.88219813


--------------------------------------------------------------------------------------------------------




--------------------------------------- Iteration      1(   8)  ---------------------------------------


    POTLOK:  cpu time    0.0127: real time    0.0129
    SETDIJ:  cpu time    0.0080: real time    0.0080
     EDDAV:  cpu time    0.6535: real time    0.6551
       DOS:  cpu time    0.0017: real time    0.0017
    CHARGE:  cpu time    0.0365: real time    0.0366
    MIXING:  cpu time    0.0006: real time    0.0006
    --------------------------------------------
      LOOP:  cpu time    0.7132: real time    0.7150

 eigenvalue-minimisations  :  3748
 total energy-change (2. order) :-0.1335878E+02  (-0.1033618E+02)
 number of electron      46.0000061 magnetization       0.0000000
 augmentation part       12.1131036 magnetization       0.0000000

 Broyden mixing:
  rms(total) = 0.20064E+01    rms(broyden)= 0.20062E+01
  rms(prec ) = 0.23680E+01
  weight for this iteration     100.00

 eigenvalues of (default mixing * dielectric matrix)
  average eigenvalue GAMMA=   0.3990
  0.4935  0.4935  0.2100

 Free energy of the ion-electron system (eV)
  ---------------------------------------------------
  alpha Z        PSCENC =       453.10565554
  Ewald energy   TEWEN  =     -4853.25068260
  -Hartree energ DENC   =     -1350.40654078
  -exchange      EXHF   =         0.00000000
  -V(xc)+E(xc)   XCENC  =       225.54367559
  PAW double counting   =      5183.03169844    -5472.98043191
  entropy T*S    EENTRO =         0.00090638
  eigenvalues    EBANDS =      -330.61156148
  atomic energy  EATOM  =      6104.32616516
  Solvation  Ediel_sol  =         0.00000000
  ---------------------------------------------------
  free energy    TOTEN  =       -41.24111566 eV

  energy without entropy =      -41.24202204  energy(sigma->0) =      -41.24141779


--------------------------------------------------------------------------------------------------------




--------------------------------------- Iteration      1(   9)  ---------------------------------------


    POTLOK:  cpu time    0.0131: real time    0.0133
    SETDIJ:  cpu time    0.0084: real time    0.0085
     EDDAV:  cpu time    0.7060: real time    0.7077
       DOS:  cpu time    0.0017: real time    0.0017
    CHARGE:  cpu time    0.0328: real time    0.0329
    MIXING:  cpu time    0.0006: real time    0.0006
    --------------------------------------------
      LOOP:  cpu time    0.7626: real time    0.7645

 eigenvalue-minimisations  :  3764
 total energy-change (2. order) :-0.2341395E+00  (-0.8597541E+00)
 number of electron      46.0000059 magnetization       0.0000000
 augmentation part       11.7102937 magnetization       0.0000000

 Broyden mixing:
  rms(total) = 0.13109E+01    rms(broyden)= 0.13109E+01
  rms(prec ) = 0.16174E+01
  weight for this iteration     100.00

 eigenvalues of (default mixing * dielectric matrix)
  average eigenvalue GAMMA=   0.5428
  0.7253  0.2092  0.6183  0.6183

 Free energy of the ion-electron system (eV)
  ---------------------------------------------------
  alpha Z        PSCENC =       453.10565554
  Ewald energy   TEWEN  =     -4853.25068260
  -Hartree energ DENC   =     -1369.04539203
  -exchange      EXHF   =         0.00000000
  -V(xc)+E(xc)   XCENC  =       227.65626361
  PAW double counting   =      5210.76013013    -5508.27526662
  entropy T*S    EENTRO =         0.01791002
  eigenvalues    EBANDS =      -306.77003835
  atomic energy  EATOM  =      6104.32616516
  Solvation  Ediel_sol  =         0.00000000
  ---------------------------------------------------
  free energy    TOTEN  =       -41.47525514 eV

  energy without entropy =      -41.49316516  energy(sigma->0) =      -41.48122515


--------------------------------------------------------------------------------------------------------




--------------------------------------- Iteration      1(  10)  ---------------------------------------


    POTLOK:  cpu time    0.0121: real time    0.0122
    SETDIJ:  cpu time    0.0079: real time    0.0079
     EDDAV:  cpu time    0.7564: real time    0.7582
       DOS:  cpu time    0.0019: real time    0.0019
    CHARGE:  cpu time    0.0340: real time    0.0341
    MIXING:  cpu time    0.0007: real time    0.0007
    --------------------------------------------
      LOOP:  cpu time    0.8130: real time    0.8151

 eigenvalue-minimisations  :  4080
 total energy-change (2. order) :-0.1463414E+00  (-0.2559340E+00)
 number of electron      46.0000056 magnetization       0.0000000
 augmentation part       11.1928866 magnetization       0.0000000

 Broyden mixing:
  rms(total) = 0.81939E+00    rms(broyden)= 0.81937E+00
  rms(prec ) = 0.11434E+01
  weight for this iteration     100.00

 eigenvalues of (default mixing * dielectric matrix)
  average eigenvalue GAMMA=   0.5797
  0.8075  0.8075  0.2097  0.5369  0.5369

 Free energy of the ion-electron system (eV)
  ---------------------------------------------------
  alpha Z        PSCENC =       453.10565554
  Ewald energy   TEWEN  =     -4853.25068260
  -Hartree energ DENC   =     -1382.09103837
  -exchange      EXHF   =         0.00000000
  -V(xc)+E(xc)   XCENC  =       229.81265301
  PAW double counting   =      5231.94958384    -5538.28736317
  entropy T*S    EENTRO =         0.01275789
  eigenvalues    EBANDS =      -287.19932782
  atomic energy  EATOM  =      6104.32616516
  Solvation  Ediel_sol  =         0.00000000
  ---------------------------------------------------
  free energy    TOTEN  =       -41.62159651 eV

  energy without entropy =      -41.63435440  energy(sigma->0) =      -41.62584914


--------------------------------------------------------------------------------------------------------




--------------------------------------- Iteration      1(  11)  ---------------------------------------


    POTLOK:  cpu time    0.0134: real time    0.0136
    SETDIJ:  cpu time    0.0083: real time    0.0083
     EDDAV:  cpu time    0.8049: real time    0.8069
       DOS:  cpu time    0.0018: real time    0.0018
    CHARGE:  cpu time    0.0336: real time    0.0336
    MIXING:  cpu time    0.0007: real time    0.0007
    --------------------------------------------
      LOOP:  cpu time    0.8627: real time    0.8649

 eigenvalue-minimisations  :  4480
 total energy-change (2. order) :-0.6379586E-01  (-0.4740663E-01)
 number of electron      46.0000056 magnetization       0.0000000
 augmentation part       11.2128749 magnetization       0.0000000

 Broyden mixing:
  rms(total) = 0.56410E+00    rms(broyden)= 0.56409E+00
  rms(prec ) = 0.82666E+00
  weight for this iteration     100.00

 eigenvalues of (default mixing * dielectric matrix)
  average eigenvalue GAMMA=   0.6883
  1.1413  1.1413  0.2095  0.5522  0.5522  0.5336

 Free energy of the ion-electron system (eV)
  ---------------------------------------------------
  alpha Z        PSCENC =       453.10565554
  Ewald energy   TEWEN  =     -4853.25068260
  -Hartree energ DENC   =     -1383.74525967
  -exchange      EXHF   =         0.00000000
  -V(xc)+E(xc)   XCENC  =       230.55465373
  PAW double counting   =      5243.33122638    -5552.10940612
  entropy T*S    EENTRO =         0.01914481
  eigenvalues    EBANDS =      -283.91688961
  atomic energy  EATOM  =      6104.32616516
  Solvation  Ediel_sol  =         0.00000000
  ---------------------------------------------------
  free energy    TOTEN  =       -41.68539237 eV

  energy without entropy =      -41.70453718  energy(sigma->0) =      -41.69177397


--------------------------------------------------------------------------------------------------------




--------------------------------------- Iteration      1(  12)  ---------------------------------------


    POTLOK:  cpu time    0.0130: real time    0.0132
    SETDIJ:  cpu time    0.0084: real time    0.0085
     EDDAV:  cpu time    0.6886: real time    0.6902
       DOS:  cpu time    0.0018: real time    0.0018
    CHARGE:  cpu time    0.0316: real time    0.0317
    MIXING:  cpu time    0.0009: real time    0.0009
    --------------------------------------------
      LOOP:  cpu time    0.7442: real time    0.7462

 eigenvalue-minimisations  :  3776
 total energy-change (2. order) : 0.4662678E-01  (-0.1181076E+00)
 number of electron      46.0000056 magnetization       0.0000000
 augmentation part       11.5895341 magnetization       0.0000000

 Broyden mixing:
  rms(total) = 0.16205E+00    rms(broyden)= 0.16201E+00
  rms(prec ) = 0.25626E+00
  weight for this iteration     100.00

 eigenvalues of (default mixing * dielectric matrix)
  average eigenvalue GAMMA=   0.8855
  2.4309  1.1735  0.2095  0.5707  0.5707  0.6218  0.6218

 Free energy of the ion-electron system (eV)
  ---------------------------------------------------
  alpha Z        PSCENC =       453.10565554
  Ewald energy   TEWEN  =     -4853.25068260
  -Hartree energ DENC   =     -1379.36861737
  -exchange      EXHF   =         0.00000000
  -V(xc)+E(xc)   XCENC  =       232.12361803
  PAW double counting   =      5274.74372722    -5584.81793495
  entropy T*S    EENTRO =         0.02267355
  eigenvalues    EBANDS =      -288.52337018
  atomic energy  EATOM  =      6104.32616516
  Solvation  Ediel_sol  =         0.00000000
  ---------------------------------------------------
  free energy    TOTEN  =       -41.63876559 eV

  energy without entropy =      -41.66143914  energy(sigma->0) =      -41.64632344


--------------------------------------------------------------------------------------------------------




--------------------------------------- Iteration      1(  13)  ---------------------------------------


    POTLOK:  cpu time    0.0132: real time    0.0133
    SETDIJ:  cpu time    0.0084: real time    0.0084
     EDDAV:  cpu time    0.8021: real time    0.8040
       DOS:  cpu time    0.0017: real time    0.0017
    CHARGE:  cpu time    0.0324: real time    0.0325
    MIXING:  cpu time    0.0008: real time    0.0008
    --------------------------------------------
      LOOP:  cpu time    0.8587: real time    0.8608

 eigenvalue-minimisations  :  4452
 total energy-change (2. order) :-0.2945604E-02  (-0.1969991E-01)
 number of electron      46.0000056 magnetization       0.0000000
 augmentation part       11.6764214 magnetization       0.0000000

 Broyden mixing:
  rms(total) = 0.12930E+00    rms(broyden)= 0.12930E+00
  rms(prec ) = 0.21586E+00
  weight for this iteration     100.00

 eigenvalues of (default mixing * dielectric matrix)
  average eigenvalue GAMMA=   0.9072
  2.7101  1.1867  0.2095  0.5646  0.5646  0.7370  0.7370  0.5481

 Free energy of the ion-electron system (eV)
  ---------------------------------------------------
  alpha Z        PSCENC =       453.10565554
  Ewald energy   TEWEN  =     -4853.25068260
  -Hartree energ DENC   =     -1376.90521078
  -exchange      EXHF   =         0.00000000
  -V(xc)+E(xc)   XCENC  =       232.51766279
  PAW double counting   =      5278.64957065    -5587.85729884
  entropy T*S    EENTRO =         0.01857902
  eigenvalues    EBANDS =      -292.24615214
  atomic energy  EATOM  =      6104.32616516
  Solvation  Ediel_sol  =         0.00000000
  ---------------------------------------------------
  free energy    TOTEN  =       -41.64171119 eV

  energy without entropy =      -41.66029021  energy(sigma->0) =      -41.64790420


--------------------------------------------------------------------------------------------------------




--------------------------------------- Iteration      1(  14)  ---------------------------------------


    POTLOK:  cpu time    0.0126: real time    0.0128
    SETDIJ:  cpu time    0.0082: real time    0.0082
     EDDAV:  cpu time    0.6551: real time    0.6566
       DOS:  cpu time    0.0017: real time    0.0017
    CHARGE:  cpu time    0.0320: real time    0.0321
    MIXING:  cpu time    0.0009: real time    0.0009
    --------------------------------------------
      LOOP:  cpu time    0.7106: real time    0.7124

 eigenvalue-minimisations  :  3716
 total energy-change (2. order) : 0.2703057E-02  (-0.1890200E-02)
 number of electron      46.0000056 magnetization      -0.0000000
 augmentation part       11.6981558 magnetization      -0.0000000

 Broyden mixing:
  rms(total) = 0.11879E+00    rms(broyden)= 0.11879E+00
  rms(prec ) = 0.18935E+00
  weight for this iteration     100.00

 eigenvalues of (default mixing * dielectric matrix)
  average eigenvalue GAMMA=   0.9651
  2.8593  1.6153  0.2095  0.5645  0.5645  0.7857  0.7857  0.6505  0.6505

 Free energy of the ion-electron system (eV)
  ---------------------------------------------------
  alpha Z        PSCENC =       453.10565554
  Ewald energy   TEWEN  =     -4853.25068260
  -Hartree energ DENC   =     -1376.38835015
  -exchange      EXHF   =         0.00000000
  -V(xc)+E(xc)   XCENC  =       232.52647001
  PAW double counting   =      5280.14620997    -5588.55315956
  entropy T*S    EENTRO =         0.01976780
  eigenvalues    EBANDS =      -293.57108431
  atomic energy  EATOM  =      6104.32616516
  Solvation  Ediel_sol  =         0.00000000
  ---------------------------------------------------
  free energy    TOTEN  =       -41.63900814 eV

  energy without entropy =      -41.65877594  energy(sigma->0) =      -41.64559740


--------------------------------------------------------------------------------------------------------




--------------------------------------- Iteration      1(  15)  ---------------------------------------


    POTLOK:  cpu time    0.0127: real time    0.0129
    SETDIJ:  cpu time    0.0082: real time    0.0082
     EDDAV:  cpu time    0.7158: real time    0.7175
       DOS:  cpu time    0.0018: real time    0.0018
    CHARGE:  cpu time    0.0326: real time    0.0326
    MIXING:  cpu time    0.0009: real time    0.0009
    --------------------------------------------
      LOOP:  cpu time    0.7719: real time    0.7740

 eigenvalue-minimisations  :  4032
 total energy-change (2. order) : 0.3771168E-02  (-0.2736664E-02)
 number of electron      46.0000057 magnetization      -0.0000000
 augmentation part       11.7236264 magnetization      -0.0000000

 Broyden mixing:
  rms(total) = 0.80503E-01    rms(broyden)= 0.80495E-01
  rms(prec ) = 0.12692E+00
  weight for this iteration     100.00

 eigenvalues of (default mixing * dielectric matrix)
  average eigenvalue GAMMA=   1.0529
  2.5858  2.5858  1.1336  0.2095  0.5654  0.5654  0.8041  0.8041  0.6376  0.6376

 Free energy of the ion-electron system (eV)
  ---------------------------------------------------
  alpha Z        PSCENC =       453.10565554
  Ewald energy   TEWEN  =     -4853.25068260
  -Hartree energ DENC   =     -1376.26308912
  -exchange      EXHF   =         0.00000000
  -V(xc)+E(xc)   XCENC  =       232.42562386
  PAW double counting   =      5281.85770343    -5588.96638464
  entropy T*S    EENTRO =         0.02147382
  eigenvalues    EBANDS =      -294.89170242
  atomic energy  EATOM  =      6104.32616516
  Solvation  Ediel_sol  =         0.00000000
  ---------------------------------------------------
  free energy    TOTEN  =       -41.63523697 eV

  energy without entropy =      -41.65671079  energy(sigma->0) =      -41.64239491


--------------------------------------------------------------------------------------------------------




--------------------------------------- Iteration      1(  16)  ---------------------------------------


    POTLOK:  cpu time    0.0130: real time    0.0131
    SETDIJ:  cpu time    0.0079: real time    0.0079
     EDDAV:  cpu time    0.7541: real time    0.7559
       DOS:  cpu time    0.0016: real time    0.0016
    CHARGE:  cpu time    0.0312: real time    0.0313
    MIXING:  cpu time    0.0010: real time    0.0010
    --------------------------------------------
      LOOP:  cpu time    0.8089: real time    0.8109

 eigenvalue-minimisations  :  4236
 total energy-change (2. order) : 0.2674318E-02  (-0.1367591E-02)
 number of electron      46.0000057 magnetization       0.0000000
 augmentation part       11.6966785 magnetization       0.0000000

 Broyden mixing:
  rms(total) = 0.46479E-01    rms(broyden)= 0.46476E-01
  rms(prec ) = 0.64298E-01
  weight for this iteration     100.00

 eigenvalues of (default mixing * dielectric matrix)
  average eigenvalue GAMMA=   1.0647
  2.7028  2.4347  1.6661  0.2095  0.5651  0.5651  0.8102  0.8102  0.6748  0.6748
  0.5984

 Free energy of the ion-electron system (eV)
  ---------------------------------------------------
  alpha Z        PSCENC =       453.10565554
  Ewald energy   TEWEN  =     -4853.25068260
  -Hartree energ DENC   =     -1377.33492212
  -exchange      EXHF   =         0.00000000
  -V(xc)+E(xc)   XCENC  =       232.35795975
  PAW double counting   =      5284.23210740    -5591.15780024
  entropy T*S    EENTRO =         0.02251994
  eigenvalues    EBANDS =      -293.93356548
  atomic energy  EATOM  =      6104.32616516
  Solvation  Ediel_sol  =         0.00000000
  ---------------------------------------------------
  free energy    TOTEN  =       -41.63256265 eV

  energy without entropy =      -41.65508259  energy(sigma->0) =      -41.64006930


--------------------------------------------------------------------------------------------------------




--------------------------------------- Iteration      1(  17)  ---------------------------------------


    POTLOK:  cpu time    0.0130: real time    0.0132
    SETDIJ:  cpu time    0.0084: real time    0.0084
     EDDAV:  cpu time    0.7079: real time    0.7096
       DOS:  cpu time    0.0017: real time    0.0017
    CHARGE:  cpu time    0.0315: real time    0.0316
    MIXING:  cpu time    0.0011: real time    0.0011
    --------------------------------------------
      LOOP:  cpu time    0.7635: real time    0.7655

 eigenvalue-minimisations  :  3700
 total energy-change (2. order) : 0.1128899E-02  (-0.3411739E-03)
 number of electron      46.0000056 magnetization       0.0000000
 augmentation part       11.6821635 magnetization       0.0000000

 Broyden mixing:
  rms(total) = 0.30481E-01    rms(broyden)= 0.30481E-01
  rms(prec ) = 0.40638E-01
  weight for this iteration     100.00

 eigenvalues of (default mixing * dielectric matrix)
  average eigenvalue GAMMA=   1.0795
  2.4005  2.3658  2.3658  0.2095  0.5653  0.5653  0.9104  0.9104  0.7102  0.7102
  0.6203  0.6203

 Free energy of the ion-electron system (eV)
  ---------------------------------------------------
  alpha Z        PSCENC =       453.10565554
  Ewald energy   TEWEN  =     -4853.25068260
  -Hartree energ DENC   =     -1377.72432580
  -exchange      EXHF   =         0.00000000
  -V(xc)+E(xc)   XCENC  =       232.32884417
  PAW double counting   =      5284.59895379    -5591.91832058
  entropy T*S    EENTRO =         0.02204031
  eigenvalues    EBANDS =      -293.11976374
  atomic energy  EATOM  =      6104.32616516
  Solvation  Ediel_sol  =         0.00000000
  ---------------------------------------------------
  free energy    TOTEN  =       -41.63143375 eV

  energy without entropy =      -41.65347407  energy(sigma->0) =      -41.63878052


--------------------------------------------------------------------------------------------------------




--------------------------------------- Iteration      1(  18)  ---------------------------------------


    POTLOK:  cpu time    0.0127: real time    0.0129
    SETDIJ:  cpu time    0.0073: real time    0.0073
     EDDAV:  cpu time    0.8043: real time    0.8062
       DOS:  cpu time    0.0018: real time    0.0018
    CHARGE:  cpu time    0.0317: real time    0.0318
    MIXING:  cpu time    0.0012: real time    0.0012
    --------------------------------------------
      LOOP:  cpu time    0.8590: real time    0.8612

 eigenvalue-minimisations  :  4340
 total energy-change (2. order) : 0.1269068E-03  (-0.9753173E-04)
 number of electron      46.0000056 magnetization      -0.0000000
 augmentation part       11.6760398 magnetization      -0.0000000

 Broyden mixing:
  rms(total) = 0.17675E-01    rms(broyden)= 0.17675E-01
  rms(prec ) = 0.23821E-01
  weight for this iteration     100.00

 eigenvalues of (default mixing * dielectric matrix)
  average eigenvalue GAMMA=   1.0858
  2.5885  2.4085  2.4085  0.2095  0.5653  0.5653  0.9294  0.9294  0.7910  0.7910
  0.6549  0.6373  0.6373

 Free energy of the ion-electron system (eV)
  ---------------------------------------------------
  alpha Z        PSCENC =       453.10565554
  Ewald energy   TEWEN  =     -4853.25068260
  -Hartree energ DENC   =     -1377.84188289
  -exchange      EXHF   =         0.00000000
  -V(xc)+E(xc)   XCENC  =       232.28803419
  PAW double counting   =      5284.13623171    -5591.63983675
  entropy T*S    EENTRO =         0.02194442
  eigenvalues    EBANDS =      -292.77693563
  atomic energy  EATOM  =      6104.32616516
  Solvation  Ediel_sol  =         0.00000000
  ---------------------------------------------------
  free energy    TOTEN  =       -41.63130684 eV

  energy without entropy =      -41.65325126  energy(sigma->0) =      -41.63862165


--------------------------------------------------------------------------------------------------------




--------------------------------------- Iteration      1(  19)  ---------------------------------------


    POTLOK:  cpu time    0.0133: real time    0.0135
    SETDIJ:  cpu time    0.0085: real time    0.0085
     EDDAV:  cpu time    0.7268: real time    0.7285
       DOS:  cpu time    0.0018: real time    0.0018
    CHARGE:  cpu time    0.0317: real time    0.0318
    MIXING:  cpu time    0.0014: real time    0.0014
    --------------------------------------------
      LOOP:  cpu time    0.7835: real time    0.7854

 eigenvalue-minimisations  :  4012
 total energy-change (2. order) : 0.5997392E-04  (-0.3259706E-04)
 number of electron      46.0000056 magnetization       0.0000000
 augmentation part       11.6726942 magnetization       0.0000000

 Broyden mixing:
  rms(total) = 0.91948E-02    rms(broyden)= 0.91947E-02
  rms(prec ) = 0.13230E-01
  weight for this iteration     100.00

 eigenvalues of (default mixing * dielectric matrix)
  average eigenvalue GAMMA=   1.1363
  2.6535  2.6535  1.9272  1.9272  0.2095  0.5653  0.5653  0.9880  0.8607  0.8607
  0.7338  0.7338  0.6149  0.6149

 Free energy of the ion-electron system (eV)
  ---------------------------------------------------
  alpha Z        PSCENC =       453.10565554
  Ewald energy   TEWEN  =     -4853.25068260
  -Hartree energ DENC   =     -1377.84748522
  -exchange      EXHF   =         0.00000000
  -V(xc)+E(xc)   XCENC  =       232.25879540
  PAW double counting   =      5283.84474878    -5591.45685744
  entropy T*S    EENTRO =         0.02189631
  eigenvalues    EBANDS =      -292.63348280
  atomic energy  EATOM  =      6104.32616516
  Solvation  Ediel_sol  =         0.00000000
  ---------------------------------------------------
  free energy    TOTEN  =       -41.63124687 eV

  energy without entropy =      -41.65314318  energy(sigma->0) =      -41.63854564


--------------------------------------------------------------------------------------------------------




--------------------------------------- Iteration      1(  20)  ---------------------------------------


    POTLOK:  cpu time    0.0133: real time    0.0135
    SETDIJ:  cpu time    0.0081: real time    0.0082
     EDDAV:  cpu time    0.7404: real time    0.7422
       DOS:  cpu time    0.0017: real time    0.0017
    CHARGE:  cpu time    0.0308: real time    0.0309
    MIXING:  cpu time    0.0012: real time    0.0012
    --------------------------------------------
      LOOP:  cpu time    0.7956: real time    0.7976

 eigenvalue-minimisations  :  4028
 total energy-change (2. order) : 0.4787444E-04  (-0.5367248E-04)
 number of electron      46.0000056 magnetization       0.0000000
 augmentation part       11.6676044 magnetization       0.0000000

 Broyden mixing:
  rms(total) = 0.49730E-02    rms(broyden)= 0.49726E-02
  rms(prec ) = 0.62892E-02
  weight for this iteration     100.00

 eigenvalues of (default mixing * dielectric matrix)
  average eigenvalue GAMMA=   1.2054
  3.0341  3.0341  2.2749  2.2749  0.2095  0.5653  0.5653  0.9454  0.9454  0.8355
  0.8355  0.6780  0.6780  0.6026  0.6026

 Free energy of the ion-electron system (eV)
  ---------------------------------------------------
  alpha Z        PSCENC =       453.10565554
  Ewald energy   TEWEN  =     -4853.25068260
  -Hartree energ DENC   =     -1377.93207185
  -exchange      EXHF   =         0.00000000
  -V(xc)+E(xc)   XCENC  =       232.21646975
  PAW double counting   =      5283.51566743    -5591.23368983
  entropy T*S    EENTRO =         0.02177416
  eigenvalues    EBANDS =      -292.40048676
  atomic energy  EATOM  =      6104.32616516
  Solvation  Ediel_sol  =         0.00000000
  ---------------------------------------------------
  free energy    TOTEN  =       -41.63119900 eV

  energy without entropy =      -41.65297315  energy(sigma->0) =      -41.63845705


--------------------------------------------------------------------------------------------------------




--------------------------------------- Iteration      1(  21)  ---------------------------------------


    POTLOK:  cpu time    0.0122: real time    0.0124
    SETDIJ:  cpu time    0.0078: real time    0.0078
     EDDAV:  cpu time    0.6835: real time    0.6851
       DOS:  cpu time    0.0017: real time    0.0017
    CHARGE:  cpu time    0.0300: real time    0.0300
    MIXING:  cpu time    0.0012: real time    0.0013
    --------------------------------------------
      LOOP:  cpu time    0.7365: real time    0.7383

 eigenvalue-minimisations  :  3680
 total energy-change (2. order) : 0.1205606E-05  (-0.6605647E-05)
 number of electron      46.0000056 magnetization       0.0000000
 augmentation part       11.6667389 magnetization       0.0000000

 Broyden mixing:
  rms(total) = 0.42817E-02    rms(broyden)= 0.42817E-02
  rms(prec ) = 0.50281E-02
  weight for this iteration     100.00

 eigenvalues of (default mixing * dielectric matrix)
  average eigenvalue GAMMA=   1.2329
  3.0297  3.0297  2.5706  2.5706  1.1168  1.1168  0.2095  0.5653  0.5653  0.8453
  0.8453  0.7099  0.7099  0.6369  0.6025  0.6025

 Free energy of the ion-electron system (eV)
  ---------------------------------------------------
  alpha Z        PSCENC =       453.10565554
  Ewald energy   TEWEN  =     -4853.25068260
  -Hartree energ DENC   =     -1377.98388111
  -exchange      EXHF   =         0.00000000
  -V(xc)+E(xc)   XCENC  =       232.21970320
  PAW double counting   =      5283.55689992    -5591.29390183
  entropy T*S    EENTRO =         0.02173603
  eigenvalues    EBANDS =      -292.33289211
  atomic energy  EATOM  =      6104.32616516
  Solvation  Ediel_sol  =         0.00000000
  ---------------------------------------------------
  free energy    TOTEN  =       -41.63119779 eV

  energy without entropy =      -41.65293382  energy(sigma->0) =      -41.63844313


--------------------------------------------------------------------------------------------------------




--------------------------------------- Iteration      1(  22)  ---------------------------------------


    POTLOK:  cpu time    0.0118: real time    0.0119
    SETDIJ:  cpu time    0.0072: real time    0.0072
     EDDAV:  cpu time    0.7412: real time    0.7429
       DOS:  cpu time    0.0016: real time    0.0016
    CHARGE:  cpu time    0.0317: real time    0.0318
    MIXING:  cpu time    0.0016: real time    0.0016
    --------------------------------------------
      LOOP:  cpu time    0.7950: real time    0.7970

 eigenvalue-minimisations  :  3972
 total energy-change (2. order) :-0.1311471E-05  (-0.3362086E-05)
 number of electron      46.0000056 magnetization       0.0000000
 augmentation part       11.6660296 magnetization       0.0000000

 Broyden mixing:
  rms(total) = 0.22729E-02    rms(broyden)= 0.22726E-02
  rms(prec ) = 0.26976E-02
  weight for this iteration     100.00

 eigenvalues of (default mixing * dielectric matrix)
  average eigenvalue GAMMA=   1.2092
  2.8755  2.8755  2.9258  2.4663  1.1532  1.1532  0.2095  0.5653  0.5653  0.8661
  0.8661  0.7596  0.7596  0.6663  0.6663  0.5913  0.5913

 Free energy of the ion-electron system (eV)
  ---------------------------------------------------
  alpha Z        PSCENC =       453.10565554
  Ewald energy   TEWEN  =     -4853.25068260
  -Hartree energ DENC   =     -1378.04083522
  -exchange      EXHF   =         0.00000000
  -V(xc)+E(xc)   XCENC  =       232.22879260
  PAW double counting   =      5283.58704514    -5591.34423411
  entropy T*S    EENTRO =         0.02172442
  eigenvalues    EBANDS =      -292.26483003
  atomic energy  EATOM  =      6104.32616516
  Solvation  Ediel_sol  =         0.00000000
  ---------------------------------------------------
  free energy    TOTEN  =       -41.63119910 eV

  energy without entropy =      -41.65292353  energy(sigma->0) =      -41.63844058


--------------------------------------------------------------------------------------------------------




--------------------------------------- Iteration      1(  23)  ---------------------------------------


    POTLOK:  cpu time    0.0133: real time    0.0135
    SETDIJ:  cpu time    0.0081: real time    0.0081
     EDDAV:  cpu time    0.4537: real time    0.4548
       DOS:  cpu time    0.0017: real time    0.0017
    CHARGE:  cpu time    0.0313: real time    0.0314
    MIXING:  cpu time    0.0016: real time    0.0016
    --------------------------------------------
      LOOP:  cpu time    0.5099: real time    0.5112

 eigenvalue-minimisations  :  2296
 total energy-change (2. order) :-0.1588510E-05  (-0.4519177E-06)
 number of electron      46.0000056 magnetization       0.0000000
 augmentation part       11.6665516 magnetization       0.0000000

 Broyden mixing:
  rms(total) = 0.86672E-03    rms(broyden)= 0.86671E-03
  rms(prec ) = 0.12002E-02
  weight for this iteration     100.00

 eigenvalues of (default mixing * dielectric matrix)
  average eigenvalue GAMMA=   1.1849
  3.0887  2.8724  2.8724  2.0308  1.2647  1.2647  0.2095  0.5653  0.5653  0.8973
  0.8973  0.8339  0.8339  0.6754  0.6754  0.6099  0.5854  0.5854

 Free energy of the ion-electron system (eV)
  ---------------------------------------------------
  alpha Z        PSCENC =       453.10565554
  Ewald energy   TEWEN  =     -4853.25068260
  -Hartree energ DENC   =     -1378.03448805
  -exchange      EXHF   =         0.00000000
  -V(xc)+E(xc)   XCENC  =       232.23326080
  PAW double counting   =      5283.61161698    -5591.36545542
  entropy T*S    EENTRO =         0.02173599
  eigenvalues    EBANDS =      -292.27900910
  atomic energy  EATOM  =      6104.32616516
  Solvation  Ediel_sol  =         0.00000000
  ---------------------------------------------------
  free energy    TOTEN  =       -41.63120069 eV

  energy without entropy =      -41.65293668  energy(sigma->0) =      -41.63844602


--------------------------------------------------------------------------------------------------------




--------------------------------------- Iteration      1(  24)  ---------------------------------------


    POTLOK:  cpu time    0.0130: real time    0.0131
    SETDIJ:  cpu time    0.0084: real time    0.0084
     EDDAV:  cpu time    0.3865: real time    0.3874
       DOS:  cpu time    0.0017: real time    0.0017
    --------------------------------------------
      LOOP:  cpu time    0.4095: real time    0.4107

 eigenvalue-minimisations  :  1624
 total energy-change (2. order) : 0.3303558E-07  (-0.6040720E-07)
 number of electron      46.0000056 magnetization       0.0000000
 augmentation part       11.6665516 magnetization       0.0000000

 Free energy of the ion-electron system (eV)
  ---------------------------------------------------
  alpha Z        PSCENC =       453.10565554
  Ewald energy   TEWEN  =     -4853.25068260
  -Hartree energ DENC   =     -1378.02645462
  -exchange      EXHF   =         0.00000000
  -V(xc)+E(xc)   XCENC  =       232.23354622
  PAW double counting   =      5283.61311275    -5591.36844511
  entropy T*S    EENTRO =         0.02174504
  eigenvalues    EBANDS =      -292.28584303
  atomic energy  EATOM  =      6104.32616516
  Solvation  Ediel_sol  =         0.00000000
  ---------------------------------------------------
  free energy    TOTEN  =       -41.63120066 eV

  energy without entropy =      -41.65294569  energy(sigma->0) =      -41.63844900


--------------------------------------------------------------------------------------------------------




 average (electrostatic) potential at core
  the test charge radii are     1.1829  0.7215
  (the norm of the test charge is              1.0000)
       1 -37.4185       2 -37.4185       3 -71.1898       4 -71.1898
 
 
 
 E-fermi :   4.8288     XC(G=0): -11.0340     alpha+bet :-12.2018


 spin component 1

 k-point     1 :       0.0000    0.0000    0.0000
  band No.  band energies     occupation 
      1     -36.2783      1.00000
      2     -33.2174      1.00000
      3     -15.3140      1.00000
      4     -14.9408      1.00000
      5     -14.9407      1.00000
      6     -13.8708      1.00000
      7     -13.8264      1.00000
      8     -12.8812      1.00000
      9     -12.6498      1.00000
     10     -12.6498      1.00000
     11       1.0315      1.00000
     12       1.0831      1.00000
     13       1.0832      1.00000
     14       1.1719      1.00000
     15       1.2083      1.00000
     16       1.2083      1.00000
     17       4.0929      1.00000
     18       4.4719      1.00000
     19       4.6059      1.00357
     20       4.6955      1.03391
     21       4.6956      1.03391
     22       4.8347      0.45031
     23       4.9015      0.03124
     24       4.9015      0.03114
     25       5.3367     -0.00000
     26       7.2088     -0.00000
     27       7.2091     -0.00000
     28       7.3112     -0.00000

 k-point     2 :       0.2500    0.0000   -0.0000
  band No.  band energies     occupation 
      1     -36.2588      1.00000
      2     -33.1940      1.00000
      3     -15.7579      1.00000
      4     -15.2295      1.00000
      5     -14.8848      1.00000
      6     -14.6424      1.00000
      7     -13.0312      1.00000
      8     -12.9174      1.00000
      9     -12.5945      1.00000
     10     -11.9407      1.00000
     11       0.0897      1.00000
     12       0.3058      1.00000
     13       0.5500      1.00000
     14       0.6631      1.00000
     15       0.9247      1.00000
     16       1.0765      1.00000
     17       4.4266      1.00000
     18       4.4567      1.00000
     19       4.5644      1.00059
     20       4.6861      1.03075
     21       4.7031      1.03530
     22       4.7373      1.01400
     23       4.7747      0.89184
     24       5.9051     -0.00000
     25       6.7744     -0.00000
     26       6.9211     -0.00000
     27       7.6927      0.00000
     28       8.4718      0.00000

 k-point     3 :       0.5000    0.0000   -0.0000
  band No.  band energies     occupation 
      1     -36.2392      1.00000
      2     -33.1705      1.00000
      3     -16.2529      1.00000
      4     -15.1396      1.00000
      5     -15.1353      1.00000
      6     -14.8276      1.00000
      7     -12.9591      1.00000
      8     -12.5455      1.00000
      9     -12.5381      1.00000
     10     -11.5065      1.00000
     11      -0.5931      1.00000
     12      -0.4557      1.00000
     13       0.1156      1.00000
     14       0.1380      1.00000
     15       0.8063      1.00000
     16       0.9667      1.00000
     17       4.4216      1.00000
     18       4.4454      1.00000
     19       4.5287      1.00009
     20       4.6175      1.00545
     21       4.6687      1.02299
     22       4.7105      1.03517
     23       4.7575      0.96450
     24       6.7731     -0.00000
     25       7.8585      0.00000
     26       7.9359      0.00000
     27       8.3349      0.00000
     28       8.5508      0.00000

 k-point     4 :       0.0000    0.2500   -0.0000
  band No.  band energies     occupation 
      1     -36.2588      1.00000
      2     -33.1940      1.00000
      3     -15.7579      1.00000
      4     -15.2295      1.00000
      5     -14.8848      1.00000
      6     -14.6424      1.00000
      7     -13.0312      1.00000
      8     -12.9174      1.00000
      9     -12.5944      1.00000
     10     -11.9406      1.00000
     11       0.0897      1.00000
     12       0.3058      1.00000
     13       0.5501      1.00000
     14       0.6632      1.00000
     15       0.9247      1.00000
     16       1.0765      1.00000
     17       4.4266      1.00000
     18       4.4567      1.00000
     19       4.5644      1.00059
     20       4.6861      1.03074
     21       4.7031      1.03530
     22       4.7373      1.01400
     23       4.7747      0.89176
     24       5.9050     -0.00000
     25       6.7744     -0.00000
     26       6.9210     -0.00000
     27       7.6929      0.00000
     28       8.4717      0.00000

 k-point     5 :       0.2500    0.2500   -0.0000
  band No.  band energies     occupation 
      1     -36.2404      1.00000
      2     -33.1712      1.00000
      3     -15.7267      1.00000
      4     -15.2108      1.00000
      5     -15.1688      1.00000
      6     -14.6308      1.00000
      7     -12.9997      1.00000
      8     -12.9509      1.00000
      9     -12.9149      1.00000
     10     -11.8946      1.00000
     11      -0.1582      1.00000
     12       0.0288      1.00000
     13       0.9293      1.00000
     14       0.9316      1.00000
     15       1.0963      1.00000
     16       1.1040      1.00000
     17       4.4255      1.00000
     18       4.4640      1.00000
     19       4.5415      1.00019
     20       4.5909      1.00195
     21       4.6835      1.02967
     22       4.7579      0.96299
     23       4.7829      0.84709
     24       5.4548     -0.00000
     25       7.0495     -0.00000
[...]
 -4.022  -0.355  -0.000   0.000   0.000   0.000  -0.000  -0.000
  0.000  -0.000 -15.658   0.011  -0.000   7.366  -0.010   0.000
 -0.000   0.000   0.011 -15.665   0.000  -0.010   7.373  -0.000
 -0.000   0.000  -0.000   0.000 -15.673   0.000  -0.000   7.379
  0.000   0.000   7.366  -0.010   0.000   4.946   0.009  -0.000
 -0.000  -0.000  -0.010   7.373  -0.000   0.009   4.940   0.000
 -0.000  -0.000   0.000  -0.000   7.379  -0.000   0.000   4.934
 -0.000  -0.000  -0.000   0.000   0.000  -0.000   0.000   0.000
  0.008  -0.001  -0.000   0.000   0.000  -0.000   0.000   0.000
 -0.000  -0.000  -0.000  -0.000   0.000  -0.000  -0.000   0.000
  0.000   0.000   0.000  -0.000  -0.000   0.000  -0.000  -0.000
 -0.006   0.001  -0.000  -0.000  -0.000  -0.000  -0.000  -0.000
  0.000   0.000  -0.000   0.000   0.000   0.000  -0.000  -0.000
 -0.014   0.002  -0.000   0.000   0.000   0.000  -0.000  -0.000
  0.000   0.000   0.000   0.000  -0.000   0.000   0.000  -0.000
 -0.000  -0.000   0.000  -0.000  -0.000  -0.000   0.000   0.000
  0.010  -0.001   0.000  -0.000  -0.000   0.000   0.000   0.000
 -0.000   0.000  -0.002  -0.003  -0.000   0.002  -0.001   0.000
 -0.000   0.000   0.000  -0.000  -0.002  -0.000   0.000  -0.003
 -0.000   0.000   0.001   0.003   0.000   0.001  -0.002  -0.000
 -0.000   0.000  -0.001  -0.003  -0.000   0.002  -0.001   0.000
  0.000  -0.000   0.000   0.000   0.002  -0.000  -0.000   0.000
  0.000  -0.000  -0.006  -0.001   0.000   0.001   0.001  -0.000
  0.000  -0.000   0.000   0.000  -0.002  -0.000   0.000   0.002
 -0.000   0.000  -0.002  -0.003  -0.000   0.002  -0.001   0.000
 -0.000   0.000   0.000  -0.000  -0.002  -0.000   0.000  -0.003
 -0.000   0.000   0.001   0.003   0.000   0.001  -0.003  -0.000
 -0.000   0.000  -0.001  -0.003  -0.000   0.002  -0.001   0.000
  0.000  -0.000   0.000   0.000   0.002  -0.000  -0.000   0.000
  0.000  -0.000  -0.006  -0.001   0.000   0.001   0.001  -0.000
  0.000  -0.000   0.000   0.000  -0.002  -0.000   0.000   0.002
 pseudopotential strength for first ion, spin component:           2
-15.724   0.725   0.000  -0.000  -0.000   0.000  -0.000  -0.000
  0.725  -3.405  -0.000   0.000   0.000   0.000  -0.000  -0.000
  0.000  -0.000 -17.538   0.010  -0.000   7.746  -0.012   0.000
 -0.000   0.000   0.010 -17.545   0.000  -0.012   7.754  -0.000
 -0.000   0.000  -0.000   0.000 -17.552   0.000  -0.000   7.762
  0.000   0.000   7.746  -0.012   0.000   5.179   0.012  -0.000
 -0.000  -0.000  -0.012   7.754  -0.000   0.012   5.171   0.000
 -0.000  -0.000   0.000  -0.000   7.762  -0.000   0.000   5.162
 -0.000  -0.000  -0.000   0.000   0.000  -0.000   0.000   0.000
  0.006   0.001  -0.000   0.000   0.000  -0.000   0.000   0.000
 -0.000  -0.000  -0.000  -0.000   0.000  -0.000  -0.000   0.000
  0.000   0.000   0.000  -0.000  -0.000   0.000  -0.000  -0.000
 -0.004  -0.000  -0.000  -0.000  -0.000  -0.000  -0.000  -0.000
  0.000   0.000  -0.000   0.000   0.000   0.000  -0.000  -0.000
 -0.011  -0.001  -0.000   0.000   0.000   0.000  -0.000  -0.000
  0.000   0.000   0.000   0.000  -0.000   0.000   0.000  -0.000
 -0.000  -0.000   0.000  -0.000  -0.000  -0.000   0.000   0.000
  0.008   0.000   0.000  -0.000  -0.000   0.000   0.000   0.000
 -0.000   0.000  -0.004  -0.019  -0.000   0.004   0.010   0.000
 -0.000   0.000   0.000  -0.000  -0.020  -0.000   0.000   0.008
 -0.000   0.000   0.011   0.003   0.000  -0.005  -0.004  -0.000
 -0.000   0.000  -0.003  -0.017  -0.000   0.003   0.009   0.000
  0.000  -0.000   0.000   0.000   0.010  -0.000  -0.000  -0.006
  0.000  -0.000  -0.027  -0.004   0.000   0.016   0.004  -0.000
  0.000  -0.000   0.000  -0.000  -0.001  -0.000   0.000   0.002
 -0.000   0.000  -0.004  -0.018  -0.000   0.004   0.010   0.000
 -0.000   0.000   0.000  -0.000  -0.019  -0.000   0.000   0.008
 -0.000   0.000   0.011   0.003   0.000  -0.005  -0.004  -0.000
 -0.000   0.000  -0.003  -0.016  -0.000   0.003   0.009   0.000
  0.000  -0.000   0.000   0.000   0.009  -0.000  -0.000  -0.005
  0.000  -0.000  -0.026  -0.004   0.000   0.016   0.004  -0.000
  0.000  -0.000   0.000  -0.000  -0.001  -0.000   0.000   0.002
 total augmentation occupancy for first ion, spin component:           1
  1.992  -0.038   0.000   0.000   0.000   0.000  -0.000   0.000  -0.000  -0.000   0.000  -0.000   0.000  -0.000   0.001  -0.000
 -0.038   0.600   0.000  -0.000   0.000   0.000   0.000   0.000  -0.000  -0.001   0.000  -0.000   0.000   0.000  -0.000   0.000
  0.000   0.000   2.013   0.000  -0.000  -0.019   0.001  -0.000   0.000   0.000   0.000   0.000   0.000  -0.000   0.000  -0.000
  0.000   0.000   0.000   2.012   0.000   0.001  -0.019  -0.000   0.000   0.000   0.000   0.000   0.000   0.000   0.000   0.000
  0.000  -0.000  -0.000   0.000   2.012  -0.000  -0.000  -0.020  -0.000  -0.000  -0.000  -0.000   0.000  -0.000  -0.000   0.000
  0.000   0.000  -0.019   0.001  -0.000   0.020  -0.000   0.000   0.000   0.000   0.000  -0.000   0.000   0.000   0.000   0.000
  0.000   0.000   0.001  -0.019  -0.000  -0.000   0.020   0.000   0.000   0.000  -0.000   0.000   0.000   0.000  -0.000  -0.000
  0.000  -0.000  -0.000  -0.000  -0.020   0.000   0.000   0.020   0.000   0.000   0.000   0.000   0.000   0.000   0.000   0.000
 -0.000  -0.000   0.000  -0.000   0.000   0.000   0.000   0.000   0.222   0.000   0.000  -0.087  -0.000   0.061   0.000   0.000
 -0.000  -0.001   0.000   0.000   0.000   0.000   0.000   0.000   0.000   0.290  -0.010   0.000  -0.074   0.000   0.085  -0.002
  0.000   0.000   0.000   0.000   0.000   0.000   0.000   0.000   0.000  -0.010   0.172  -0.000  -0.014   0.000  -0.002   0.041
 -0.000  -0.000  -0.000  -0.000  -0.000  -0.000   0.000   0.000  -0.087   0.000  -0.000   0.284  -0.000  -0.032   0.000  -0.000
  0.000   0.000   0.000   0.000   0.000   0.000   0.000   0.000  -0.000  -0.074  -0.014  -0.000   0.238  -0.000  -0.029  -0.003
 -0.000   0.000   0.000   0.000  -0.000   0.000   0.000   0.000   0.061   0.000   0.000  -0.032  -0.000   0.018   0.000   0.000
  0.001  -0.000   0.000   0.000  -0.000   0.000   0.000   0.000   0.000   0.085  -0.002   0.000  -0.029   0.000   0.026  -0.000
 -0.000   0.000   0.000   0.000   0.000  -0.000   0.000   0.000   0.000  -0.002   0.041  -0.000  -0.003   0.000  -0.000   0.011
 -0.000   0.000   0.000  -0.000   0.000   0.000   0.000  -0.000  -0.032   0.000  -0.000   0.084  -0.000  -0.011   0.000  -0.000
 -0.001   0.000  -0.000  -0.000   0.000   0.000   0.000   0.000  -0.000  -0.029  -0.003  -0.000   0.064  -0.000  -0.011  -0.000
  0.000   0.000  -0.002  -0.118   0.000   0.000   0.081   0.000   0.000   0.000   0.000   0.000   0.000   0.000   0.000  -0.000
  0.000   0.000   0.000   0.000  -0.143  -0.000  -0.000   0.099   0.000   0.000  -0.000   0.000   0.000   0.000  -0.000   0.000
 -0.000   0.000   0.065   0.001  -0.000  -0.045   0.001  -0.000   0.000   0.000   0.000   0.000  -0.000  -0.000   0.000  -0.000
  0.000   0.000  -0.002  -0.106  -0.000   0.000   0.072   0.000   0.000   0.000   0.000   0.000   0.000   0.000   0.000   0.000
 -0.000   0.000  -0.000   0.000   0.064  -0.000  -0.000  -0.043  -0.000  -0.000   0.000   0.000   0.000   0.000  -0.000   0.000
 -0.000   0.000  -0.146  -0.002   0.000   0.099   0.001   0.000   0.000  -0.000   0.000  -0.000   0.000   0.000   0.000   0.000
  0.000  -0.000  -0.000  -0.000   0.000   0.000   0.000  -0.001   0.000   0.000   0.000   0.000   0.000   0.000   0.000   0.000
  0.000   0.000   0.002   0.121  -0.000  -0.000  -0.075  -0.000   0.000   0.000   0.000   0.000  -0.000   0.000   0.000   0.000
 -0.000   0.000  -0.000  -0.000   0.146   0.000   0.000  -0.092   0.000   0.000   0.000  -0.000   0.000   0.000   0.000   0.000
  0.000   0.000  -0.067  -0.001   0.000   0.042  -0.000   0.000   0.000   0.000   0.000   0.000   0.000   0.000   0.000   0.000
  0.000  -0.000   0.002   0.108   0.000  -0.000  -0.067  -0.000   0.000   0.000   0.000   0.000   0.000  -0.000   0.000   0.000
 -0.000  -0.000   0.000  -0.000  -0.065   0.000   0.000   0.041   0.000  -0.000   0.000   0.000   0.000  -0.000  -0.000   0.000
 -0.000  -0.000   0.150   0.003  -0.000  -0.092  -0.001  -0.000   0.000   0.000   0.000   0.000   0.000   0.000   0.000   0.000
  0.000   0.000   0.000   0.000   0.000  -0.000  -0.000   0.001   0.000   0.000   0.000   0.000   0.000   0.000   0.000   0.000
 total augmentation occupancy for first ion, spin component:           2
 -0.042  -0.159  -0.000  -0.000   0.000   0.000   0.000   0.000  -0.000   0.001  -0.000  -0.000  -0.000  -0.000   0.000  -0.000
 -0.159   0.125  -0.000  -0.000   0.000   0.000   0.000   0.000   0.000  -0.003   0.000   0.000   0.002   0.000  -0.001   0.000
  0.000   0.000  -0.008  -0.000  -0.000  -0.044  -0.000   0.000  -0.000   0.000   0.000   0.000   0.000   0.000   0.000   0.000
  0.000   0.000  -0.000  -0.008  -0.000  -0.000  -0.044   0.000   0.000   0.000   0.000   0.000   0.000  -0.000  -0.000   0.000
  0.000   0.000  -0.000  -0.000  -0.008   0.000  -0.000  -0.044   0.000  -0.000   0.000   0.000   0.000   0.000   0.000   0.000
  0.000   0.000  -0.044  -0.000   0.000   0.003  -0.000   0.000   0.000   0.000   0.000  -0.000   0.000   0.000   0.000   0.000
  0.000  -0.000  -0.000  -0.044  -0.000  -0.000   0.003   0.000   0.000   0.000   0.000   0.000  -0.000   0.000   0.000  -0.000
  0.000   0.000   0.000   0.000  -0.044   0.000   0.000   0.003   0.000   0.000   0.000   0.000  -0.000   0.000   0.000   0.000
 -0.000   0.000  -0.000   0.000   0.000   0.000  -0.000   0.000   0.025   0.000   0.000  -0.014  -0.000   0.007   0.000  -0.000
  0.001  -0.003   0.000   0.000   0.000   0.000   0.000  -0.000   0.000   0.047  -0.017   0.000   0.008   0.000   0.012  -0.003
 -0.000   0.000   0.000   0.000   0.000   0.000   0.000   0.000   0.000  -0.017   0.036   0.000  -0.025   0.000  -0.003   0.008
 -0.000   0.000   0.000   0.000   0.000  -0.000   0.000   0.000  -0.014   0.000   0.000   0.035  -0.000  -0.004   0.000   0.000
 -0.000   0.002   0.000   0.000   0.000   0.000   0.000   0.000  -0.000   0.008  -0.025  -0.000   0.052  -0.000  -0.000  -0.004
 -0.000   0.000   0.000   0.000   0.000   0.000   0.000  -0.000   0.007   0.000   0.000  -0.004  -0.000   0.002   0.000  -0.000
  0.000  -0.001  -0.000  -0.000   0.000   0.000   0.000   0.000   0.000   0.012  -0.003   0.000  -0.000   0.000   0.003  -0.001
 -0.000   0.000   0.000   0.000  -0.000   0.000  -0.000  -0.000  -0.000  -0.003   0.008   0.000  -0.004  -0.000  -0.001   0.002
 -0.000   0.000   0.000   0.000   0.000   0.000  -0.000  -0.000  -0.004   0.000   0.000   0.010  -0.000  -0.001   0.000   0.000
 -0.000   0.001   0.000   0.000   0.000   0.000   0.000  -0.000  -0.000  -0.000  -0.004  -0.000   0.012  -0.000  -0.001  -0.001
  0.000   0.000   0.000  -0.010   0.000   0.000   0.022  -0.000   0.000   0.000   0.000  -0.000  -0.000   0.000  -0.000   0.000
  0.000   0.000  -0.000  -0.000  -0.012  -0.000  -0.000   0.027   0.000   0.000   0.000   0.000   0.000  -0.000   0.000   0.000
  0.000   0.000   0.003   0.003  -0.000  -0.014   0.003  -0.000   0.000   0.000   0.000   0.000   0.000   0.000  -0.000   0.000
  0.000   0.000   0.000  -0.009   0.000   0.000   0.019   0.000   0.000   0.000  -0.000   0.000   0.000  -0.000   0.000  -0.000
 -0.000  -0.000  -0.000   0.000   0.008  -0.000  -0.000  -0.010   0.000   0.000   0.000   0.000   0.000   0.000  -0.000   0.000
  0.000  -0.000  -0.013   0.002   0.000   0.026   0.001  -0.000  -0.000  -0.000   0.000   0.000   0.000  -0.000  -0.000   0.000
  0.000   0.000  -0.000   0.000  -0.003   0.000   0.000  -0.003   0.000  -0.000   0.000   0.000  -0.000  -0.000   0.000   0.000
  0.000   0.000  -0.000  -0.003   0.000  -0.000  -0.009   0.000  -0.000   0.000   0.000   0.000  -0.000   0.000  -0.000   0.000
  0.000   0.000   0.000   0.000  -0.004   0.000   0.000  -0.012   0.000   0.000  -0.000   0.000   0.000   0.000  -0.000   0.000
  0.000   0.000   0.004  -0.003   0.000   0.007  -0.003   0.000  -0.000   0.000  -0.000  -0.000   0.000  -0.000  -0.000   0.000
  0.000   0.000  -0.000  -0.003  -0.000  -0.000  -0.008  -0.000  -0.000   0.000   0.000  -0.000   0.000   0.000  -0.000   0.000
  0.000   0.000   0.000  -0.000  -0.001   0.000   0.000   0.003   0.000   0.000   0.000   0.000   0.000   0.000  -0.000   0.000
  0.000   0.000  -0.003  -0.002  -0.000  -0.010  -0.002   0.000   0.000   0.000   0.000   0.000  -0.000   0.000   0.000   0.000
  0.000   0.000  -0.000  -0.000   0.003  -0.000  -0.000   0.003   0.000   0.000   0.000   0.000  -0.000   0.000   0.000   0.000


------------------------ aborting loop because EDIFF is reached ----------------------------------------


 


 total charge     
 
# of ion       s       p       d       f       tot
--------------------------------------------------
    1        2.082   5.888   0.615   6.722  15.307
    2        2.082   5.888   0.615   6.722  15.307
    3        1.557   3.407   0.000   0.000   4.964
    4        1.557   3.407   0.000   0.000   4.964
--------------------------------------------------
tot          7.279  18.589   1.230  13.443  40.542

 


 magnetization (x)
 
# of ion       s       p       d       f       tot
--------------------------------------------------
    1       -0.007  -0.012   0.103   6.614   6.699
    2        0.007   0.012  -0.103  -6.614  -6.699
    3        0.002   0.037   0.000   0.000   0.039
    4       -0.002  -0.037   0.000   0.000  -0.039
--------------------------------------------------
tot         -0.000  -0.000   0.000  -0.000  -0.000

 
    CHARGE:  cpu time    0.0304: real time    0.0305
    FORLOC:  cpu time    0.0006: real time    0.0006
    FORNL :  cpu time    0.1518: real time    0.1521
    STRESS:  cpu time    0.2121: real time    0.2126
    FORCOR:  cpu time    0.0128: real time    0.0128
    FORHAR:  cpu time    0.0017: real time    0.0017
    MIXING:  cpu time    0.0015: real time    0.0015
    OFIELD:  cpu time    0.0000: real time    0.0000

  FORCE on cell =-STRESS in cart. coord.  units (eV):
  Direction    XX          YY          ZZ          XY          YZ          ZX
  --------------------------------------------------------------------------------------
  Alpha Z   453.10566   453.10566   453.10566
  Ewald   -1617.75261 -1617.75125 -1617.75302     0.00351     0.00252    -0.00245
  Hartree   459.47575   459.15741   459.31519     0.00226    -0.22302     0.00056
  E(xc)    -244.13998  -244.16395  -244.15197     0.00000    -0.01694     0.00002
  Local     422.55546   422.66424   422.61253    -0.00543     0.07283     0.00025
  n-local  -226.57734  -226.50761  -226.55200     0.28406     0.04283    -0.40138
  augment    96.21510    96.71091    96.46292    -0.00011     0.35074     0.00033
  Kinetic   656.57249   656.45981   656.62897     0.36782    -0.00068    -0.52071
  Fock        0.00000     0.00000     0.00000     0.00000     0.00000     0.00000
  -------------------------------------------------------------------------------------
  Total      -0.54548    -0.25608    -0.40043    -0.00053     0.20413    -0.00038
  in kB     -13.32742    -6.25657    -9.78335    -0.01298     4.98750    -0.00921
  external pressure =       -9.79 kB  Pullay stress =        0.00 kB


 VOLUME and BASIS-vectors are now :
 -----------------------------------------------------------------------------
  energy-cutoff  :      500.00
  volume of cell :       65.58
      direct lattice vectors                 reciprocal lattice vectors
     0.000008500 -2.074162400  2.933334000     0.000000000 -0.160705608  0.227273972
     3.592645600  0.000000000  0.000000000     0.278346409 -0.000005520 -0.000004710
     0.000131900  4.148395800  2.933334000     0.000000000  0.160705608  0.113635041

  length of vectors
     3.592575402  3.592645600  5.080712163     0.278351847  0.278346409  0.196822801


 FORCES acting on ions
    electron-ion (+dipol)            ewald-force                    non-local-force                 convergence-correction
 -----------------------------------------------------------------------------------------------
   -.291E-05 0.196E-05 -.193E-05   0.283E-04 -.191E-04 0.187E-04   0.112E-20 0.371E-21 0.000E+00   0.286E-09 -.192E-09 0.189E-09
   -.291E-05 0.196E-05 -.193E-05   0.283E-04 -.191E-04 0.187E-04   0.288E-21 0.000E+00 0.106E-21   0.286E-09 -.192E-09 0.189E-09
   -.168E-03 0.113E-03 -.111E-03   -.283E-04 0.191E-04 -.187E-04   0.177E-21 0.529E-21 0.106E-21   -.715E-08 0.481E-08 -.471E-08
   -.168E-03 0.113E-03 -.111E-03   -.283E-04 0.191E-04 -.187E-04   -.365E-21 0.318E-21 0.159E-21   -.715E-08 0.481E-08 -.471E-08
 -----------------------------------------------------------------------------------------------
   -.343E-03 0.231E-03 -.227E-03   0.283E-15 0.170E-15 0.668E-14   0.122E-20 0.122E-20 0.371E-21   -.137E-07 0.924E-08 -.904E-08
 
 
 POSITION                                       TOTAL-FORCE (eV/Angst)
 -----------------------------------------------------------------------------------
      0.00000      0.00000      0.00000         0.000000     -0.000000     -0.000000
      1.79639      1.03712      2.93333         0.000000     -0.000000     -0.000000
      0.00007      2.07420      1.46667        -0.000000      0.000000      0.000000
      1.79646      3.11131      4.40000        -0.000000     -0.000000     -0.000000
 -----------------------------------------------------------------------------------
    total drift:                               -0.000343      0.000231     -0.000227


--------------------------------------------------------------------------------------------------------



  FREE ENERGIE OF THE ION-ELECTRON SYSTEM (eV)
  ---------------------------------------------------
  free  energy   TOTEN  =       -41.63120066 eV

  energy  without entropy=      -41.65294569  energy(sigma->0) =      -41.63844900
 


--------------------------------------------------------------------------------------------------------


    POTLOK:  cpu time    0.0210: real time    0.0210


--------------------------------------------------------------------------------------------------------


     LOOP+:  cpu time   18.0504: real time   18.2894
    4ORBIT:  cpu time    0.0000: real time    0.0000
 


 total charge     
 
# of ion       s       p       d       f       tot
--------------------------------------------------
    1        2.082   5.888   0.615   6.722  15.307
    2        2.082   5.888   0.615   6.722  15.307
    3        1.557   3.407   0.000   0.000   4.964
    4        1.557   3.407   0.000   0.000   4.964
--------------------------------------------------
tot          7.279  18.589   1.230  13.443  40.542

 


 magnetization (x)
 
# of ion       s       p       d       f       tot
--------------------------------------------------
    1       -0.007  -0.012   0.103   6.614   6.699
    2        0.007   0.012  -0.103  -6.614  -6.699
    3        0.002   0.037   0.000   0.000   0.039
    4       -0.002  -0.037   0.000   0.000  -0.039
--------------------------------------------------
tot         -0.000  -0.000   0.000  -0.000  -0.000

 

 total amount of memory used by VASP MPI-rank0    40475. kBytes
=======================================================================

   base      :      30000. kBytes
   nonl-proj :       4521. kBytes
   fftplans  :        475. kBytes
   grid      :       1148. kBytes
   one-center:         98. kBytes
   wavefun   :       4233. kBytes
 
  
  
 General timing and accounting informations for this job:
 ========================================================
  
                  Total CPU time used (sec):       19.223
                            User time (sec):       19.062
                          System time (sec):        0.161
                         Elapsed time (sec):       20.157
  
                   Maximum memory used (kb):       63488.
                   Average memory used (kb):           0.
  
                          Minor page faults:        15216
                          Major page faults:            0
                 Voluntary context switches:         1422
