 vasp.5.4.4.18Apr17-6-g9f103f2a35 (build Apr 28 2018 00:24:27) complex          
  
 executed on             LinuxIFC date 2021.03.19  18:24:34
 running on    8 total cores
 distrk:  each k-point on    8 cores,    1 groups
 distr:  one band on NCORES_PER_BAND=   4 cores,    2 groups


--------------------------------------------------------------------------------------------------------


 INCAR:
 POTCAR:    PAW_PBE Eu 23Dec2003                  
 POTCAR:    PAW_PBE O 08Apr2002                   
 POTCAR:    PAW_PBE Eu 23Dec2003                  
   SHA256 =  ed303d27e7c5191953f9b15539336e6f36d9037c1d2e92e80c13d733697cb93d Eu
   COPYR  = (c) Copyright 23Dec2003 Georg Kresse                                
   COPYR  = This file is part of the software VASP. Any use, copying, and all ot
   COPYR  = If you do not have a valid VASP license, you may not use, copy or di
   VRHFIN =Eu : [core=Kr4d]                                                     
   LEXCH  = PE                                                                  
   EATOM  =  2619.8085 eV,  192.5505 Ry                                         
                                                                                
   TITEL  = PAW_PBE Eu 23Dec2003                                                
   LULTRA =        F    use ultrasoft PP ?                                      
   IUNSCR =        1    unscreen: 0-lin 1-nonlin 2-no                           
   RPACOR =    2.300    partial core radius                                     
   POMASS =  151.965; ZVAL   =   17.000    mass and valenz                      
   RCORE  =    2.800    outmost cutoff radius                                   
   RWIGS  =    2.800; RWIGS  =    1.482    wigner-seitz radius (au A)           
   ENMAX  =  249.668; ENMIN  =  187.251 eV                                      
   RCLOC  =    2.308    cutoff for local pot                                    
   LCOR   =        T    correct aug charges                                     
   LPAW   =        T    paw PP                                                  
   EAUG   =  549.628                                                            
   DEXC   =    0.000                                                            
   RMAX   =    2.870    core radius for proj-oper                               
   RAUG   =    1.300    factor for augmentation sphere                          
   RDEP   =    2.887    radius for radial grids                                 
   RDEPT  =    2.221    core radius for aug-charge                              
                                                                                
   Atomic configuration                                                         
   14 entries                                                                   
     n  l   j            E        occ.                                          
     1  0  0.50    -48354.7667   2.0000                                         
     2  0  0.50     -7939.6472   2.0000                                         
     2  1  1.50     -7072.6637   6.0000                                         
     3  0  0.50     -1747.1875   2.0000                                         
     3  1  1.50     -1477.5221   6.0000                                         
     3  2  2.50     -1117.4686  10.0000                                         
     4  0  0.50      -346.8682   2.0000                                         
     4  1  1.50      -258.1962   6.0000                                         
     4  2  2.50      -134.7724  10.0000                                         
     5  0  0.50       -44.6510   2.0000                                         
     6  0  0.50        -3.6227   2.0000                                         
     5  1  1.50       -23.7639   6.0000                                         
     5  2  2.50        -1.3130   0.0000                                         
     4  3  2.50        -2.7310   7.0000                                         
   Description                                                                  
     l       E           TYP  RCUT    TYP  RCUT                                 
     0    -44.6510453     23  2.400                                             
     0     -3.6226685     23  2.400                                             
     1    -23.7638687     23  2.400                                             
     1     27.2116520     23  2.400                                             
     2     -1.3129622     23  2.500                                             
     2     13.6058260     23  2.500                                             
     3     -2.7309948     23  2.800                                             
     3     -3.4014565     23  2.800                                             
  local pseudopotential read in
  partial core-charges read in
  partial kinetic energy density read in
  atomic valenz-charges read in
  non local Contribution for L=           0  read in
    real space projection operators read in
  non local Contribution for L=           0  read in
    real space projection operators read in
  non local Contribution for L=           1  read in
    real space projection operators read in
  non local Contribution for L=           1  read in
    real space projection operators read in
  non local Contribution for L=           2  read in
    real space projection operators read in
  non local Contribution for L=           2  read in
    real space projection operators read in
  non local Contribution for L=           3  read in
    real space projection operators read in
  non local Contribution for L=           3  read in
    real space projection operators read in
    PAW grid and wavefunctions read in
 
   number of l-projection  operators is LMAX  =           8
   number of lm-projection operators is LMMAX =          32
 
 POTCAR:    PAW_PBE O 08Apr2002                   
   SHA256 =  818f92134a0a090dccd8ba1447fa70422a3b330e708bb4f08108d8ae51209ddf O/
   COPYR  = (c) Copyright 08Apr2002 Georg Kresse                                
   COPYR  = This file is part of the software VASP. Any use, copying, and all ot
   COPYR  = If you do not have a valid VASP license, you may not use, copy or di
   VRHFIN =O: s2p4                                                              
   LEXCH  = PE                                                                  
   EATOM  =   432.3788 eV,   31.7789 Ry                                         
                                                                                
   TITEL  = PAW_PBE O 08Apr2002                                                 
   LULTRA =        F    use ultrasoft PP ?                                      
   IUNSCR =        1    unscreen: 0-lin 1-nonlin 2-no                           
   RPACOR =    1.200    partial core radius                                     
   POMASS =   16.000; ZVAL   =    6.000    mass and valenz                      
   RCORE  =    1.520    outmost cutoff radius                                   
   RWIGS  =    1.550; RWIGS  =    0.820    wigner-seitz radius (au A)           
   ENMAX  =  400.000; ENMIN  =  300.000 eV                                      
   ICORE  =        2    local potential                                         
   LCOR   =        T    correct aug charges                                     
   LPAW   =        T    paw PP                                                  
   EAUG   =  605.392                                                            
   DEXC   =    0.000                                                            
   RMAX   =    1.553    core radius for proj-oper                               
   RAUG   =    1.300    factor for augmentation sphere                          
   RDEP   =    1.550    radius for radial grids                                 
   RDEPT  =    1.329    core radius for aug-charge                              
                                                                                
   Atomic configuration                                                         
    4 entries                                                                   
     n  l   j            E        occ.                                          
     1  0  0.50      -514.6923   2.0000                                         
     2  0  0.50       -23.9615   2.0000                                         
     2  1  0.50        -9.0305   4.0000                                         
     3  2  1.50        -9.5241   0.0000                                         
   Description                                                                  
     l       E           TYP  RCUT    TYP  RCUT                                 
     0    -23.9615318     23  1.200                                             
     0     -9.5240782     23  1.200                                             
     1     -9.0304911     23  1.520                                             
     1      8.1634956     23  1.520                                             
     2     -9.5240782      7  1.500                                             
  local pseudopotential read in
  partial core-charges read in
  partial kinetic energy density read in
  kinetic energy density of atom read in
  atomic valenz-charges read in
  non local Contribution for L=           0  read in
    real space projection operators read in
  non local Contribution for L=           0  read in
    real space projection operators read in
  non local Contribution for L=           1  read in
    real space projection operators read in
  non local Contribution for L=           1  read in
    real space projection operators read in
    PAW grid and wavefunctions read in
 
   number of l-projection  operators is LMAX  =           4
   number of lm-projection operators is LMMAX =           8
 
  PAW_PBE Eu 23Dec2003                  :
 energy of atom  1       EATOM=-2619.8085
 kinetic energy error for atom=    0.0019 (will be added to EATOM!!)
  PAW_PBE O 08Apr2002                   :
 energy of atom  2       EATOM= -432.3788
 kinetic energy error for atom=    0.0224 (will be added to EATOM!!)
 
 
 POSCAR: Eu1 O1 str #: 2                         
  positions in direct lattice
  No initial velocities read in
 exchange correlation table for  LEXCH =        8
   RHO(1)=    0.500       N(1)  =     2000
   RHO(2)=  100.500       N(2)  =     4000
 


--------------------------------------------------------------------------------------------------------


 ion  position               nearest neighbor table
   1  0.000  0.000  0.000-   3 2.54   3 2.54   4 2.54   4 2.54   4 2.54   4 2.54
   2  0.500  0.500  0.500-   4 2.54   4 2.54   3 2.54   3 2.54   3 2.54   3 2.54
   3  0.000  0.000  0.500-   1 2.54   1 2.54   2 2.54   2 2.54   2 2.54   2 2.54
   4  0.500  0.500  1.000-   2 2.54   2 2.54   1 2.54   1 2.54   1 2.54   1 2.54
 
  LATTYP: Found a simple monoclinic cell.
 ALAT       =     6.2226751670
 B/A-ratio  =     0.5773361626
 C/A-ratio  =     1.4142187552
 COS(beta)  =    -0.9428119261
  
  Lattice vectors:
  
 A1 = (  -3.5927775000,  -4.1483958000,  -2.9333340000)
 A2 = (  -0.0000085000,   2.0741624000,  -2.9333340000)
 A3 = (   7.1854231000,   4.1483958000,   2.9333340000)


Analysis of symmetry for initial positions (statically):
=====================================================================
 Subroutine PRICEL returns following result:
 
  LATTYP: Found a trigonal (rhomboedric) cell.
 ALAT       =     3.5926434857
 COS(alpha) =     0.5000183251
  
  Lattice vectors:
  
 A1 = (  -1.7963930000,  -1.0371167000,  -2.9333340000)
 A2 = (  -1.7963845000,  -3.1112791000,   0.0000000000)
 A3 = (  -3.5926456000,   0.0000000000,   0.0000000000)
 
   2 primitive cells build up your supercell.
 

 Routine SETGRP: Setting up the symmetry group for a 
 simple monoclinic supercell.


 Subroutine GETGRP returns: Found  4 space group operations
 (whereof  4 operations were pure point group operations)
 out of a pool of  4 trial point group operations.


The static configuration has the point symmetry C_2h.


Analysis of symmetry for dynamics (positions and initial velocities):
=====================================================================
 Subroutine PRICEL returns following result:
 
  LATTYP: Found a trigonal (rhomboedric) cell.
 ALAT       =     3.5926434857
 COS(alpha) =     0.5000183251
  
  Lattice vectors:
  
 A1 = (  -1.7963930000,  -1.0371167000,  -2.9333340000)
 A2 = (  -1.7963845000,  -3.1112791000,   0.0000000000)
 A3 = (  -3.5926456000,   0.0000000000,   0.0000000000)
 
   2 primitive cells build up your supercell.
 

 Routine SETGRP: Setting up the symmetry group for a 
 simple monoclinic supercell.


 Subroutine GETGRP returns: Found  4 space group operations
 (whereof  4 operations were pure point group operations)
 out of a pool of  4 trial point group operations.


The dynamic configuration has the point symmetry C_2h.


Analysis of structural, dynamic, and magnetic symmetry:
=====================================================================
 Subroutine PRICEL returns following result:
 
  LATTYP: Found a trigonal (rhomboedric) cell.
 ALAT       =     3.5926434857
 COS(alpha) =     0.5000183251
  
  Lattice vectors:
  
 A1 = (  -1.7963930000,  -1.0371167000,  -2.9333340000)
 A2 = (  -1.7963845000,  -3.1112791000,   0.0000000000)
 A3 = (  -3.5926456000,   0.0000000000,   0.0000000000)
 
   2 primitive cells build up your supercell.
 

 Routine SETGRP: Setting up the symmetry group for a 
 simple monoclinic supercell.


 Subroutine GETGRP returns: Found  4 space group operations
 (whereof  4 operations were pure point group operations)
 out of a pool of  4 trial point group operations.


The magnetic configuration has the point symmetry C_2h.


 Subroutine INISYM returns: Found  4 space group operations
 (whereof  4 operations are pure point group operations),
 and found     2 'primitive' translations

 
 
 KPOINTS: pymatgen v2020.8.13 with grid density = 

Automatic generation of k-mesh.
Space group operators:
 irot       det(A)        alpha          n_x          n_y          n_z        tau_x        tau_y        tau_z
    1     1.000000     0.000001     1.000000     0.000000     0.000000     0.000000     0.000000     0.000000
    2    -1.000000     0.000001     1.000000     0.000000     0.000000     0.000000     0.000000     0.000000
    3     1.000000   180.000000     0.000000    -0.577347     0.816499     0.000000     0.000000     0.000000
    4    -1.000000   180.000000     0.000000    -0.577347     0.816499     0.000000     0.000000     0.000000
 
 Subroutine IBZKPT returns following result:
 ===========================================
 
 Found     16 irreducible k-points:
 
 Following reciprocal coordinates:
            Coordinates               Weight
  0.125000  0.125000  0.125000      4.000000
  0.375000  0.125000  0.125000      4.000000
  0.125000  0.375000  0.125000      4.000000
  0.375000  0.375000  0.125000      4.000000
  0.125000 -0.375000  0.125000      4.000000
  0.375000 -0.375000  0.125000      4.000000
  0.125000 -0.125000  0.125000      4.000000
  0.375000 -0.125000  0.125000      4.000000
  0.125000  0.125000  0.375000      4.000000
  0.375000  0.125000  0.375000      4.000000
  0.125000  0.375000  0.375000      4.000000
  0.375000  0.375000  0.375000      4.000000
  0.125000 -0.375000  0.375000      4.000000
  0.375000 -0.375000  0.375000      4.000000
  0.125000 -0.125000  0.375000      4.000000
  0.375000 -0.125000  0.375000      4.000000
 
 Following cartesian coordinates:
            Coordinates               Weight
  0.034793 -0.000001  0.042613      4.000000
  0.034793 -0.040177  0.099432      4.000000
  0.104380 -0.000002  0.042612      4.000000
  0.104380 -0.040178  0.099430      4.000000
 -0.104380  0.000002  0.042615      4.000000
 -0.104380 -0.040174  0.099434      4.000000
 -0.034793  0.000001  0.042614      4.000000
 -0.034793 -0.040176  0.099433      4.000000
  0.034793  0.040176  0.071022      4.000000
  0.034793 -0.000001  0.127840      4.000000
  0.104380  0.040174  0.071021      4.000000
  0.104380 -0.000002  0.127839      4.000000
 -0.104380  0.040178  0.071024      4.000000
 -0.104380  0.000002  0.127843      4.000000
 -0.034793  0.040177  0.071023      4.000000
 -0.034793  0.000001  0.127841      4.000000
 


--------------------------------------------------------------------------------------------------------




 Dimension of arrays:
   k-points           NKPTS =     16   k-points in BZ     NKDIM =     16   number of bands    NBANDS=     28
   number of dos      NEDOS =    301   number of ions     NIONS =      4
   non local maximal  LDIM  =      8   non local SUM 2l+1 LMDIM =     32
   total plane-waves  NPLWV =  11200
   max r-space proj   IRMAX =      1   max aug-charges    IRDMAX=   9962
   dimension x,y,z NGX =    20 NGY =   20 NGZ =   28
   dimension x,y,z NGXF=    40 NGYF=   40 NGZF=   56
   support grid    NGXF=    40 NGYF=   40 NGZF=   56
   ions per type =               2   2
   NGX,Y,Z   is equivalent  to a cutoff of   9.25,  9.25,  9.16 a.u.
   NGXF,Y,Z  is equivalent  to a cutoff of  18.51, 18.51, 18.32 a.u.

 SYSTEM =  "EuO"                                   
 POSCAR =  Eu1 O1 str #: 2                         

 Startparameter for this run:
   NWRITE =      2    write-flag & timer
   PREC   = normal    normal or accurate (medium, high low for compatibility)
   ISTART =      0    job   : 0-new  1-cont  2-samecut
   ICHARG =      2    charge: 1-file 2-atom 10-const
   ISPIN  =      2    spin polarized calculation?
   LNONCOLLINEAR =      F non collinear calculations
   LSORBIT =      F    spin-orbit coupling
   INIWAV =      1    electr: 0-lowe 1-rand  2-diag
   LASPH  =      F    aspherical Exc in radial PAW
   METAGGA=      F    non-selfconsistent MetaGGA calc.

 Electronic Relaxation 1
   ENCUT  =  500.0 eV  36.75 Ry    6.06 a.u.   6.55  6.55  9.26*2*pi/ulx,y,z
   ENINI  =  500.0     initial cutoff
   ENAUG  =  605.4 eV  augmentation charge cutoff
   NELM   =     60;   NELMIN=  2; NELMDL= -5     # of ELM steps 
   EDIFF  = 0.1E-05   stopping-criterion for ELM
   LREAL  =      F    real-space projection
   NLSPLINE    = F    spline interpolate recip. space projectors
   LCOMPAT=      F    compatible to vasp.4.4
   GGA_COMPAT  = T    GGA compatible to vasp.4.4-vasp.4.6
   LMAXPAW     = -100 max onsite density
   LMAXMIX     =    2 max onsite mixed and CHGCAR
   VOSKOWN=      0    Vosko Wilk Nusair interpolation
   ROPT   =    0.00000   0.00000
 Ionic relaxation
   EDIFFG = 0.1E-04   stopping-criterion for IOM
   NSW    =      0    number of steps for IOM
   NBLOCK =      1;   KBLOCK =      1    inner block; outer block 
   IBRION =     -1    ionic relax: 0-MD 1-quasi-New 2-CG
   NFREE  =      1    steps in history (QN), initial steepest desc. (CG)
   ISIF   =      2    stress and relaxation
   IWAVPR =     10    prediction:  0-non 1-charg 2-wave 3-comb
   ISYM   =      2    0-nonsym 1-usesym 2-fastsym
   LCORR  =      T    Harris-Foulkes like correction to forces

   POTIM  = 0.5000    time-step for ionic-motion
   TEIN   =    0.0    initial temperature
   TEBEG  =    0.0;   TEEND  =   0.0 temperature during run
   SMASS  =  -3.00    Nose mass-parameter (am)
   estimated Nose-frequenzy (Omega)   =  0.10E-29 period in steps =****** mass=  -0.295E-27a.u.
   SCALEE = 1.0000    scale energy and forces
   NPACO  =    256;   APACO  = 16.0  distance and # of slots for P.C.
   PSTRESS=    0.0 pullay stress

  Mass of Ions in am
   POMASS = 151.97 16.00
  Ionic Valenz
   ZVAL   =  17.00  6.00
  Atomic Wigner-Seitz radii
   RWIGS  =  -1.00 -1.00
  virtual crystal weights 
   VCA    =   1.00  1.00
   NELECT =      46.0000    total number of electrons
   NUPDOWN=      -1.0000    fix difference up-down

 DOS related values:
   EMIN   =  10.00;   EMAX   =-10.00  energy-range for DOS
   EFERMI =   0.00
   ISMEAR =     1;   SIGMA  =   0.10  broadening in eV -4-tet -1-fermi 0-gaus

 Electronic relaxation 2 (details)
   IALGO  =     38    algorithm
   LDIAG  =      T    sub-space diagonalisation (order eigenvalues)
   LSUBROT=      F    optimize rotation matrix (better conditioning)
   TURBO    =      0    0=normal 1=particle mesh
   IRESTART =      0    0=no restart 2=restart with 2 vectors
   NREBOOT  =      0    no. of reboots
   NMIN     =      0    reboot dimension
   EREF     =   0.00    reference energy to select bands
   IMIX   =      4    mixing-type and parameters
     AMIX     =   0.40;   BMIX     =  1.00
     AMIX_MAG =   1.60;   BMIX_MAG =  1.00
     AMIN     =   0.10
     WC   =   100.;   INIMIX=   1;  MIXPRE=   1;  MAXMIX= -45

 Intra band minimization:
   WEIMIN = 0.0000     energy-eigenvalue tresh-hold
   EBREAK =  0.89E-08  absolut break condition
   DEPER  =   0.30     relativ break condition  

   TIME   =   0.40     timestep for ELM

  volume/ion in A,a.u.               =      16.39       110.63
  Fermi-wavevector in a.u.,A,eV,Ry     =   1.454607  2.748810 28.788335  2.115883
  Thomas-Fermi vector in A             =   2.571738
 
 Write flags
   LWAVE        =      F    write WAVECAR
   LDOWNSAMPLE  =      F    k-point downsampling of WAVECAR
   LCHARG       =      F    write CHGCAR
   LVTOT        =      F    write LOCPOT, total local potential
   LVHAR        =      F    write LOCPOT, Hartree potential only
   LELF         =      F    write electronic localiz. function (ELF)
   LORBIT       =     11    0 simple, 1 ext, 2 COOP (PROOUT), +10 PAW based schemes


 Dipole corrections
   LMONO  =      F    monopole corrections only (constant potential shift)
   LDIPOL =      F    correct potential (dipole corrections)
   IDIPOL =      0    1-x, 2-y, 3-z, 4-all directions 
   EPSILON=  1.0000000 bulk dielectric constant

 Exchange correlation treatment:
   GGA     =    --    GGA type
   LEXCH   =     8    internal setting for exchange type
   VOSKOWN=      0    Vosko Wilk Nusair interpolation
   LHFCALC =     F    Hartree Fock is set to
   LHFONE  =     F    Hartree Fock one center treatment
   AEXX    =    0.0000 exact exchange contribution

 Linear response parameters
   LEPSILON=     F    determine dielectric tensor
   LRPA    =     F    only Hartree local field effects (RPA)
   LNABLA  =     F    use nabla operator in PAW spheres
   LVEL    =     F    velocity operator in full k-point grid
   LINTERFAST=   F  fast interpolation
   KINTER  =     0    interpolate to denser k-point grid
   CSHIFT  =0.1000    complex shift for real part using Kramers Kronig
   OMEGAMAX=  -1.0    maximum frequency
   DEG_THRESHOLD= 0.2000000E-02 threshold for treating states as degnerate
   RTIME   =   -0.100 relaxation time in fs
  (WPLASMAI=    0.000 imaginary part of plasma frequency in eV, 0.658/RTIME)
   DFIELD  = 0.0000000 0.0000000 0.0000000 field for delta impulse in time
 
 Orbital magnetization related:
   ORBITALMAG=     F  switch on orbital magnetization
   LCHIMAG   =     F  perturbation theory with respect to B field
   DQ        =  0.001000  dq finite difference perturbation B field
   LLRAUG    =     F  two centre corrections for induced B field



--------------------------------------------------------------------------------------------------------


 Static calculation
 charge density and potential will be updated during run
 spin polarized calculation
 Variant of blocked Davidson
 Davidson routine will perform the subspace rotation
 perform sub-space diagonalisation
    after iterative eigenvector-optimisation
 modified Broyden-mixing scheme, WC =      100.0
 initial mixing is a Kerker type mixing with AMIX =  0.4000 and BMIX =      1.0000
 Hartree-type preconditioning will be used
 using additional bands            5
 reciprocal scheme for non local part
 use partial core corrections
 calculate Harris-corrections to forces 
   (improved forces if not selfconsistent)
 use gradient corrections 
 use of overlap-Matrix (Vanderbilt PP)
 Methfessel and Paxton  Order N= 1 SIGMA  =   0.10


--------------------------------------------------------------------------------------------------------


  energy-cutoff  :      500.00
  volume of cell :       65.58
      direct lattice vectors                 reciprocal lattice vectors
     0.000008500 -2.074162400  2.933334000     0.000000000 -0.160705608  0.227273972
     3.592645600  0.000000000  0.000000000     0.278346409 -0.000005520 -0.000004710
     0.000131900  4.148395800  2.933334000     0.000000000  0.160705608  0.113635041

  length of vectors
     3.592575402  3.592645600  5.080712163     0.278351847  0.278346409  0.196822801


 
 k-points in units of 2pi/SCALE and weight: pymatgen v2020.8.13 with grid density = 
   0.03479330 -0.00000069  0.04261304       0.062
   0.03479330 -0.04017709  0.09943153       0.062
   0.10437990 -0.00000207  0.04261186       0.062
   0.10437990 -0.04017847  0.09943035       0.062
  -0.10437990  0.00000207  0.04261539       0.062
  -0.10437990 -0.04017433  0.09943389       0.062
  -0.03479330  0.00000069  0.04261422       0.062
  -0.03479330 -0.04017571  0.09943271       0.062
   0.03479330  0.04017571  0.07102180       0.062
   0.03479330 -0.00000069  0.12784029       0.062
   0.10437990  0.04017433  0.07102062       0.062
   0.10437990 -0.00000207  0.12783911       0.062
  -0.10437990  0.04017847  0.07102415       0.062
  -0.10437990  0.00000207  0.12784265       0.062
  -0.03479330  0.04017709  0.07102298       0.062
  -0.03479330  0.00000069  0.12784147       0.062
 
 k-points in reciprocal lattice and weights: pymatgen v2020.8.13 with grid density = 
   0.12500000  0.12500000  0.12500000       0.062
   0.37500000  0.12500000  0.12500000       0.062
   0.12500000  0.37500000  0.12500000       0.062
   0.37500000  0.37500000  0.12500000       0.062
   0.12500000 -0.37500000  0.12500000       0.062
   0.37500000 -0.37500000  0.12500000       0.062
   0.12500000 -0.12500000  0.12500000       0.062
   0.37500000 -0.12500000  0.12500000       0.062
   0.12500000  0.12500000  0.37500000       0.062
   0.37500000  0.12500000  0.37500000       0.062
   0.12500000  0.37500000  0.37500000       0.062
   0.37500000  0.37500000  0.37500000       0.062
   0.12500000 -0.37500000  0.37500000       0.062
   0.37500000 -0.37500000  0.37500000       0.062
   0.12500000 -0.12500000  0.37500000       0.062
   0.37500000 -0.12500000  0.37500000       0.062
 
 position of ions in fractional coordinates (direct lattice) 
   0.00000000  0.00000000  0.00000000
   0.50000000  0.50000000  0.50000000
   0.00000004  0.00000004  0.50000000
   0.50000004  0.50000004  1.00000000
 
 position of ions in cartesian coordinates  (Angst):
   0.00000000  0.00000000  0.00000000
   1.79639300  1.03711670  2.93333400
   0.00006610  2.07419780  1.46666710
   1.79645910  3.11131450  4.40000110
 


--------------------------------------------------------------------------------------------------------


 k-point  1 :   0.1250 0.1250 0.1250  plane waves:    1664
 k-point  2 :   0.3750 0.1250 0.1250  plane waves:    1665
 k-point  3 :   0.1250 0.3750 0.1250  plane waves:    1665
 k-point  4 :   0.3750 0.3750 0.1250  plane waves:    1656
 k-point  5 :   0.1250-0.3750 0.1250  plane waves:    1665
 k-point  6 :   0.3750-0.3750 0.1250  plane waves:    1656
 k-point  7 :   0.1250-0.1250 0.1250  plane waves:    1664
 k-point  8 :   0.3750-0.1250 0.1250  plane waves:    1665
 k-point  9 :   0.1250 0.1250 0.3750  plane waves:    1673
 k-point 10 :   0.3750 0.1250 0.3750  plane waves:    1663
 k-point 11 :   0.1250 0.3750 0.3750  plane waves:    1663
 k-point 12 :   0.3750 0.3750 0.3750  plane waves:    1655
 k-point 13 :   0.1250-0.3750 0.3750  plane waves:    1663
 k-point 14 :   0.3750-0.3750 0.3750  plane waves:    1655
 k-point 15 :   0.1250-0.1250 0.3750  plane waves:    1673
 k-point 16 :   0.3750-0.1250 0.3750  plane waves:    1663

 maximum and minimum number of plane-waves per node :       427      401

 maximum number of plane-waves:      1673
 maximum index in each direction: 
   IXMAX=    6   IYMAX=    6   IZMAX=    9
   IXMIN=   -6   IYMIN=   -6   IZMIN=   -9


 parallel 3D FFT for wavefunctions:
    minimum data exchange during FFTs selected (reduces bandwidth)
 parallel 3D FFT for charge:
    minimum data exchange during FFTs selected (reduces bandwidth)


 total amount of memory used by VASP MPI-rank0    38397. kBytes
=======================================================================

   base      :      30000. kBytes
   nonl-proj :       3451. kBytes
   fftplans  :        475. kBytes
   grid      :       1148. kBytes
   one-center:         98. kBytes
   wavefun   :       3225. kBytes
 
     INWAV:  cpu time    0.0000: real time    0.0001
 Broyden mixing: mesh for mixing (old mesh)
   NGX = 13   NGY = 13   NGZ = 19
  (NGX  = 40   NGY  = 40   NGZ  = 56)
  gives a total of   3211 points

 initial charge density was supplied:
 charge density of overlapping atoms calculated
 number of electron      46.0000000 magnetization       0.0000000
 keeping initial charge density in first step


--------------------------------------------------------------------------------------------------------


 Maximum index for augmentation-charges         1239 (set IRDMAX)


--------------------------------------------------------------------------------------------------------


 First call to EWALD:  gamma=   0.440
 Maximum number of real-space cells 3x 3x 2
 Maximum number of reciprocal cells 3x 3x 3

    FEWALD:  cpu time    0.0012: real time    0.0012


--------------------------------------- Iteration      1(   1)  ---------------------------------------


    POTLOK:  cpu time    0.0220: real time    0.0346
    SETDIJ:  cpu time    0.0096: real time    0.0096
     EDDAV:  cpu time    0.4046: real time    0.4254
       DOS:  cpu time    0.0012: real time    0.0012
    --------------------------------------------
      LOOP:  cpu time    0.4374: real time    0.4708

 eigenvalue-minimisations  :  2160
 total energy-change (2. order) : 0.4366640E+03  (-0.1827422E+04)
 number of electron      46.0000000 magnetization       0.0000000
 augmentation part       46.0000000 magnetization       0.0000000

 Free energy of the ion-electron system (eV)
  ---------------------------------------------------
  alpha Z        PSCENC =       453.10565554
  Ewald energy   TEWEN  =     -4853.25068260
  -Hartree energ DENC   =     -1394.95400397
  -exchange      EXHF   =         0.00000000
  -V(xc)+E(xc)   XCENC  =       227.25687620
  PAW double counting   =      5122.54265185    -5413.80328534
  entropy T*S    EENTRO =        -0.00071042
  eigenvalues    EBANDS =       191.44132072
  atomic energy  EATOM  =      6104.32616516
  Solvation  Ediel_sol  =         0.00000000
  ---------------------------------------------------
  free energy    TOTEN  =       436.66398714 eV

  energy without entropy =      436.66469756  energy(sigma->0) =      436.66422395


--------------------------------------------------------------------------------------------------------




--------------------------------------- Iteration      1(   2)  ---------------------------------------


     EDDAV:  cpu time    0.4384: real time    0.4418
       DOS:  cpu time    0.0013: real time    0.0013
    --------------------------------------------
      LOOP:  cpu time    0.4396: real time    0.4431

 eigenvalue-minimisations  :  2424
 total energy-change (2. order) :-0.3829398E+03  (-0.3589939E+03)
 number of electron      46.0000000 magnetization       0.0000000
 augmentation part       46.0000000 magnetization       0.0000000

 Free energy of the ion-electron system (eV)
  ---------------------------------------------------
  alpha Z        PSCENC =       453.10565554
  Ewald energy   TEWEN  =     -4853.25068260
  -Hartree energ DENC   =     -1394.95400397
  -exchange      EXHF   =         0.00000000
  -V(xc)+E(xc)   XCENC  =       227.25687620
  PAW double counting   =      5122.54265185    -5413.80328534
  entropy T*S    EENTRO =        -0.00246451
  eigenvalues    EBANDS =      -191.49677419
  atomic energy  EATOM  =      6104.32616516
  Solvation  Ediel_sol  =         0.00000000
  ---------------------------------------------------
  free energy    TOTEN  =        53.72413813 eV

  energy without entropy =       53.72660265  energy(sigma->0) =       53.72495964


--------------------------------------------------------------------------------------------------------




--------------------------------------- Iteration      1(   3)  ---------------------------------------


     EDDAV:  cpu time    0.5258: real time    0.5276
       DOS:  cpu time    0.0014: real time    0.0014
    --------------------------------------------
      LOOP:  cpu time    0.5273: real time    0.5291

 eigenvalue-minimisations  :  3060
 total energy-change (2. order) :-0.9018380E+02  (-0.8842550E+02)
 number of electron      46.0000000 magnetization       0.0000000
 augmentation part       46.0000000 magnetization       0.0000000

 Free energy of the ion-electron system (eV)
  ---------------------------------------------------
  alpha Z        PSCENC =       453.10565554
  Ewald energy   TEWEN  =     -4853.25068260
  -Hartree energ DENC   =     -1394.95400397
  -exchange      EXHF   =         0.00000000
  -V(xc)+E(xc)   XCENC  =       227.25687620
  PAW double counting   =      5122.54265185    -5413.80328534
  entropy T*S    EENTRO =        -0.00006997
  eigenvalues    EBANDS =      -281.68296753
  atomic energy  EATOM  =      6104.32616516
  Solvation  Ediel_sol  =         0.00000000
  ---------------------------------------------------
  free energy    TOTEN  =       -36.45966066 eV

  energy without entropy =      -36.45959069  energy(sigma->0) =      -36.45963734


--------------------------------------------------------------------------------------------------------




--------------------------------------- Iteration      1(   4)  ---------------------------------------


     EDDAV:  cpu time    0.5238: real time    0.5252
       DOS:  cpu time    0.0014: real time    0.0014
    --------------------------------------------
      LOOP:  cpu time    0.5252: real time    0.5266

 eigenvalue-minimisations  :  3068
 total energy-change (2. order) :-0.7624620E+01  (-0.7181426E+01)
 number of electron      46.0000000 magnetization       0.0000000
 augmentation part       46.0000000 magnetization       0.0000000

 Free energy of the ion-electron system (eV)
  ---------------------------------------------------
  alpha Z        PSCENC =       453.10565554
  Ewald energy   TEWEN  =     -4853.25068260
  -Hartree energ DENC   =     -1394.95400397
  -exchange      EXHF   =         0.00000000
  -V(xc)+E(xc)   XCENC  =       227.25687620
  PAW double counting   =      5122.54265185    -5413.80328534
  entropy T*S    EENTRO =         0.01999969
  eigenvalues    EBANDS =      -289.32765743
  atomic energy  EATOM  =      6104.32616516
  Solvation  Ediel_sol  =         0.00000000
  ---------------------------------------------------
  free energy    TOTEN  =       -44.08428090 eV

  energy without entropy =      -44.10428059  energy(sigma->0) =      -44.09094746


--------------------------------------------------------------------------------------------------------




--------------------------------------- Iteration      1(   5)  ---------------------------------------


     EDDAV:  cpu time    0.5667: real time    0.5681
       DOS:  cpu time    0.0015: real time    0.0015
    CHARGE:  cpu time    0.0293: real time    0.0294
    MIXING:  cpu time    0.0005: real time    0.0005
    --------------------------------------------
      LOOP:  cpu time    0.5981: real time    0.5996

 eigenvalue-minimisations  :  3340
 total energy-change (2. order) :-0.9461478E+00  (-0.8739650E+00)
 number of electron      46.0000053 magnetization       0.0000000
 augmentation part        8.4657282 magnetization       0.0000000

 Broyden mixing:
  rms(total) = 0.27707E+01    rms(broyden)= 0.27704E+01
  rms(prec ) = 0.57086E+01
  weight for this iteration     100.00

 Free energy of the ion-electron system (eV)
  ---------------------------------------------------
  alpha Z        PSCENC =       453.10565554
  Ewald energy   TEWEN  =     -4853.25068260
  -Hartree energ DENC   =     -1394.95400397
  -exchange      EXHF   =         0.00000000
  -V(xc)+E(xc)   XCENC  =       227.25687620
  PAW double counting   =      5122.54265185    -5413.80328534
  entropy T*S    EENTRO =         0.01885147
  eigenvalues    EBANDS =      -290.27265699
  atomic energy  EATOM  =      6104.32616516
  Solvation  Ediel_sol  =         0.00000000
  ---------------------------------------------------
  free energy    TOTEN  =       -45.03042867 eV

  energy without entropy =      -45.04928014  energy(sigma->0) =      -45.03671250


--------------------------------------------------------------------------------------------------------




--------------------------------------- Iteration      1(   6)  ---------------------------------------


    POTLOK:  cpu time    0.0127: real time    0.0128
    SETDIJ:  cpu time    0.0083: real time    0.0083
     EDDAV:  cpu time    0.5250: real time    0.5262
       DOS:  cpu time    0.0013: real time    0.0013
    CHARGE:  cpu time    0.0257: real time    0.0257
    MIXING:  cpu time    0.0006: real time    0.0006
    --------------------------------------------
      LOOP:  cpu time    0.5736: real time    0.5750

 eigenvalue-minimisations  :  3012
 total energy-change (2. order) :-0.5188990E+02  (-0.8019459E+02)
 number of electron      46.0000085 magnetization      -0.0000000
 augmentation part       22.6136379 magnetization      -0.0000000

 Broyden mixing:
  rms(total) = 0.11285E+02    rms(broyden)= 0.11284E+02
  rms(prec ) = 0.19900E+02
  weight for this iteration     100.00

 eigenvalues of (default mixing * dielectric matrix)
  average eigenvalue GAMMA=   0.1363
  0.1363

 Free energy of the ion-electron system (eV)
  ---------------------------------------------------
  alpha Z        PSCENC =       453.10565554
  Ewald energy   TEWEN  =     -4853.25068260
  -Hartree energ DENC   =     -1261.92822342
  -exchange      EXHF   =         0.00000000
  -V(xc)+E(xc)   XCENC  =       223.04671548
  PAW double counting   =      4925.36475128    -5157.39180525
  entropy T*S    EENTRO =         0.00230883
  eigenvalues    EBANDS =      -530.19520934
  atomic energy  EATOM  =      6104.32616516
  Solvation  Ediel_sol  =         0.00000000
  ---------------------------------------------------
  free energy    TOTEN  =       -96.92032431 eV

  energy without entropy =      -96.92263315  energy(sigma->0) =      -96.92109392


--------------------------------------------------------------------------------------------------------




--------------------------------------- Iteration      1(   7)  ---------------------------------------


    POTLOK:  cpu time    0.0126: real time    0.0127
    SETDIJ:  cpu time    0.0081: real time    0.0081
     EDDAV:  cpu time    0.4781: real time    0.4792
       DOS:  cpu time    0.0015: real time    0.0015
    CHARGE:  cpu time    0.0260: real time    0.0260
    MIXING:  cpu time    0.0006: real time    0.0006
    --------------------------------------------
      LOOP:  cpu time    0.5269: real time    0.5282

 eigenvalue-minimisations  :  2744
 total energy-change (2. order) : 0.6913367E+02  (-0.4727851E+02)
 number of electron      46.0000047 magnetization      -0.0000000
 augmentation part       10.5477204 magnetization      -0.0000000

 Broyden mixing:
  rms(total) = 0.25870E+01    rms(broyden)= 0.25866E+01
  rms(prec ) = 0.26861E+01
  weight for this iteration     100.00

 eigenvalues of (default mixing * dielectric matrix)
  average eigenvalue GAMMA=   0.2360
  0.2360  0.2360

 Free energy of the ion-electron system (eV)
  ---------------------------------------------------
  alpha Z        PSCENC =       453.10565554
  Ewald energy   TEWEN  =     -4853.25068260
  -Hartree energ DENC   =     -1353.10115134
  -exchange      EXHF   =         0.00000000
  -V(xc)+E(xc)   XCENC  =       223.74116401
  PAW double counting   =      5162.16592829    -5450.66601225
  entropy T*S    EENTRO =        -0.00244717
  eigenvalues    EBANDS =      -314.10527285
  atomic energy  EATOM  =      6104.32616516
  Solvation  Ediel_sol  =         0.00000000
  ---------------------------------------------------
  free energy    TOTEN  =       -27.78665320 eV

  energy without entropy =      -27.78420603  energy(sigma->0) =      -27.78583748


--------------------------------------------------------------------------------------------------------




--------------------------------------- Iteration      1(   8)  ---------------------------------------


    POTLOK:  cpu time    0.0123: real time    0.0124
    SETDIJ:  cpu time    0.0079: real time    0.0079
     EDDAV:  cpu time    0.4699: real time    0.4710
       DOS:  cpu time    0.0013: real time    0.0013
    CHARGE:  cpu time    0.0332: real time    0.0333
    MIXING:  cpu time    0.0006: real time    0.0006
    --------------------------------------------
      LOOP:  cpu time    0.5251: real time    0.5265

 eigenvalue-minimisations  :  2792
 total energy-change (2. order) :-0.1326759E+02  (-0.9882687E+01)
 number of electron      46.0000060 magnetization      -0.0000000
 augmentation part       12.2681859 magnetization      -0.0000000

 Broyden mixing:
  rms(total) = 0.22332E+01    rms(broyden)= 0.22330E+01
  rms(prec ) = 0.25891E+01
  weight for this iteration     100.00

 eigenvalues of (default mixing * dielectric matrix)
  average eigenvalue GAMMA=   0.3391
  0.4069  0.4069  0.2035

 Free energy of the ion-electron system (eV)
  ---------------------------------------------------
  alpha Z        PSCENC =       453.10565554
  Ewald energy   TEWEN  =     -4853.25068260
  -Hartree energ DENC   =     -1348.00082580
  -exchange      EXHF   =         0.00000000
  -V(xc)+E(xc)   XCENC  =       225.22529891
  PAW double counting   =      5190.25929841    -5478.69956880
  entropy T*S    EENTRO =        -0.00068145
  eigenvalues    EBANDS =      -334.01890012
  atomic energy  EATOM  =      6104.32616516
  Solvation  Ediel_sol  =         0.00000000
  ---------------------------------------------------
  free energy    TOTEN  =       -41.05424075 eV

  energy without entropy =      -41.05355929  energy(sigma->0) =      -41.05401360


--------------------------------------------------------------------------------------------------------




--------------------------------------- Iteration      1(   9)  ---------------------------------------


    POTLOK:  cpu time    0.0119: real time    0.0120
    SETDIJ:  cpu time    0.0078: real time    0.0078
     EDDAV:  cpu time    0.4924: real time    0.4935
       DOS:  cpu time    0.0014: real time    0.0014
    CHARGE:  cpu time    0.0257: real time    0.0257
    MIXING:  cpu time    0.0006: real time    0.0006
    --------------------------------------------
      LOOP:  cpu time    0.5397: real time    0.5410

 eigenvalue-minimisations  :  2924
 total energy-change (2. order) :-0.3926750E+00  (-0.9851372E+00)
 number of electron      46.0000059 magnetization       0.0000000
 augmentation part       11.8582361 magnetization       0.0000000

 Broyden mixing:
  rms(total) = 0.14808E+01    rms(broyden)= 0.14808E+01
  rms(prec ) = 0.17763E+01
  weight for this iteration     100.00

 eigenvalues of (default mixing * dielectric matrix)
  average eigenvalue GAMMA=   0.5125
  0.7365  0.2046  0.5544  0.5544

 Free energy of the ion-electron system (eV)
  ---------------------------------------------------
  alpha Z        PSCENC =       453.10565554
  Ewald energy   TEWEN  =     -4853.25068260
  -Hartree energ DENC   =     -1364.51052313
  -exchange      EXHF   =         0.00000000
  -V(xc)+E(xc)   XCENC  =       227.17772267
  PAW double counting   =      5210.27912038    -5505.43718583
  entropy T*S    EENTRO =         0.02660811
  eigenvalues    EBANDS =      -313.16379603
  atomic energy  EATOM  =      6104.32616516
  Solvation  Ediel_sol  =         0.00000000
  ---------------------------------------------------
  free energy    TOTEN  =       -41.44691574 eV

  energy without entropy =      -41.47352384  energy(sigma->0) =      -41.45578511


--------------------------------------------------------------------------------------------------------




--------------------------------------- Iteration      1(  10)  ---------------------------------------


    POTLOK:  cpu time    0.0123: real time    0.0124
    SETDIJ:  cpu time    0.0073: real time    0.0073
     EDDAV:  cpu time    0.5468: real time    0.5481
       DOS:  cpu time    0.0014: real time    0.0014
    CHARGE:  cpu time    0.0267: real time    0.0268
    MIXING:  cpu time    0.0006: real time    0.0006
    --------------------------------------------
      LOOP:  cpu time    0.5952: real time    0.5967

 eigenvalue-minimisations  :  3192
 total energy-change (2. order) :-0.5807118E-01  (-0.1906181E+00)
 number of electron      46.0000057 magnetization       0.0000000
 augmentation part       11.4374772 magnetization       0.0000000

 Broyden mixing:
  rms(total) = 0.10761E+01    rms(broyden)= 0.10761E+01
  rms(prec ) = 0.13142E+01
  weight for this iteration     100.00

 eigenvalues of (default mixing * dielectric matrix)
  average eigenvalue GAMMA=   0.5503
  0.2051  0.7049  0.7049  0.5682  0.5682

 Free energy of the ion-electron system (eV)
  ---------------------------------------------------
  alpha Z        PSCENC =       453.10565554
  Ewald energy   TEWEN  =     -4853.25068260
  -Hartree energ DENC   =     -1375.55817627
  -exchange      EXHF   =         0.00000000
  -V(xc)+E(xc)   XCENC  =       229.00825743
  PAW double counting   =      5220.27954511    -5522.80848999
  entropy T*S    EENTRO =         0.01895649
  eigenvalues    EBANDS =      -296.62621778
  atomic energy  EATOM  =      6104.32616516
  Solvation  Ediel_sol  =         0.00000000
  ---------------------------------------------------
  free energy    TOTEN  =       -41.50498692 eV

  energy without entropy =      -41.52394341  energy(sigma->0) =      -41.51130575


--------------------------------------------------------------------------------------------------------




--------------------------------------- Iteration      1(  11)  ---------------------------------------


    POTLOK:  cpu time    0.0122: real time    0.0123
    SETDIJ:  cpu time    0.0077: real time    0.0077
     EDDAV:  cpu time    0.5425: real time    0.5438
       DOS:  cpu time    0.0014: real time    0.0015
    CHARGE:  cpu time    0.0286: real time    0.0287
    MIXING:  cpu time    0.0010: real time    0.0010
    --------------------------------------------
      LOOP:  cpu time    0.5934: real time    0.5949

 eigenvalue-minimisations  :  3192
 total energy-change (2. order) :-0.1787537E+00  (-0.6811163E-01)
 number of electron      46.0000056 magnetization       0.0000000
 augmentation part       11.2101322 magnetization       0.0000000

 Broyden mixing:
  rms(total) = 0.69463E+00    rms(broyden)= 0.69462E+00
  rms(prec ) = 0.98804E+00
  weight for this iteration     100.00

 eigenvalues of (default mixing * dielectric matrix)
  average eigenvalue GAMMA=   0.7991
  2.0276  0.2048  0.5428  0.5428  0.8157  0.6607

 Free energy of the ion-electron system (eV)
  ---------------------------------------------------
  alpha Z        PSCENC =       453.10565554
  Ewald energy   TEWEN  =     -4853.25068260
  -Hartree energ DENC   =     -1382.74357314
  -exchange      EXHF   =         0.00000000
  -V(xc)+E(xc)   XCENC  =       230.20483938
  PAW double counting   =      5229.94937974    -5537.27613462
  entropy T*S    EENTRO =         0.01280507
  eigenvalues    EBANDS =      -286.01219517
  atomic energy  EATOM  =      6104.32616516
  Solvation  Ediel_sol  =         0.00000000
  ---------------------------------------------------
  free energy    TOTEN  =       -41.68374065 eV

  energy without entropy =      -41.69654572  energy(sigma->0) =      -41.68800901


--------------------------------------------------------------------------------------------------------




--------------------------------------- Iteration      1(  12)  ---------------------------------------


    POTLOK:  cpu time    0.0126: real time    0.0128
    SETDIJ:  cpu time    0.0083: real time    0.0083
     EDDAV:  cpu time    0.5950: real time    0.5964
       DOS:  cpu time    0.0015: real time    0.0015
    CHARGE:  cpu time    0.0257: real time    0.0257
    MIXING:  cpu time    0.0009: real time    0.0009
    --------------------------------------------
      LOOP:  cpu time    0.6439: real time    0.6456

 eigenvalue-minimisations  :  3496
 total energy-change (2. order) :-0.1416586E+00  (-0.1332798E+00)
 number of electron      46.0000055 magnetization      -0.0000000
 augmentation part       11.2725016 magnetization      -0.0000000

 Broyden mixing:
  rms(total) = 0.47169E+00    rms(broyden)= 0.47165E+00
  rms(prec ) = 0.71466E+00
  weight for this iteration     100.00

 eigenvalues of (default mixing * dielectric matrix)
  average eigenvalue GAMMA=   0.8175
  2.3828  0.2048  0.5634  0.5634  0.8209  0.5937  0.5937

 Free energy of the ion-electron system (eV)
  ---------------------------------------------------
  alpha Z        PSCENC =       453.10565554
  Ewald energy   TEWEN  =     -4853.25068260
  -Hartree energ DENC   =     -1386.51935028
  -exchange      EXHF   =         0.00000000
  -V(xc)+E(xc)   XCENC  =       233.28422204
  PAW double counting   =      5260.17327752    -5575.63295465
  entropy T*S    EENTRO =         0.01281492
  eigenvalues    EBANDS =      -277.32454695
  atomic energy  EATOM  =      6104.32616516
  Solvation  Ediel_sol  =         0.00000000
  ---------------------------------------------------
  free energy    TOTEN  =       -41.82539930 eV

  energy without entropy =      -41.83821422  energy(sigma->0) =      -41.82967094


--------------------------------------------------------------------------------------------------------




--------------------------------------- Iteration      1(  13)  ---------------------------------------


    POTLOK:  cpu time    0.0126: real time    0.0128
    SETDIJ:  cpu time    0.0083: real time    0.0083
     EDDAV:  cpu time    0.5062: real time    0.5074
       DOS:  cpu time    0.0014: real time    0.0014
    CHARGE:  cpu time    0.0286: real time    0.0286
    MIXING:  cpu time    0.0008: real time    0.0008
    --------------------------------------------
      LOOP:  cpu time    0.5580: real time    0.5594

 eigenvalue-minimisations  :  2948
 total energy-change (2. order) : 0.1929135E+00  (-0.6987576E-01)
 number of electron      46.0000056 magnetization      -0.0000000
 augmentation part       11.5928524 magnetization      -0.0000000

 Broyden mixing:
  rms(total) = 0.25002E+00    rms(broyden)= 0.25001E+00
  rms(prec ) = 0.33665E+00
  weight for this iteration     100.00

 eigenvalues of (default mixing * dielectric matrix)
  average eigenvalue GAMMA=   0.8914
  2.5902  0.2048  0.5444  0.5444  0.8367  0.8367  0.9524  0.6217

 Free energy of the ion-electron system (eV)
  ---------------------------------------------------
  alpha Z        PSCENC =       453.10565554
  Ewald energy   TEWEN  =     -4853.25068260
  -Hartree energ DENC   =     -1379.17675178
  -exchange      EXHF   =         0.00000000
  -V(xc)+E(xc)   XCENC  =       232.93663416
  PAW double counting   =      5263.15193335    -5575.21001264
  entropy T*S    EENTRO =         0.02186674
  eigenvalues    EBANDS =      -287.53729379
  atomic energy  EATOM  =      6104.32616516
  Solvation  Ediel_sol  =         0.00000000
  ---------------------------------------------------
  free energy    TOTEN  =       -41.63248584 eV

  energy without entropy =      -41.65435258  energy(sigma->0) =      -41.63977476


--------------------------------------------------------------------------------------------------------




--------------------------------------- Iteration      1(  14)  ---------------------------------------


    POTLOK:  cpu time    0.0124: real time    0.0125
    SETDIJ:  cpu time    0.0075: real time    0.0075
     EDDAV:  cpu time    0.5556: real time    0.5569
       DOS:  cpu time    0.0014: real time    0.0014
    CHARGE:  cpu time    0.0259: real time    0.0260
    MIXING:  cpu time    0.0008: real time    0.0008
    --------------------------------------------
      LOOP:  cpu time    0.6035: real time    0.6050

 eigenvalue-minimisations  :  3280
 total energy-change (2. order) : 0.1169734E-01  (-0.1335950E-01)
 number of electron      46.0000057 magnetization      -0.0000000
 augmentation part       11.6965073 magnetization      -0.0000000

 Broyden mixing:
  rms(total) = 0.16196E+00    rms(broyden)= 0.16196E+00
  rms(prec ) = 0.21623E+00
  weight for this iteration     100.00

 eigenvalues of (default mixing * dielectric matrix)
  average eigenvalue GAMMA=   0.9400
  2.7643  1.0149  1.0149  0.2048  0.5467  0.5467  0.9861  0.6907  0.6907

 Free energy of the ion-electron system (eV)
  ---------------------------------------------------
  alpha Z        PSCENC =       453.10565554
  Ewald energy   TEWEN  =     -4853.25068260
  -Hartree energ DENC   =     -1376.54286018
  -exchange      EXHF   =         0.00000000
  -V(xc)+E(xc)   XCENC  =       232.70119105
  PAW double counting   =      5271.90926953    -5582.04059450
  entropy T*S    EENTRO =         0.02160958
  eigenvalues    EBANDS =      -291.85054208
  atomic energy  EATOM  =      6104.32616516
  Solvation  Ediel_sol  =         0.00000000
  ---------------------------------------------------
  free energy    TOTEN  =       -41.62078850 eV

  energy without entropy =      -41.64239808  energy(sigma->0) =      -41.62799170


--------------------------------------------------------------------------------------------------------




--------------------------------------- Iteration      1(  15)  ---------------------------------------


    POTLOK:  cpu time    0.0125: real time    0.0126
    SETDIJ:  cpu time    0.0076: real time    0.0076
     EDDAV:  cpu time    0.5015: real time    0.5027
       DOS:  cpu time    0.0014: real time    0.0014
    CHARGE:  cpu time    0.0260: real time    0.0260
    MIXING:  cpu time    0.0009: real time    0.0009
    --------------------------------------------
      LOOP:  cpu time    0.5498: real time    0.5512

 eigenvalue-minimisations  :  2912
 total energy-change (2. order) :-0.4354770E-02  (-0.5181698E-02)
 number of electron      46.0000057 magnetization       0.0000000
 augmentation part       11.7501607 magnetization       0.0000000

 Broyden mixing:
  rms(total) = 0.73999E-01    rms(broyden)= 0.73987E-01
  rms(prec ) = 0.14001E+00
  weight for this iteration     100.00

 eigenvalues of (default mixing * dielectric matrix)
  average eigenvalue GAMMA=   0.9821
  2.4088  1.5493  1.5493  0.2048  0.5474  0.5474  0.9491  0.7282  0.7282  0.6088

 Free energy of the ion-electron system (eV)
  ---------------------------------------------------
  alpha Z        PSCENC =       453.10565554
  Ewald energy   TEWEN  =     -4853.25068260
  -Hartree energ DENC   =     -1375.84546117
  -exchange      EXHF   =         0.00000000
  -V(xc)+E(xc)   XCENC  =       232.30518452
  PAW double counting   =      5279.21390278    -5587.05172299
  entropy T*S    EENTRO =         0.02100633
  eigenvalues    EBANDS =      -294.44919084
  atomic energy  EATOM  =      6104.32616516
  Solvation  Ediel_sol  =         0.00000000
  ---------------------------------------------------
  free energy    TOTEN  =       -41.62514327 eV

  energy without entropy =      -41.64614960  energy(sigma->0) =      -41.63214538


--------------------------------------------------------------------------------------------------------




--------------------------------------- Iteration      1(  16)  ---------------------------------------


    POTLOK:  cpu time    0.0121: real time    0.0122
    SETDIJ:  cpu time    0.0074: real time    0.0074
     EDDAV:  cpu time    0.4651: real time    0.4662
       DOS:  cpu time    0.0014: real time    0.0014
    CHARGE:  cpu time    0.0240: real time    0.0241
    MIXING:  cpu time    0.0009: real time    0.0009
    --------------------------------------------
      LOOP:  cpu time    0.5108: real time    0.5121

 eigenvalue-minimisations  :  2736
 total energy-change (2. order) : 0.3781989E-02  (-0.3551484E-02)
 number of electron      46.0000057 magnetization       0.0000000
 augmentation part       11.6836091 magnetization       0.0000000

 Broyden mixing:
  rms(total) = 0.36268E-01    rms(broyden)= 0.36267E-01
  rms(prec ) = 0.59475E-01
  weight for this iteration     100.00

 eigenvalues of (default mixing * dielectric matrix)
  average eigenvalue GAMMA=   0.9717
  2.2264  2.2264  1.2605  0.2048  0.5474  0.5474  0.9760  0.6871  0.6871  0.7465
  0.5784

 Free energy of the ion-electron system (eV)
  ---------------------------------------------------
  alpha Z        PSCENC =       453.10565554
  Ewald energy   TEWEN  =     -4853.25068260
  -Hartree energ DENC   =     -1378.00173073
  -exchange      EXHF   =         0.00000000
  -V(xc)+E(xc)   XCENC  =       232.33810664
  PAW double counting   =      5283.03668383    -5590.84237235
  entropy T*S    EENTRO =         0.02223232
  eigenvalues    EBANDS =      -292.35541909
  atomic energy  EATOM  =      6104.32616516
  Solvation  Ediel_sol  =         0.00000000
  ---------------------------------------------------
  free energy    TOTEN  =       -41.62136128 eV

  energy without entropy =      -41.64359360  energy(sigma->0) =      -41.62877205


--------------------------------------------------------------------------------------------------------




--------------------------------------- Iteration      1(  17)  ---------------------------------------


    POTLOK:  cpu time    0.0122: real time    0.0123
    SETDIJ:  cpu time    0.0075: real time    0.0075
     EDDAV:  cpu time    0.5922: real time    0.5937
       DOS:  cpu time    0.0014: real time    0.0014
    CHARGE:  cpu time    0.0243: real time    0.0244
    MIXING:  cpu time    0.0010: real time    0.0010
    --------------------------------------------
      LOOP:  cpu time    0.6386: real time    0.6403

 eigenvalue-minimisations  :  3504
 total energy-change (2. order) : 0.6617026E-03  (-0.3379884E-03)
 number of electron      46.0000057 magnetization       0.0000000
 augmentation part       11.6753995 magnetization       0.0000000

 Broyden mixing:
  rms(total) = 0.20626E-01    rms(broyden)= 0.20625E-01
  rms(prec ) = 0.29198E-01
  weight for this iteration     100.00

 eigenvalues of (default mixing * dielectric matrix)
  average eigenvalue GAMMA=   1.0197
  2.5590  2.5590  0.2048  0.5472  0.5472  1.0522  1.0522  0.8196  0.8196  0.7287
  0.7287  0.6181

 Free energy of the ion-electron system (eV)
  ---------------------------------------------------
  alpha Z        PSCENC =       453.10565554
  Ewald energy   TEWEN  =     -4853.25068260
  -Hartree energ DENC   =     -1378.42867921
  -exchange      EXHF   =         0.00000000
  -V(xc)+E(xc)   XCENC  =       232.30581429
  PAW double counting   =      5285.34382148    -5592.86376910
  entropy T*S    EENTRO =         0.02262461
  eigenvalues    EBANDS =      -292.18164974
  atomic energy  EATOM  =      6104.32616516
  Solvation  Ediel_sol  =         0.00000000
  ---------------------------------------------------
  free energy    TOTEN  =       -41.62069958 eV

  energy without entropy =      -41.64332419  energy(sigma->0) =      -41.62824112


--------------------------------------------------------------------------------------------------------




--------------------------------------- Iteration      1(  18)  ---------------------------------------


    POTLOK:  cpu time    0.0124: real time    0.0125
    SETDIJ:  cpu time    0.0078: real time    0.0078
     EDDAV:  cpu time    0.5804: real time    0.5818
       DOS:  cpu time    0.0013: real time    0.0013
    CHARGE:  cpu time    0.0248: real time    0.0248
    MIXING:  cpu time    0.0011: real time    0.0011
    --------------------------------------------
      LOOP:  cpu time    0.6278: real time    0.6294

 eigenvalue-minimisations  :  3424
 total energy-change (2. order) : 0.1206532E-03  (-0.4293538E-04)
 number of electron      46.0000057 magnetization       0.0000000
 augmentation part       11.6752825 magnetization       0.0000000

 Broyden mixing:
  rms(total) = 0.18646E-01    rms(broyden)= 0.18646E-01
  rms(prec ) = 0.24267E-01
  weight for this iteration     100.00

 eigenvalues of (default mixing * dielectric matrix)
  average eigenvalue GAMMA=   1.0086
  2.5444  2.5444  1.1780  1.0266  1.0266  0.2048  0.5473  0.5473  0.7362  0.7362
  0.7252  0.7252  0.5699

 Free energy of the ion-electron system (eV)
  ---------------------------------------------------
  alpha Z        PSCENC =       453.10565554
  Ewald energy   TEWEN  =     -4853.25068260
  -Hartree energ DENC   =     -1378.45461369
  -exchange      EXHF   =         0.00000000
  -V(xc)+E(xc)   XCENC  =       232.31659250
  PAW double counting   =      5285.62419137    -5593.19692040
  entropy T*S    EENTRO =         0.02253413
  eigenvalues    EBANDS =      -292.11350094
  atomic energy  EATOM  =      6104.32616516
  Solvation  Ediel_sol  =         0.00000000
  ---------------------------------------------------
  free energy    TOTEN  =       -41.62057893 eV

  energy without entropy =      -41.64311305  energy(sigma->0) =      -41.62809030


--------------------------------------------------------------------------------------------------------




--------------------------------------- Iteration      1(  19)  ---------------------------------------


    POTLOK:  cpu time    0.0125: real time    0.0126
    SETDIJ:  cpu time    0.0078: real time    0.0079
     EDDAV:  cpu time    0.5703: real time    0.5716
       DOS:  cpu time    0.0015: real time    0.0015
    CHARGE:  cpu time    0.0243: real time    0.0244
    MIXING:  cpu time    0.0011: real time    0.0011
    --------------------------------------------
      LOOP:  cpu time    0.6176: real time    0.6191

 eigenvalue-minimisations  :  3344
 total energy-change (2. order) : 0.8105076E-04  (-0.1520968E-04)
 number of electron      46.0000057 magnetization      -0.0000000
 augmentation part       11.6728339 magnetization      -0.0000000

 Broyden mixing:
  rms(total) = 0.17235E-01    rms(broyden)= 0.17235E-01
  rms(prec ) = 0.19906E-01
  weight for this iteration     100.00

 eigenvalues of (default mixing * dielectric matrix)
  average eigenvalue GAMMA=   1.0645
  2.4323  2.4323  1.8866  1.2969  1.2969  0.2048  0.5472  0.5472  0.7851  0.7851
  0.7076  0.7076  0.6363  0.6363

 Free energy of the ion-electron system (eV)
  ---------------------------------------------------
  alpha Z        PSCENC =       453.10565554
  Ewald energy   TEWEN  =     -4853.25068260
  -Hartree energ DENC   =     -1378.45436363
  -exchange      EXHF   =         0.00000000
  -V(xc)+E(xc)   XCENC  =       232.31413053
  PAW double counting   =      5285.57967168    -5593.22809103
  entropy T*S    EENTRO =         0.02259150
  eigenvalues    EBANDS =      -292.03557502
  atomic energy  EATOM  =      6104.32616516
  Solvation  Ediel_sol  =         0.00000000
  ---------------------------------------------------
  free energy    TOTEN  =       -41.62049788 eV

  energy without entropy =      -41.64308938  energy(sigma->0) =      -41.62802838


--------------------------------------------------------------------------------------------------------




--------------------------------------- Iteration      1(  20)  ---------------------------------------


    POTLOK:  cpu time    0.0123: real time    0.0124
    SETDIJ:  cpu time    0.0074: real time    0.0075
     EDDAV:  cpu time    0.5553: real time    0.5566
       DOS:  cpu time    0.0015: real time    0.0015
    CHARGE:  cpu time    0.0244: real time    0.0244
    MIXING:  cpu time    0.0014: real time    0.0014
    --------------------------------------------
      LOOP:  cpu time    0.6023: real time    0.6038

 eigenvalue-minimisations  :  3232
 total energy-change (2. order) :-0.5562439E-04  (-0.5798046E-04)
 number of electron      46.0000057 magnetization      -0.0000000
 augmentation part       11.6744666 magnetization      -0.0000000

 Broyden mixing:
  rms(total) = 0.90546E-02    rms(broyden)= 0.90534E-02
  rms(prec ) = 0.11831E-01
  weight for this iteration     100.00

 eigenvalues of (default mixing * dielectric matrix)
  average eigenvalue GAMMA=   1.1433
  2.9291  2.9291  2.5019  1.2333  1.2333  0.2048  0.5473  0.5473  0.7761  0.7761
  0.7729  0.7729  0.6621  0.6621  0.6007

 Free energy of the ion-electron system (eV)
  ---------------------------------------------------
  alpha Z        PSCENC =       453.10565554
  Ewald energy   TEWEN  =     -4853.25068260
  -Hartree energ DENC   =     -1378.20633024
  -exchange      EXHF   =         0.00000000
  -V(xc)+E(xc)   XCENC  =       232.26280044
  PAW double counting   =      5285.31949149    -5593.02173125
  entropy T*S    EENTRO =         0.02275232
  eigenvalues    EBANDS =      -292.17867436
  atomic energy  EATOM  =      6104.32616516
  Solvation  Ediel_sol  =         0.00000000
  ---------------------------------------------------
  free energy    TOTEN  =       -41.62055350 eV

  energy without entropy =      -41.64330582  energy(sigma->0) =      -41.62813761


--------------------------------------------------------------------------------------------------------




--------------------------------------- Iteration      1(  21)  ---------------------------------------


    POTLOK:  cpu time    0.0126: real time    0.0128
    SETDIJ:  cpu time    0.0079: real time    0.0079
     EDDAV:  cpu time    0.5390: real time    0.5402
       DOS:  cpu time    0.0014: real time    0.0014
    CHARGE:  cpu time    0.0267: real time    0.0268
    MIXING:  cpu time    0.0014: real time    0.0014
    --------------------------------------------
      LOOP:  cpu time    0.5889: real time    0.5905

 eigenvalue-minimisations  :  3176
 total energy-change (2. order) : 0.7023644E-05  (-0.1366256E-04)
 number of electron      46.0000057 magnetization      -0.0000000
 augmentation part       11.6716226 magnetization      -0.0000000

 Broyden mixing:
  rms(total) = 0.66606E-02    rms(broyden)= 0.66606E-02
  rms(prec ) = 0.91310E-02
  weight for this iteration     100.00

 eigenvalues of (default mixing * dielectric matrix)
  average eigenvalue GAMMA=   1.1075
  2.8679  2.8679  2.5812  1.2171  1.2171  0.2048  0.5473  0.5473  0.7742  0.7742
  0.7848  0.7848  0.6691  0.6691  0.6070  0.6070

 Free energy of the ion-electron system (eV)
  ---------------------------------------------------
  alpha Z        PSCENC =       453.10565554
  Ewald energy   TEWEN  =     -4853.25068260
  -Hartree energ DENC   =     -1378.18273177
  -exchange      EXHF   =         0.00000000
  -V(xc)+E(xc)   XCENC  =       232.23678741
  PAW double counting   =      5284.86568395    -5592.62366244
  entropy T*S    EENTRO =         0.02276719
  eigenvalues    EBANDS =      -292.12052892
  atomic energy  EATOM  =      6104.32616516
  Solvation  Ediel_sol  =         0.00000000
  ---------------------------------------------------
  free energy    TOTEN  =       -41.62054648 eV

  energy without entropy =      -41.64331366  energy(sigma->0) =      -41.62813554


--------------------------------------------------------------------------------------------------------




--------------------------------------- Iteration      1(  22)  ---------------------------------------


    POTLOK:  cpu time    0.0125: real time    0.0127
    SETDIJ:  cpu time    0.0076: real time    0.0076
     EDDAV:  cpu time    0.4835: real time    0.4846
       DOS:  cpu time    0.0015: real time    0.0015
    CHARGE:  cpu time    0.0281: real time    0.0282
    MIXING:  cpu time    0.0014: real time    0.0014
    --------------------------------------------
      LOOP:  cpu time    0.5346: real time    0.5360

 eigenvalue-minimisations  :  2800
 total energy-change (2. order) : 0.1978351E-04  (-0.2480113E-05)
 number of electron      46.0000057 magnetization       0.0000000
 augmentation part       11.6704208 magnetization       0.0000000

 Broyden mixing:
  rms(total) = 0.45154E-02    rms(broyden)= 0.45153E-02
  rms(prec ) = 0.60495E-02
  weight for this iteration     100.00

 eigenvalues of (default mixing * dielectric matrix)
  average eigenvalue GAMMA=   1.0907
  2.9289  2.9289  2.4856  1.1656  1.1656  0.2048  0.5473  0.5473  0.8091  0.8091
  0.7901  0.7901  0.7416  0.7416  0.6136  0.6361  0.6361

 Free energy of the ion-electron system (eV)
  ---------------------------------------------------
  alpha Z        PSCENC =       453.10565554
  Ewald energy   TEWEN  =     -4853.25068260
  -Hartree energ DENC   =     -1378.22201095
  -exchange      EXHF   =         0.00000000
  -V(xc)+E(xc)   XCENC  =       232.23962811
  PAW double counting   =      5284.66958468    -5592.44366565
  entropy T*S    EENTRO =         0.02273590
  eigenvalues    EBANDS =      -292.06793688
  atomic energy  EATOM  =      6104.32616516
  Solvation  Ediel_sol  =         0.00000000
  ---------------------------------------------------
  free energy    TOTEN  =       -41.62052669 eV

  energy without entropy =      -41.64326259  energy(sigma->0) =      -41.62810533


--------------------------------------------------------------------------------------------------------




--------------------------------------- Iteration      1(  23)  ---------------------------------------


    POTLOK:  cpu time    0.0122: real time    0.0123
    SETDIJ:  cpu time    0.0079: real time    0.0079
     EDDAV:  cpu time    0.4942: real time    0.4954
       DOS:  cpu time    0.0015: real time    0.0015
    CHARGE:  cpu time    0.0281: real time    0.0282
    MIXING:  cpu time    0.0014: real time    0.0014
    --------------------------------------------
      LOOP:  cpu time    0.5453: real time    0.5467

 eigenvalue-minimisations  :  2888
 total energy-change (2. order) : 0.8300697E-05  (-0.2015250E-05)
 number of electron      46.0000057 magnetization       0.0000000
 augmentation part       11.6692905 magnetization       0.0000000

 Broyden mixing:
  rms(total) = 0.33277E-02    rms(broyden)= 0.33276E-02
  rms(prec ) = 0.40606E-02
  weight for this iteration     100.00

 eigenvalues of (default mixing * dielectric matrix)
  average eigenvalue GAMMA=   1.1281
  2.8195  2.8195  2.3173  1.6402  1.4203  1.4203  0.2048  0.5473  0.5473  0.7800
  0.7800  0.8485  0.8485  0.7737  0.7737  0.6071  0.6071  0.5499

 Free energy of the ion-electron system (eV)
  ---------------------------------------------------
  alpha Z        PSCENC =       453.10565554
  Ewald energy   TEWEN  =     -4853.25068260
  -Hartree energ DENC   =     -1378.25261250
  -exchange      EXHF   =         0.00000000
  -V(xc)+E(xc)   XCENC  =       232.23979879
  PAW double counting   =      5284.45736098    -5592.24180525
  entropy T*S    EENTRO =         0.02273191
  eigenvalues    EBANDS =      -292.02713041
  atomic energy  EATOM  =      6104.32616516
  Solvation  Ediel_sol  =         0.00000000
  ---------------------------------------------------
  free energy    TOTEN  =       -41.62051839 eV

  energy without entropy =      -41.64325030  energy(sigma->0) =      -41.62809569


--------------------------------------------------------------------------------------------------------




--------------------------------------- Iteration      1(  24)  ---------------------------------------


    POTLOK:  cpu time    0.0123: real time    0.0125
    SETDIJ:  cpu time    0.0079: real time    0.0079
     EDDAV:  cpu time    0.4155: real time    0.4165
       DOS:  cpu time    0.0014: real time    0.0014
    CHARGE:  cpu time    0.0282: real time    0.0282
    MIXING:  cpu time    0.0015: real time    0.0015
    --------------------------------------------
      LOOP:  cpu time    0.4668: real time    0.4680

 eigenvalue-minimisations  :  2268
 total energy-change (2. order) : 0.2185111E-05  (-0.1049485E-05)
 number of electron      46.0000057 magnetization       0.0000000
 augmentation part       11.6689645 magnetization       0.0000000

 Broyden mixing:
  rms(total) = 0.12042E-02    rms(broyden)= 0.12040E-02
  rms(prec ) = 0.13750E-02
  weight for this iteration     100.00

 eigenvalues of (default mixing * dielectric matrix)
  average eigenvalue GAMMA=   1.1644
  2.8676  2.8676  2.5258  2.5258  1.3488  1.3488  0.2048  0.5473  0.5473  0.7785
  0.7785  0.9018  0.9018  0.7491  0.7491  0.6484  0.6484  0.5916  0.5916

 Free energy of the ion-electron system (eV)
  ---------------------------------------------------
  alpha Z        PSCENC =       453.10565554
  Ewald energy   TEWEN  =     -4853.25068260
  -Hartree energ DENC   =     -1378.29063653
  -exchange      EXHF   =         0.00000000
  -V(xc)+E(xc)   XCENC  =       232.24630336
  PAW double counting   =      5284.37989183    -5592.15899360
  entropy T*S    EENTRO =         0.02271327
  eigenvalues    EBANDS =      -292.00093264
  atomic energy  EATOM  =      6104.32616516
  Solvation  Ediel_sol  =         0.00000000
  ---------------------------------------------------
  free energy    TOTEN  =       -41.62051621 eV

  energy without entropy =      -41.64322948  energy(sigma->0) =      -41.62808730


--------------------------------------------------------------------------------------------------------




--------------------------------------- Iteration      1(  25)  ---------------------------------------


    POTLOK:  cpu time    0.0124: real time    0.0125
    SETDIJ:  cpu time    0.0075: real time    0.0075
     EDDAV:  cpu time    0.3302: real time    0.3310
       DOS:  cpu time    0.0014: real time    0.0014
    --------------------------------------------
      LOOP:  cpu time    0.3515: real time    0.3524

 eigenvalue-minimisations  :  1716
 total energy-change (2. order) :-0.5683250E-07  (-0.2049689E-06)
 number of electron      46.0000057 magnetization       0.0000000
 augmentation part       11.6689645 magnetization       0.0000000

 Free energy of the ion-electron system (eV)
  ---------------------------------------------------
  alpha Z        PSCENC =       453.10565554
  Ewald energy   TEWEN  =     -4853.25068260
  -Hartree energ DENC   =     -1378.30755687
  -exchange      EXHF   =         0.00000000
  -V(xc)+E(xc)   XCENC  =       232.24923206
  PAW double counting   =      5284.34599959    -5592.12337094
  entropy T*S    EENTRO =         0.02270653
  eigenvalues    EBANDS =      -291.98866475
  atomic energy  EATOM  =      6104.32616516
  Solvation  Ediel_sol  =         0.00000000
  ---------------------------------------------------
  free energy    TOTEN  =       -41.62051626 eV

  energy without entropy =      -41.64322280  energy(sigma->0) =      -41.62808511


--------------------------------------------------------------------------------------------------------




 average (electrostatic) potential at core
  the test charge radii are     1.1829  0.7215
  (the norm of the test charge is              1.0000)
       1 -37.4060       2 -37.4060       3 -71.1906       4 -71.1906
 
 
 
 E-fermi :   4.8305     XC(G=0): -11.0338     alpha+bet :-12.2018


 spin component 1

 k-point     1 :       0.1250    0.1250    0.1250
  band No.  band energies     occupation 
      1     -36.2591      1.00000
      2     -33.1963      1.00000
      3     -15.4360      1.00000
      4     -15.3422      1.00000
      5     -15.0103      1.00000
      6     -14.1566      1.00000
      7     -13.5218      1.00000
      8     -12.7363      1.00000
      9     -12.6325      1.00000
     10     -12.1303      1.00000
     11       0.3003      1.00000
     12       0.5383      1.00000
     13       0.8127      1.00000
     14       0.9429      1.00000
     15       0.9874      1.00000
     16       1.1070      1.00000
     17       4.4145      1.00000
     18       4.4880      1.00001
     19       4.5961      1.00226
     20       4.6825      1.02853
     21       4.7369      1.01719
     22       4.7752      0.89767
     23       4.7848      0.84567
     24       5.3738     -0.00000
     25       6.3928     -0.00000
     26       6.6672     -0.00000
     27       7.8522      0.00000
     28       7.9360      0.00000

 k-point     2 :       0.3750    0.1250    0.1250
  band No.  band energies     occupation 
      1     -36.2320      1.00000
      2     -33.1631      1.00000
      3     -16.0724      1.00000
      4     -15.4405      1.00000
      5     -14.9519      1.00000
      6     -14.5953      1.00000
      7     -13.1792      1.00000
      8     -12.6858      1.00000
      9     -12.4572      1.00000
     10     -11.7085      1.00000
     11      -0.3581      1.00000
     12      -0.2002      1.00000
     13       0.4025      1.00000
     14       0.4850      1.00000
     15       0.7151      1.00000
     16       0.8616      1.00000
     17       4.4601      1.00000
     18       4.4667      1.00000
     19       4.5539      1.00033
     20       4.6408      1.01099
     21       4.6788      1.02691
     22       4.7072      1.03545
     23       4.7513      0.98794
     24       6.2453     -0.00000
     25       7.3094     -0.00000
     26       7.5559     -0.00000
     27       8.1722      0.00000
     28       9.0172      0.00000

 k-point     3 :       0.1250    0.3750    0.1250
  band No.  band energies     occupation 
      1     -36.2320      1.00000
      2     -33.1631      1.00000
      3     -16.0724      1.00000
      4     -15.4406      1.00000
      5     -14.9519      1.00000
      6     -14.5953      1.00000
      7     -13.1791      1.00000
      8     -12.6858      1.00000
      9     -12.4572      1.00000
     10     -11.7085      1.00000
     11      -0.3581      1.00000
     12      -0.2002      1.00000
     13       0.4026      1.00000
     14       0.4850      1.00000
     15       0.7151      1.00000
     16       0.8616      1.00000
     17       4.4600      1.00000
     18       4.4667      1.00000
     19       4.5539      1.00033
     20       4.6408      1.01099
     21       4.6788      1.02691
     22       4.7072      1.03545
     23       4.7513      0.98788
     24       6.2453     -0.00000
     25       7.3095     -0.00000
     26       7.5557     -0.00000
     27       8.1721      0.00000
     28       9.0170      0.00000

 k-point     4 :       0.3750    0.3750    0.1250
  band No.  band energies     occupation 
      1     -36.2072      1.00000
      2     -33.1313      1.00000
      3     -15.6713      1.00000
      4     -15.3824      1.00000
      5     -15.2629      1.00000
      6     -14.2054      1.00000
      7     -13.6070      1.00000
      8     -13.1516      1.00000
      9     -12.6215      1.00000
     10     -12.4659      1.00000
     11       0.4220      1.00000
     12       0.5595      1.00000
     13       0.8579      1.00000
     14       0.9692      1.00000
     15       1.0060      1.00000
     16       1.1411      1.00000
     17       4.3696      1.00000
     18       4.4920      1.00001
     19       4.5135      1.00003
     20       4.5439      1.00019
     21       4.6903      1.03172
     22       4.7028      1.03507
     23       4.7781      0.88295
     24       4.9836     -0.02624
     25       5.4186     -0.00000
     26       8.6572      0.00000
     27       8.8779      0.00000
     28       9.1978      0.00000

 k-point     5 :       0.1250   -0.3750    0.1250
  band No.  band energies     occupation 
      1     -36.2320      1.00000
      2     -33.1631      1.00000
[...]
 -4.016  -0.359  -0.000   0.000   0.000   0.000  -0.000  -0.000
  0.000  -0.000 -15.660   0.008  -0.000   7.366  -0.007   0.000
 -0.000   0.000   0.008 -15.666   0.000  -0.007   7.371  -0.000
 -0.000   0.000  -0.000   0.000 -15.672   0.000  -0.000   7.377
  0.000   0.000   7.366  -0.007   0.000   4.946   0.006  -0.000
 -0.000  -0.000  -0.007   7.371  -0.000   0.006   4.941   0.000
 -0.000  -0.000   0.000  -0.000   7.377  -0.000   0.000   4.937
 -0.000  -0.000  -0.000   0.000   0.000  -0.000   0.000   0.000
  0.006  -0.001  -0.000   0.000   0.000  -0.000   0.000   0.000
 -0.000  -0.000  -0.000  -0.000   0.000  -0.000  -0.000   0.000
  0.000   0.000   0.000  -0.000  -0.000   0.000  -0.000  -0.000
 -0.004   0.000  -0.000  -0.000  -0.000  -0.000  -0.000  -0.000
  0.000   0.000  -0.000   0.000   0.000   0.000  -0.000  -0.000
 -0.010   0.001  -0.000   0.000   0.000   0.000  -0.000  -0.000
  0.000   0.000   0.000   0.000  -0.000   0.000   0.000  -0.000
 -0.000  -0.000   0.000  -0.000  -0.000  -0.000   0.000   0.000
  0.007  -0.001   0.000  -0.000  -0.000   0.000   0.000   0.000
 -0.000   0.000  -0.001  -0.003  -0.000   0.001  -0.001   0.000
 -0.000   0.000   0.000  -0.000  -0.001  -0.000   0.000  -0.003
 -0.000   0.000   0.001   0.003   0.000   0.001  -0.002  -0.000
 -0.000   0.000  -0.001  -0.003  -0.000   0.001  -0.001   0.000
  0.000  -0.000   0.000   0.000   0.002  -0.000  -0.000   0.000
  0.000  -0.000  -0.005  -0.001   0.000   0.000   0.001  -0.000
  0.000  -0.000   0.000  -0.000  -0.002  -0.000   0.000   0.002
 -0.000   0.000  -0.002  -0.003  -0.000   0.001  -0.001   0.000
 -0.000   0.000   0.000  -0.000  -0.001  -0.000   0.000  -0.003
 -0.000   0.000   0.001   0.003   0.000   0.001  -0.002  -0.000
 -0.000   0.000  -0.001  -0.003  -0.000   0.001  -0.001   0.000
  0.000  -0.000   0.000   0.000   0.002  -0.000  -0.000   0.000
  0.000  -0.000  -0.005  -0.001   0.000   0.001   0.001  -0.000
  0.000  -0.000   0.000  -0.000  -0.002  -0.000   0.000   0.002
 pseudopotential strength for first ion, spin component:           2
-15.733   0.732   0.000  -0.000  -0.000   0.000  -0.000  -0.000
  0.732  -3.410  -0.000   0.000   0.000   0.000  -0.000  -0.000
  0.000  -0.000 -17.541   0.007  -0.000   7.747  -0.009   0.000
 -0.000   0.000   0.007 -17.546   0.000  -0.009   7.753  -0.000
 -0.000   0.000  -0.000   0.000 -17.551   0.000  -0.000   7.759
  0.000   0.000   7.747  -0.009   0.000   5.178   0.009  -0.000
 -0.000  -0.000  -0.009   7.753  -0.000   0.009   5.172   0.000
 -0.000  -0.000   0.000  -0.000   7.759  -0.000   0.000   5.166
 -0.000  -0.000  -0.000   0.000   0.000  -0.000   0.000   0.000
  0.005   0.000  -0.000   0.000   0.000  -0.000   0.000   0.000
 -0.000  -0.000  -0.000  -0.000   0.000  -0.000  -0.000   0.000
 -0.000   0.000   0.000  -0.000  -0.000   0.000  -0.000  -0.000
 -0.003  -0.000  -0.000  -0.000  -0.000  -0.000  -0.000  -0.000
  0.000   0.000  -0.000   0.000   0.000   0.000  -0.000  -0.000
 -0.008  -0.001  -0.000   0.000   0.000   0.000  -0.000  -0.000
  0.000   0.000   0.000   0.000  -0.000   0.000   0.000  -0.000
 -0.000  -0.000   0.000  -0.000  -0.000  -0.000   0.000   0.000
  0.006   0.000   0.000  -0.000  -0.000   0.000   0.000   0.000
 -0.000   0.000  -0.003  -0.021  -0.000   0.003   0.012   0.000
 -0.000   0.000   0.000  -0.000  -0.023  -0.000   0.000   0.011
 -0.000   0.000   0.012   0.003   0.000  -0.006  -0.004  -0.000
 -0.000   0.000  -0.003  -0.019  -0.000   0.003   0.010   0.000
  0.000  -0.000   0.000   0.000   0.011  -0.000  -0.000  -0.007
  0.000  -0.000  -0.029  -0.003   0.000   0.017   0.003  -0.000
  0.000  -0.000   0.000  -0.000  -0.001  -0.000   0.000   0.002
 -0.000   0.000  -0.003  -0.020  -0.000   0.003   0.011   0.000
 -0.000   0.000   0.000  -0.000  -0.022  -0.000   0.000   0.011
 -0.000   0.000   0.012   0.003   0.000  -0.006  -0.003  -0.000
 -0.000   0.000  -0.003  -0.018  -0.000   0.003   0.010   0.000
  0.000  -0.000   0.000   0.000   0.011  -0.000  -0.000  -0.006
  0.000  -0.000  -0.028  -0.003   0.000   0.017   0.003  -0.000
  0.000  -0.000   0.000  -0.000  -0.001  -0.000   0.000   0.002
 total augmentation occupancy for first ion, spin component:           1
  1.993  -0.037  -0.000  -0.000   0.000   0.000   0.000  -0.000  -0.000  -0.000   0.000  -0.000   0.000  -0.000   0.001   0.000
 -0.037   0.604   0.000  -0.000   0.000  -0.000   0.000  -0.000   0.000   0.000   0.000   0.000  -0.000   0.000   0.000   0.000
  0.000   0.000   2.012  -0.000  -0.000  -0.019   0.001  -0.000   0.000  -0.000   0.000   0.000  -0.000   0.000  -0.000   0.000
  0.000   0.000  -0.000   2.012   0.000   0.001  -0.019  -0.000   0.000   0.000   0.000   0.000   0.000   0.000  -0.000   0.000
  0.000   0.000  -0.000   0.000   2.013  -0.000  -0.000  -0.020  -0.000   0.000   0.000   0.000  -0.000   0.000   0.000  -0.000
 -0.000   0.000  -0.019   0.001  -0.000   0.020  -0.000   0.000  -0.000   0.000   0.000  -0.000   0.000   0.000  -0.000   0.000
 -0.000   0.000   0.001  -0.019  -0.000  -0.000   0.020   0.000  -0.000   0.000   0.000   0.000   0.000   0.000  -0.000   0.000
 -0.000   0.000  -0.000  -0.000  -0.020   0.000   0.000   0.020   0.000  -0.000   0.000   0.000   0.000   0.000   0.000   0.000
 -0.000   0.000   0.000   0.000   0.000   0.000  -0.000  -0.000   0.224   0.000   0.000  -0.085  -0.000   0.062   0.000   0.000
 -0.000   0.000  -0.000   0.000   0.000   0.000  -0.000  -0.000   0.000   0.289  -0.005   0.000  -0.079   0.000   0.085  -0.001
  0.000   0.000   0.000   0.000   0.000  -0.000   0.000   0.000   0.000  -0.005   0.170  -0.000  -0.007   0.000  -0.001   0.041
 -0.000   0.000   0.000   0.000   0.000   0.000   0.000   0.000  -0.085   0.000  -0.000   0.284  -0.000  -0.031   0.000  -0.000
  0.000  -0.000   0.000   0.000  -0.000  -0.000   0.000   0.000  -0.000  -0.079  -0.007  -0.000   0.232  -0.000  -0.030  -0.001
 -0.000   0.000   0.000   0.000   0.000   0.000   0.000  -0.000   0.062   0.000   0.000  -0.031  -0.000   0.018   0.000   0.000
  0.001   0.000   0.000   0.000   0.000  -0.000   0.000   0.000   0.000   0.085  -0.001   0.000  -0.030   0.000   0.026  -0.000
  0.000   0.000   0.000   0.000   0.000   0.000   0.000   0.000   0.000  -0.001   0.041  -0.000  -0.001   0.000  -0.000   0.010
 -0.000   0.000   0.000   0.000  -0.000   0.000  -0.000   0.000  -0.031   0.000  -0.000   0.084  -0.000  -0.011   0.000  -0.000
 -0.001  -0.000   0.000   0.000   0.000   0.000   0.000   0.000  -0.000  -0.030  -0.001  -0.000   0.063  -0.000  -0.011  -0.000
  0.000   0.000  -0.002  -0.119   0.000   0.000   0.081   0.000   0.000   0.000  -0.000   0.000  -0.000   0.000   0.000  -0.000
  0.000   0.000   0.000   0.000  -0.144  -0.000  -0.000   0.099   0.000   0.000  -0.000   0.000  -0.000   0.000   0.000  -0.000
  0.000   0.000   0.066   0.001  -0.000  -0.045   0.001  -0.000   0.000   0.000  -0.000   0.000   0.000   0.000   0.000  -0.000
  0.000   0.000  -0.001  -0.106  -0.000   0.000   0.072   0.000  -0.000   0.000   0.000   0.000   0.000  -0.000   0.000   0.000
  0.000   0.000   0.000   0.000   0.064  -0.000  -0.000  -0.044  -0.000   0.000   0.000  -0.000   0.000  -0.000   0.000   0.000
  0.000   0.000  -0.147  -0.002   0.000   0.099   0.000   0.000   0.000   0.000   0.000   0.000  -0.000   0.000   0.000   0.000
  0.000   0.000  -0.000  -0.000   0.000   0.000   0.000  -0.001   0.000   0.000   0.000   0.000   0.000   0.000  -0.000   0.000
  0.000   0.000   0.002   0.121  -0.000  -0.000  -0.075  -0.000   0.000   0.000   0.000   0.000   0.000   0.000   0.000  -0.000
  0.000   0.000  -0.000  -0.000   0.147   0.000   0.000  -0.092   0.000   0.000   0.000   0.000   0.000   0.000   0.000   0.000
  0.000   0.000  -0.067  -0.001   0.000   0.041  -0.000   0.000  -0.000   0.000   0.000  -0.000   0.000   0.000   0.000   0.000
  0.000   0.000   0.002   0.108   0.000  -0.000  -0.067  -0.000   0.000   0.000   0.000   0.000   0.000  -0.000   0.000   0.000
  0.000   0.000   0.000  -0.000  -0.066   0.000   0.000   0.041   0.000   0.000   0.000   0.000   0.000   0.000   0.000   0.000
  0.000  -0.000   0.150   0.002  -0.000  -0.092  -0.000  -0.000   0.000   0.000   0.000   0.000   0.000   0.000   0.000   0.000
  0.000   0.000   0.000   0.000   0.000  -0.000  -0.000   0.001   0.000  -0.000   0.000   0.000   0.000   0.000  -0.000   0.000
 total augmentation occupancy for first ion, spin component:           2
 -0.042  -0.159  -0.000   0.000   0.000   0.000   0.000   0.000   0.000   0.000   0.000   0.000  -0.000  -0.000   0.000   0.000
 -0.159   0.127   0.000   0.000   0.000   0.000  -0.000   0.000   0.000  -0.002   0.000   0.000   0.002   0.000  -0.001   0.000
  0.000   0.000  -0.008  -0.000  -0.000  -0.044  -0.000   0.000   0.000  -0.000   0.000   0.000  -0.000   0.000   0.000   0.000
  0.000  -0.000  -0.000  -0.008  -0.000  -0.000  -0.044   0.000   0.000   0.000   0.000   0.000   0.000   0.000   0.000  -0.000
  0.000   0.000  -0.000  -0.000  -0.008   0.000  -0.000  -0.044   0.000   0.000  -0.000  -0.000   0.000   0.000   0.000   0.000
  0.000   0.000  -0.044  -0.000   0.000   0.003  -0.000   0.000   0.000  -0.000   0.000   0.000   0.000   0.000   0.000   0.000
  0.000  -0.000  -0.000  -0.044  -0.000  -0.000   0.003   0.000  -0.000   0.000   0.000   0.000  -0.000  -0.000   0.000   0.000
  0.000   0.000   0.000   0.000  -0.044   0.000   0.000   0.003  -0.000   0.000   0.000   0.000   0.000   0.000   0.000   0.000
  0.000   0.000   0.000   0.000   0.000   0.000   0.000   0.000   0.025   0.000  -0.000  -0.014  -0.000   0.007   0.000   0.000
  0.000  -0.002  -0.000   0.000   0.000   0.000  -0.000   0.000   0.000   0.045  -0.015   0.000   0.005   0.000   0.012  -0.003
  0.000   0.000   0.000   0.000   0.000   0.000   0.000   0.000  -0.000  -0.015   0.034   0.000  -0.021  -0.000  -0.003   0.008
  0.000   0.000  -0.000   0.000   0.000  -0.000   0.000  -0.000  -0.014   0.000   0.000   0.034  -0.000  -0.004   0.000   0.000
 -0.000   0.002  -0.000   0.000   0.000   0.000   0.000   0.000  -0.000   0.005  -0.021  -0.000   0.049  -0.000  -0.001  -0.004
 -0.000   0.000   0.000  -0.000   0.000   0.000   0.000   0.000   0.007   0.000  -0.000  -0.004  -0.000   0.002   0.000  -0.000
  0.000  -0.001   0.000  -0.000   0.000   0.000   0.000   0.000   0.000   0.012  -0.003   0.000  -0.001   0.000   0.003  -0.000
  0.000   0.000   0.000   0.000  -0.000   0.000   0.000   0.000   0.000  -0.003   0.008   0.000  -0.004  -0.000  -0.000   0.002
 -0.000   0.000   0.000  -0.000   0.000   0.000   0.000   0.000  -0.004   0.000   0.000   0.010  -0.000  -0.001   0.000   0.000
 -0.000   0.001   0.000   0.000   0.000   0.000   0.000  -0.000  -0.000  -0.001  -0.004  -0.000   0.012  -0.000  -0.001  -0.001
  0.000  -0.000  -0.000  -0.010   0.000   0.000   0.022  -0.000  -0.000   0.000   0.000   0.000  -0.000   0.000   0.000   0.000
  0.000   0.000   0.000   0.000  -0.012  -0.000  -0.000   0.028   0.000   0.000  -0.000   0.000  -0.000   0.000   0.000  -0.000
  0.000   0.000   0.004   0.003  -0.000  -0.014   0.003  -0.000   0.000   0.000   0.000   0.000   0.000  -0.000  -0.000   0.000
  0.000  -0.000  -0.000  -0.009   0.000   0.000   0.020   0.000   0.000   0.000   0.000   0.000  -0.000  -0.000   0.000   0.000
  0.000   0.000  -0.000   0.000   0.008   0.000  -0.000  -0.010   0.000   0.000   0.000   0.000   0.000   0.000   0.000  -0.000
  0.000   0.000  -0.014   0.001   0.000   0.027   0.002  -0.000   0.000   0.000  -0.000   0.000   0.000   0.000   0.000   0.000
 -0.000   0.000  -0.000   0.000  -0.003   0.000   0.000  -0.003   0.000   0.000   0.000  -0.000   0.000   0.000   0.000   0.000
  0.000  -0.000  -0.000  -0.003  -0.000  -0.000  -0.009  -0.000   0.000   0.000  -0.000   0.000  -0.000  -0.000  -0.000   0.000
  0.000   0.000   0.000  -0.000  -0.005   0.000   0.000  -0.012   0.000   0.000   0.000   0.000  -0.000   0.000   0.000  -0.000
  0.000  -0.000   0.004  -0.003   0.000   0.007  -0.003   0.000   0.000   0.000   0.000  -0.000   0.000   0.000   0.000   0.000
  0.000   0.000  -0.000  -0.003  -0.000  -0.000  -0.008  -0.000   0.000   0.000  -0.000   0.000   0.000   0.000   0.000   0.000
 -0.000   0.000   0.000  -0.000  -0.000  -0.000   0.000   0.003   0.000   0.000  -0.000   0.000   0.000   0.000  -0.000  -0.000
  0.000   0.000  -0.003  -0.001  -0.000  -0.011  -0.002  -0.000   0.000   0.000   0.000  -0.000   0.000   0.000   0.000  -0.000
  0.000   0.000   0.000  -0.000   0.003  -0.000  -0.000   0.003   0.000   0.000   0.000   0.000   0.000   0.000   0.000   0.000


------------------------ aborting loop because EDIFF is reached ----------------------------------------


 


 total charge     
 
# of ion       s       p       d       f       tot
--------------------------------------------------
    1        2.083   5.888   0.611   6.725  15.307
    2        2.083   5.888   0.611   6.725  15.307
    3        1.558   3.406   0.000   0.000   4.964
    4        1.558   3.406   0.000   0.000   4.964
--------------------------------------------------
tot          7.282  18.589   1.223  13.449  40.543

 


 magnetization (x)
 
# of ion       s       p       d       f       tot
--------------------------------------------------
    1       -0.007  -0.011   0.099   6.617   6.698
    2        0.007   0.011  -0.099  -6.617  -6.698
    3        0.002   0.036   0.000   0.000   0.038
    4       -0.002  -0.036   0.000   0.000  -0.038
--------------------------------------------------
tot         -0.000  -0.000   0.000   0.000  -0.000

 
    CHARGE:  cpu time    0.0280: real time    0.0281
    FORLOC:  cpu time    0.0006: real time    0.0006
    FORNL :  cpu time    0.1183: real time    0.1186
    STRESS:  cpu time    0.1667: real time    0.1671
    FORCOR:  cpu time    0.0124: real time    0.0124
    FORHAR:  cpu time    0.0017: real time    0.0017
    MIXING:  cpu time    0.0016: real time    0.0016
    OFIELD:  cpu time    0.0001: real time    0.0001

  FORCE on cell =-STRESS in cart. coord.  units (eV):
  Direction    XX          YY          ZZ          XY          YZ          ZX
  --------------------------------------------------------------------------------------
  Alpha Z   453.10566   453.10566   453.10566
  Ewald   -1617.75261 -1617.75125 -1617.75302     0.00351     0.00252    -0.00245
  Hartree   459.38832   459.47545   459.43042     0.00232     0.06379     0.00060
  E(xc)    -244.16257  -244.17352  -244.16805     0.00000    -0.00774     0.00002
  Local     422.92518   422.47759   422.70421    -0.00556    -0.32078     0.00016
  n-local  -226.59323  -226.48743  -226.67772     0.00019    -0.02478     0.00024
  augment    96.24147    96.62972    96.43550    -0.00013     0.27471     0.00031
  Kinetic   656.46709   656.46347   656.76445    -0.00026     0.20825    -0.00013
  Fock        0.00000     0.00000     0.00000     0.00000     0.00000     0.00000
  -------------------------------------------------------------------------------------
  Total      -0.38070    -0.15273    -0.26614    -0.00054     0.16039    -0.00038
  in kB      -9.30133    -3.73151    -6.50254    -0.01319     3.91872    -0.00933
  external pressure =       -6.51 kB  Pullay stress =        0.00 kB


 VOLUME and BASIS-vectors are now :
 -----------------------------------------------------------------------------
  energy-cutoff  :      500.00
  volume of cell :       65.58
      direct lattice vectors                 reciprocal lattice vectors
     0.000008500 -2.074162400  2.933334000     0.000000000 -0.160705608  0.227273972
     3.592645600  0.000000000  0.000000000     0.278346409 -0.000005520 -0.000004710
     0.000131900  4.148395800  2.933334000     0.000000000  0.160705608  0.113635041

  length of vectors
     3.592575402  3.592645600  5.080712163     0.278351847  0.278346409  0.196822801


 FORCES acting on ions
    electron-ion (+dipol)            ewald-force                    non-local-force                 convergence-correction
 -----------------------------------------------------------------------------------------------
   -.291E-05 0.196E-05 -.193E-05   0.283E-04 -.191E-04 0.187E-04   -.353E-21 -.159E-21 0.529E-22   -.403E-08 0.271E-08 -.266E-08
   -.291E-05 0.196E-05 -.193E-05   0.283E-04 -.191E-04 0.187E-04   0.601E-21 -.159E-21 -.529E-22   -.403E-08 0.271E-08 -.266E-08
   -.168E-03 0.113E-03 -.111E-03   -.283E-04 0.191E-04 -.187E-04   -.200E-20 -.635E-21 0.000E+00   0.346E-08 -.234E-08 0.230E-08
   -.168E-03 0.113E-03 -.111E-03   -.283E-04 0.191E-04 -.187E-04   0.103E-20 -.106E-21 -.151E-20   0.346E-08 -.234E-08 0.230E-08
 -----------------------------------------------------------------------------------------------
   -.343E-03 0.231E-03 -.227E-03   0.283E-15 0.170E-15 0.668E-14   -.720E-21 -.106E-20 -.151E-20   -.114E-08 0.739E-09 -.728E-09
 
 
 POSITION                                       TOTAL-FORCE (eV/Angst)
 -----------------------------------------------------------------------------------
      0.00000      0.00000      0.00000        -0.000000     -0.000000     -0.000000
      1.79639      1.03712      2.93333         0.000000     -0.000000     -0.000000
      0.00007      2.07420      1.46667         0.000000     -0.000000      0.000000
      1.79646      3.11131      4.40000        -0.000000      0.000000     -0.000000
 -----------------------------------------------------------------------------------
    total drift:                               -0.000343      0.000231     -0.000227


--------------------------------------------------------------------------------------------------------



  FREE ENERGIE OF THE ION-ELECTRON SYSTEM (eV)
  ---------------------------------------------------
  free  energy   TOTEN  =       -41.62051626 eV

  energy  without entropy=      -41.64322280  energy(sigma->0) =      -41.62808511
 


--------------------------------------------------------------------------------------------------------


    POTLOK:  cpu time    0.0199: real time    0.0199


--------------------------------------------------------------------------------------------------------


     LOOP+:  cpu time   14.0846: real time   14.1651
    4ORBIT:  cpu time    0.0000: real time    0.0000
 


 total charge     
 
# of ion       s       p       d       f       tot
--------------------------------------------------
    1        2.083   5.888   0.611   6.725  15.307
    2        2.083   5.888   0.611   6.725  15.307
    3        1.558   3.406   0.000   0.000   4.964
    4        1.558   3.406   0.000   0.000   4.964
--------------------------------------------------
tot          7.282  18.589   1.223  13.449  40.543

 


 magnetization (x)
 
# of ion       s       p       d       f       tot
--------------------------------------------------
    1       -0.007  -0.011   0.099   6.617   6.698
    2        0.007   0.011  -0.099  -6.617  -6.698
    3        0.002   0.036   0.000   0.000   0.038
    4       -0.002  -0.036   0.000   0.000  -0.038
--------------------------------------------------
tot         -0.000  -0.000   0.000   0.000  -0.000

 

 total amount of memory used by VASP MPI-rank0    38397. kBytes
=======================================================================

   base      :      30000. kBytes
   nonl-proj :       3451. kBytes
   fftplans  :        475. kBytes
   grid      :       1148. kBytes
   one-center:         98. kBytes
   wavefun   :       3225. kBytes
 
  
  
 General timing and accounting informations for this job:
 ========================================================
  
                  Total CPU time used (sec):       15.474
                            User time (sec):       15.305
                          System time (sec):        0.169
                         Elapsed time (sec):       17.926
  
                   Maximum memory used (kb):       61164.
                   Average memory used (kb):           0.
  
                          Minor page faults:        16095
                          Major page faults:            0
                 Voluntary context switches:         1466
