unknown system                          
   1.00000000000000     
     0.000000    2.840052    2.840052
     0.000000    2.840052   -2.840052
    -2.840052    0.000000   -2.840052
   Fe
     4
Direct
  0.500000  0.500000  0.000000
  0.750000  0.750000  0.500000
  0.000000  0.000000  0.000000
  0.250000  0.250000  0.500000
 
   60   60   60
 0.46324593188E+07 0.40580631293E+05 0.10574829429E+05 0.17952675174E+04 0.42215835439E+03
 0.21331844012E+03 0.13178042542E+03 0.76558850424E+02 0.41539434142E+02 0.21541765642E+02
 0.10865779725E+02 0.53903292148E+01 0.26479372690E+01 0.12938252993E+01 0.63032233527E+00
 0.30711199257E+00 0.14958204991E+00 0.73312297462E-01 0.36170841314E-01 0.18427140945E-01
 0.98881192293E-02 0.61382628547E-02 0.45358362890E-02 0.42297095641E-02 0.44265183643E-02
 0.50157988790E-02 0.55715102765E-02 0.62189106559E-02 0.66614270429E-02 0.70429285807E-02
 0.71052369822E-02 0.70429285826E-02 0.66614270427E-02 0.62189106577E-02 0.55715102764E-02
 0.50157988799E-02 0.44265183643E-02 0.42297095647E-02 0.45358362890E-02 0.61382628559E-02
 0.98881192293E-02 0.18427140943E-01 0.36170841314E-01 0.73312297460E-01 0.14958204991E+00
 0.30711199257E+00 0.63032233527E+00 0.12938252993E+01 0.26479372690E+01 0.53903292148E+01
 0.10865779725E+02 0.21541765642E+02 0.41539434142E+02 0.76558850424E+02 0.13178042542E+03
 0.21331844012E+03 0.42215835439E+03 0.17952675174E+04 0.10574829429E+05 0.40580631293E+05
 0.40580631293E+05 0.25077013745E+05 0.70765498859E+04 0.13540381487E+04 0.37522915652E+03
 0.20326507869E+03 0.12636920486E+03 0.73449012748E+02 0.39919427655E+02 0.20752837419E+02
 0.10495937754E+02 0.52203280216E+01 0.25704454463E+01 0.12586008113E+01 0.61433480429E+00
 0.29984009641E+00 0.14626113657E+00 0.71780833508E-01 0.35463415377E-01 0.18088372137E-01
 0.97211723360E-02 0.60287539938E-02 0.44678066858E-02 0.41929735137E-02 0.43390520533E-02
 0.49018372095E-02 0.54763160225E-02 0.61552465466E-02 0.66031619579E-02 0.69865278758E-02
 0.70429286023E-02 0.69862182014E-02 0.66027568847E-02 0.61549482332E-02 0.54756244928E-02
 0.49007418738E-02 0.43376813769E-02 0.41927898167E-02 0.44685868893E-02 0.60303587482E-02
 0.97213283566E-02 0.18086885708E-01 0.35463302773E-01 0.71782118956E-01 0.14626030883E+00
 0.29984104094E+00 0.61433407947E+00 0.12585999308E+01 0.25704428128E+01 0.52203331725E+01
 0.10495941981E+02 0.20752854673E+02 0.39919428966E+02 0.73449049170E+02 0.12636919850E+03
 0.20326511654E+03 0.37522915292E+03 0.13540381017E+04 0.70765498900E+04 0.25077013760E+05
 0.10574829429E+05 0.70765498859E+04 0.24403656329E+04 0.67779516331E+03 0.28653661452E+03
 0.17744762149E+03 0.11145064279E+03 0.64888518508E+02 0.35458408362E+02 0.18572114443E+02
 0.94673738238E+01 0.47445918341E+01 0.23527868384E+01 0.11591755006E+01 0.56900265479E+00
 0.27911541946E+00 0.13677983003E+00 0.67395773051E-01 0.33434228206E-01 0.17107607055E-01
 0.92277134881E-02 0.57519870176E-02 0.42697061435E-02 0.39804437079E-02 0.41684292129E-02
 0.47158302867E-02 0.52343119861E-02 0.58348694616E-02 0.62485178671E-02 0.66031619574E-02
 0.66614270559E-02 0.66027568849E-02 0.62477283395E-02 0.58350361950E-02 0.52341359346E-02
 0.47152376800E-02 0.41664382211E-02 0.39792500449E-02 0.42673725683E-02 0.57524257616E-02
 0.92289797500E-02 0.17110271245E-01 0.33430615629E-01 0.67397196922E-01 0.13677886912E+00
 0.27911614351E+00 0.56900075869E+00 0.11591799884E+01 0.23527873686E+01 0.47445950625E+01
 0.94673596415E+01 0.18572112933E+02 0.35458382428E+02 0.64888520523E+02 0.11145061783E+03
 0.17744762139E+03 0.28653662328E+03 0.67779515735E+03 0.24403656434E+04 0.70765498900E+04
 0.17952675174E+04 0.13540381487E+04 0.67779516331E+03 0.33878642299E+03 0.21331843994E+03
 0.14333106096E+03 0.90429675157E+02 0.52885274298E+02 0.29187395691E+02 0.15479000304E+02
 0.79929548909E+01 0.40551032362E+01 0.20332962303E+01 0.10123844362E+01 0.50142835542E+00
 0.24794586300E+00 0.12244068732E+00 0.60709147754E-01 0.30332550584E-01 0.15589665980E-01
 0.84880758301E-02 0.52950588601E-02 0.39732935505E-02 0.37126899740E-02 0.38570360479E-02
 0.43287211283E-02 0.48491615098E-02 0.54278333882E-02 0.58348694666E-02 0.61552465505E-02
 0.62189106588E-02 0.61549482331E-02 0.58350362015E-02 0.54283211062E-02 0.48486635872E-02
 0.43283661244E-02 0.38563673947E-02 0.37115106233E-02 0.39686457060E-02 0.52914426761E-02
 0.84901911616E-02 0.15594122523E-01 0.30330525695E-01 0.60706862166E-01 0.12244413585E+00
 0.24794509177E+00 0.50142789412E+00 0.10123853840E+01 0.20332903227E+01 0.40551012887E+01
 0.79929537775E+01 0.15478999520E+02 0.29187398331E+02 0.52885260789E+02 0.90429682789E+02
 0.14333105211E+03 0.21331844611E+03 0.33878647190E+03 0.67779515735E+03 0.13540381017E+04
 0.42215835439E+03 0.37522915652E+03 0.28653661452E+03 0.21331843994E+03 0.15596946116E+03
 0.10688332005E+03 0.67618821255E+02 0.39919457860E+02 0.22363945322E+02 0.12065596985E+02
 0.63388977662E+01 0.32688833536E+01 0.16639997018E+01 0.83970634016E+00 0.42121122824E+00
 0.21048198721E+00 0.10507086339E+00 0.52520643073E-01 0.26510151970E-01 0.13704189853E-01
 0.75693367468E-02 0.47380795155E-02 0.36078923476E-02 0.33154027117E-02 0.35306608193E-02
 0.39342344634E-02 0.44084046441E-02 0.48491615050E-02 0.52343119857E-02 0.54763160221E-02
 0.55715103031E-02 0.54756244979E-02 0.52341359394E-02 0.48486635825E-02 0.44094577982E-02
 0.39342816865E-02 0.35338381517E-02 0.33147374482E-02 0.36062489465E-02 0.47304080626E-02
 0.75665788202E-02 0.13708302957E-01 0.26516931470E-01 0.52512014740E-01 0.10507249923E+00
 0.21048250212E+00 0.42121234800E+00 0.83970288797E+00 0.16640044493E+01 0.32688781127E+01
 0.63389095827E+01 0.12065587619E+02 0.22363965983E+02 0.39919448085E+02 0.67618821784E+02
 0.10688332442E+03 0.15596941422E+03 0.21331844611E+03 0.28653662328E+03 0.37522915292E+03
 0.21331844012E+03 0.20326507869E+03 0.17744762149E+03 0.14333106096E+03 0.10688332005E+03
 0.73449045895E+02 0.46842912951E+02 0.28085525511E+02 0.16048590254E+02 0.88439561816E+01
 0.47445295766E+01 0.24954904354E+01 0.12937404618E+01 0.66364265603E+00 0.33803450678E+00
 0.17113128323E+00 0.86547809008E-01 0.43713976693E-01 0.22347516760E-01 0.11652592306E-01
 0.65541302029E-02 0.41177973348E-02 0.32128479179E-02 0.29590264833E-02 0.31464940693E-02
 0.34503940261E-02 0.39342344678E-02 0.43287211300E-02 0.47158302873E-02 0.49018372050E-02
 0.50157988941E-02 0.49007418696E-02 0.47152376807E-02 0.43283661250E-02 0.39342816899E-02
 0.34537156679E-02 0.31510696813E-02 0.29615206889E-02 0.32094372146E-02 0.41089678000E-02
 0.65521806716E-02 0.11654304331E-01 0.22353394946E-01 0.43709816254E-01 0.86547775254E-01
 0.17113606172E+00 0.33803031312E+00 0.66363975535E+00 0.12937445731E+01 0.24954930506E+01
 0.47445354303E+01 0.88439652733E+01 0.16048586244E+02 0.28085548498E+02 0.46842899093E+02
 0.73449050153E+02 0.10688332442E+03 0.14333105211E+03 0.17744762139E+03 0.20326511654E+03
 0.13178042542E+03 0.12636920486E+03 0.11145064279E+03 0.90429675157E+02 0.67618821255E+02
 0.46842912951E+02 0.30337129026E+02 0.18572057762E+02 0.10865766320E+02 0.61351755474E+01
 0.33699579665E+01 0.18124910129E+01 0.95926877474E+00 0.50139550710E+00 0.25978730933E+00
 0.13363671810E+00 0.68541246065E-01 0.35122681165E-01 0.18166980593E-01 0.96417772882E-02
 0.55088086272E-02 0.35634931707E-02 0.28146137223E-02 0.26244115718E-02 0.28306002215E-02
 0.31464940741E-02 0.35306608153E-02 0.38570360457E-02 0.41684292127E-02 0.43390520511E-02
 0.44265183562E-02 0.43376813762E-02 0.41664382225E-02 0.38563673960E-02 0.35338381483E-02
 0.31510696806E-02 0.28351173477E-02 0.26248975200E-02 0.28100579929E-02 0.35590931166E-02
 0.54966110752E-02 0.96480572262E-02 0.18176948302E-01 0.35120050896E-01 0.68529247873E-01
 0.13364538893E+00 0.25978340077E+00 0.50140188887E+00 0.95927081184E+00 0.18124946576E+01
 0.33699528646E+01 0.61351768614E+01 0.10865771995E+02 0.18572050640E+02 0.30337166412E+02
 0.46842899093E+02 0.67618821784E+02 0.90429682789E+02 0.11145061783E+03 0.12636919850E+03
 0.76558850424E+02 0.73449012748E+02 0.64888518508E+02 0.52885274298E+02 0.39919457860E+02
 0.28085525511E+02 0.18572057762E+02 0.11649906043E+02 0.69958063749E+01 0.40549966255E+01
 0.22846995576E+01 0.12584756718E+01 0.68103272466E+00 0.36352136692E+00 0.19181300645E+00
 0.10048450643E+00 0.52315515010E-01 0.27295501690E-01 0.14317214801E-01 0.77967336070E-02
 0.45467293078E-02 0.31059304246E-02 0.25091545445E-02 0.24865798958E-02 0.26244115678E-02
 0.29590264866E-02 0.33154027110E-02 0.37126899786E-02 0.39804437049E-02 0.41929735126E-02
 0.42297095789E-02 0.41927898122E-02 0.39792500468E-02 0.37115106231E-02 0.33147374488E-02
 0.29615206831E-02 0.26248975168E-02 0.24842222125E-02 0.25064714931E-02 0.30889617456E-02
 0.45469447666E-02 0.78029059053E-02 0.14323968101E-01 0.27288701690E-01 0.52314784445E-01
 0.10049112291E+00 0.19181562861E+00 0.36351027511E+00 0.68104096763E+00 0.12584602311E+01
 0.22847092056E+01 0.40549773484E+01 0.69958142264E+01 0.11649897900E+02 0.18572050640E+02
 0.28085548498E+02 0.39919448085E+02 0.52885260789E+02 0.64888520523E+02 0.73449049170E+02
 0.41539434142E+02 0.39919427655E+02 0.35458408362E+02 0.29187395691E+02 0.22363945322E+02
 0.16048590254E+02 0.10865766320E+02 0.69958063749E+01 0.43163152945E+01 0.25704599274E+01
 0.14865831377E+01 0.83962875865E+00 0.46511300571E+00 0.25365766003E+00 0.13662641944E+00
 0.72890606690E-01 0.38696115435E-01 0.20538547018E-01 0.11040914086E-01 0.61986194338E-02
 0.38326692204E-02 0.27910060473E-02 0.24710138381E-02 0.25091545398E-02 0.28146137144E-02
 0.32128479153E-02 0.36078923470E-02 0.39732935523E-02 0.42697061449E-02 0.44678066866E-02
 0.45358362969E-02 0.44685868874E-02 0.42673725676E-02 0.39686457000E-02 0.36062489470E-02
 0.32094372169E-02 0.28100579851E-02 0.25064714908E-02 0.24541258452E-02 0.27882598794E-02
 0.38274574789E-02 0.62049338129E-02 0.11053844491E-01 0.20535228195E-01 0.38682019842E-01
 0.72897322377E-01 0.13662437232E+00 0.25365917063E+00 0.46511802968E+00 0.83962787324E+00
 0.14865751245E+01 0.25704653387E+01 0.43162997341E+01 0.69958142264E+01 0.10865771995E+02
 0.16048586244E+02 0.22363965983E+02 0.29187398331E+02 0.35458382428E+02 0.39919428966E+02
 0.21541765642E+02 0.20752837419E+02 0.18572114443E+02 0.15479000304E+02 0.12065596985E+02
 0.88439561816E+01 0.61351755474E+01 0.40549966255E+01 0.25704599274E+01 0.15725029622E+01
 0.93384563489E+00 0.54083973272E+00 0.30684292399E+00 0.17110270569E+00 0.94139376169E-01
 0.51228244408E-01 0.27774910978E-01 0.15120478308E-01 0.84326379040E-02 0.49916995601E-02
 0.34213369325E-02 0.28141328283E-02 0.27910060505E-02 0.31059304211E-02 0.35634931641E-02
 0.41177973298E-02 0.47380795154E-02 0.52950588591E-02 0.57519870118E-02 0.60287539935E-02
 0.61382628644E-02 0.60303587542E-02 0.57524257538E-02 0.52914426664E-02 0.47304080561E-02
 0.41089678018E-02 0.35590931146E-02 0.30889617478E-02 0.27882598816E-02 0.28047264759E-02
 0.34264990414E-02 0.50133563302E-02 0.84314933934E-02 0.15100787294E-01 0.27775474793E-01
 0.51247811684E-01 0.94137790655E-01 0.17109308903E+00 0.30684464213E+00 0.54082436884E+00
 0.93384838529E+00 0.15724874355E+01 0.25704653387E+01 0.40549773484E+01 0.61351768614E+01
 0.88439652733E+01 0.12065587619E+02 0.15478999520E+02 0.18572112933E+02 0.20752854673E+02
 0.10865779725E+02 0.10495937754E+02 0.94673738238E+01 0.79929548909E+01 0.63388977662E+01
 0.47445295766E+01 0.33699579665E+01 0.22846995576E+01 0.14865831377E+01 0.93384563489E+00
 0.56898580238E+00 0.33790777355E+00 0.19626694092E+00 0.11199972542E+00 0.62985827963E-01
 0.35077580109E-01 0.19485878368E-01 0.11015362794E-01 0.65435191925E-02 0.43643898251E-02
 0.34663108211E-02 0.34213369289E-02 0.38326692173E-02 0.45467292989E-02 0.55088086204E-02
 0.65541301986E-02 0.75693367440E-02 0.84880758297E-02 0.92277134935E-02 0.97211723364E-02
 0.98881192349E-02 0.97213283518E-02 0.92289797538E-02 0.84901911644E-02 0.75665788204E-02
 0.65521806669E-02 0.54966110701E-02 0.45469447646E-02 0.38274574714E-02 0.34264990371E-02
 0.34878604049E-02 0.43632125333E-02 0.65337936367E-02 0.11012574982E-01 0.19493519489E-01
 0.35079033943E-01 0.62969248758E-01 0.11199970641E+00 0.19627845741E+00 0.33790525582E+00
 0.56899021374E+00 0.93384838529E+00 0.14865751245E+01 0.22847092056E+01 0.33699528646E+01
 0.47445354303E+01 0.63389095827E+01 0.79929537775E+01 0.94673596415E+01 0.10495941981E+02
 0.53903292148E+01 0.52203280216E+01 0.47445918341E+01 0.40551032362E+01 0.32688833536E+01
 0.24954904354E+01 0.18124910129E+01 0.12584756718E+01 0.83962875865E+00 0.54083973272E+00
 0.33790777354E+00 0.20556855863E+00 0.12228992994E+00 0.71379547587E-01 0.41120605125E-01
 0.23512899172E-01 0.13585665795E-01 0.81884601110E-02 0.54859840332E-02 0.43994618148E-02
 0.43643898246E-02 0.49916995599E-02 0.61986194355E-02 0.77967336042E-02 0.96417772910E-02
 0.11652592307E-01 0.13704189858E-01 0.15589665984E-01 0.17107607054E-01 0.18088372135E-01
 0.18427140950E-01 0.18086885714E-01 0.17110271249E-01 0.15594122523E-01 0.13708302953E-01
 0.11654304335E-01 0.96480572303E-02 0.78029059041E-02 0.62049338190E-02 0.50133563256E-02
 0.43632125325E-02 0.43976083620E-02 0.54812164494E-02 0.81797240160E-02 0.13587395294E-01
 0.23521472049E-01 0.41118129182E-01 0.71392513018E-01 0.12228874685E+00 0.20555343578E+00
 0.33790525582E+00 0.54082436884E+00 0.83962787324E+00 0.12584602311E+01 0.18124946576E+01
 0.24954930506E+01 0.32688781127E+01 0.40551012887E+01 0.47445950625E+01 0.52203331725E+01
 0.26479372690E+01 0.25704454464E+01 0.23527868384E+01 0.20332962303E+01 0.16639997018E+01
 0.12937404618E+01 0.95926877474E+00 0.68103272465E+00 0.46511300571E+00 0.30684292400E+00
 0.19626694092E+00 0.12228992994E+00 0.74479241442E-01 0.44557088781E-01 0.26392695662E-01
 0.15691361983E-01 0.96552679567E-02 0.65953864655E-02 0.54084526537E-02 0.54859840299E-02
 0.65435191900E-02 0.84326379090E-02 0.11040914087E-01 0.14317214801E-01 0.18166980590E-01
 0.22347516759E-01 0.26510151974E-01 0.30332550586E-01 0.33434228207E-01 0.35463415382E-01
 0.36170841300E-01 0.35463302771E-01 0.33430615628E-01 0.30330525697E-01 0.26516931470E-01
 0.22353394946E-01 0.18176948298E-01 0.14323968104E-01 0.11053844502E-01 0.84314933990E-02
 0.65337936369E-02 0.54812164503E-02 0.53923585503E-02 0.65998220628E-02 0.96769018793E-02
 0.15689733408E-01 0.26377013065E-01 0.44557377202E-01 0.74468697848E-01 0.12228874685E+00
 0.19627845741E+00 0.30684464213E+00 0.46511802968E+00 0.68104096762E+00 0.95927081184E+00
 0.12937445731E+01 0.16640044493E+01 0.20332903227E+01 0.23527873686E+01 0.25704428128E+01
 0.12938252993E+01 0.12586008113E+01 0.11591755006E+01 0.10123844362E+01 0.83970634016E+00
 0.66364265604E+00 0.50139550711E+00 0.36352136692E+00 0.25365766003E+00 0.17110270568E+00
 0.11199972542E+00 0.71379547591E-01 0.44557088775E-01 0.27392904754E-01 0.16878908407E-01
 0.10755939732E-01 0.75130925237E-02 0.62692185238E-02 0.65953864636E-02 0.81884601110E-02
 0.11015362798E-01 0.15120478302E-01 0.20538547014E-01 0.27295501684E-01 0.35122681163E-01
 0.43713976696E-01 0.52520643067E-01 0.60709147754E-01 0.67395773049E-01 0.71780833514E-01
 0.73312297469E-01 0.71782118956E-01 0.67397196920E-01 0.60706862169E-01 0.52512014736E-01
 0.43709816254E-01 0.35120050902E-01 0.27288701687E-01 0.20535228195E-01 0.15100787296E-01
 0.11012574988E-01 0.81797240136E-02 0.65998220592E-02 0.62949128267E-02 0.75097301700E-02
 0.10729969228E-01 0.16879543118E-01 0.27412134493E-01 0.44557377197E-01 0.71392513023E-01
 0.11199970641E+00 0.17109308902E+00 0.25365917063E+00 0.36351027511E+00 0.50140188887E+00
 0.66363975535E+00 0.83970288797E+00 0.10123853840E+01 0.11591799884E+01 0.12585999308E+01
 0.63032233528E+00 0.61433480429E+00 0.56900265479E+00 0.50142835542E+00 0.42121122823E+00
 0.33803450677E+00 0.25978730933E+00 0.19181300646E+00 0.13662641943E+00 0.94139376174E-01
 0.62985827960E-01 0.41120605126E-01 0.26392695659E-01 0.16878908406E-01 0.11081764925E-01
 0.80201256019E-02 0.69558727578E-02 0.75130925186E-02 0.96552679565E-02 0.13585665794E-01
 0.19485878369E-01 0.27774910980E-01 0.38696115435E-01 0.52315515013E-01 0.68541246062E-01
 0.86547809008E-01 0.10507086338E+00 0.12244068732E+00 0.13677983003E+00 0.14626113656E+00
 0.14958204989E+00 0.14626030883E+00 0.13677886913E+00 0.12244413585E+00 0.10507249923E+00
 0.86547775255E-01 0.68529247870E-01 0.52314784444E-01 0.38682019841E-01 0.27775474794E-01
 0.19493519489E-01 0.13587395292E-01 0.96769018808E-02 0.75097301678E-02 0.69291214745E-02
 0.80205440235E-02 0.11108595311E-01 0.16879543118E-01 0.26377013062E-01 0.41118129181E-01
 0.62969248755E-01 0.94137790655E-01 0.13662437232E+00 0.19181562861E+00 0.25978340076E+00
 0.33803031312E+00 0.42121234800E+00 0.50142789413E+00 0.56900075869E+00 0.61433407947E+00
 0.30711199254E+00 0.29984009638E+00 0.27911541946E+00 0.24794586301E+00 0.21048198719E+00
 0.17113128324E+00 0.13363671808E+00 0.10048450644E+00 0.72890606698E-01 0.51228244416E-01
 0.35077580106E-01 0.23512899169E-01 0.15691361981E-01 0.10755939736E-01 0.80201255960E-02
 0.71308791521E-02 0.80201255942E-02 0.10755939737E-01 0.15691361983E-01 0.23512899169E-01
 0.35077580104E-01 0.51228244416E-01 0.72890606698E-01 0.10048450644E+00 0.13363671809E+00
 0.17113128324E+00 0.21048198719E+00 0.24794586301E+00 0.27911541946E+00 0.29984009638E+00
 0.30711199252E+00 0.29984104096E+00 0.27911614351E+00 0.24794509179E+00 0.21048250212E+00
 0.17113606177E+00 0.13364538894E+00 0.10049112294E+00 0.72897322377E-01 0.51247811654E-01
 0.35079033927E-01 0.23521472048E-01 0.15689733410E-01 0.10729969198E-01 0.80205440262E-02
 0.71592350942E-02 0.80205440267E-02 0.10729969197E-01 0.15689733407E-01 0.23521472048E-01
 0.35079033929E-01 0.51247811654E-01 0.72897322377E-01 0.10049112294E+00 0.13364538893E+00
 0.17113606177E+00 0.21048250212E+00 0.24794509179E+00 0.27911614351E+00 0.29984104096E+00
 0.14958204989E+00 0.14626113656E+00 0.13677983003E+00 0.12244068732E+00 0.10507086338E+00
 0.86547809009E-01 0.68541246061E-01 0.52315515013E-01 0.38696115436E-01 0.27774910980E-01
 0.19485878370E-01 0.13585665794E-01 0.96552679551E-02 0.75130925179E-02 0.69558727591E-02
 0.80201256023E-02 0.11081764923E-01 0.16878908406E-01 0.26392695661E-01 0.41120605126E-01
 0.62985827960E-01 0.94139376174E-01 0.13662641943E+00 0.19181300646E+00 0.25978730933E+00
 0.33803450677E+00 0.42121122823E+00 0.50142835542E+00 0.56900265479E+00 0.61433480429E+00
 0.63032233527E+00 0.61433407947E+00 0.56900075869E+00 0.50142789413E+00 0.42121234800E+00
 0.33803031312E+00 0.25978340076E+00 0.19181562861E+00 0.13662437232E+00 0.94137790655E-01
 0.62969248756E-01 0.41118129181E-01 0.26377013063E-01 0.16879543118E-01 0.11108595309E-01
 0.80205440234E-02 0.69291214768E-02 0.75097301678E-02 0.96769018793E-02 0.13587395293E-01
 0.19493519490E-01 0.27775474794E-01 0.38682019842E-01 0.52314784444E-01 0.68529247869E-01
 0.86547775255E-01 0.10507249923E+00 0.12244413585E+00 0.13677886913E+00 0.14626030883E+00
 0.73312297485E-01 0.71780833513E-01 0.67395773051E-01 0.60709147754E-01 0.52520643068E-01
 0.43713976696E-01 0.35122681160E-01 0.27295501684E-01 0.20538547014E-01 0.15120478302E-01
 0.11015362798E-01 0.81884601111E-02 0.65953864648E-02 0.62692185235E-02 0.75130925250E-02
 0.10755939732E-01 0.16878908405E-01 0.27392904754E-01 0.44557088776E-01 0.71379547591E-01
 0.11199972542E+00 0.17110270568E+00 0.25365766003E+00 0.36352136692E+00 0.50139550711E+00
 0.66364265604E+00 0.83970634015E+00 0.10123844362E+01 0.11591755006E+01 0.12586008113E+01
 0.12938252993E+01 0.12585999308E+01 0.11591799884E+01 0.10123853840E+01 0.83970288797E+00
 0.66363975535E+00 0.50140188887E+00 0.36351027511E+00 0.25365917063E+00 0.17109308902E+00
 0.11199970641E+00 0.71392513023E-01 0.44557377198E-01 0.27412134493E-01 0.16879543115E-01
 0.10729969228E-01 0.75097301711E-02 0.62949128270E-02 0.65998220603E-02 0.81797240137E-02
 0.11012574987E-01 0.15100787296E-01 0.20535228195E-01 0.27288701687E-01 0.35120050900E-01
 0.43709816254E-01 0.52512014736E-01 0.60706862169E-01 0.67397196922E-01 0.71782118956E-01
 0.36170841310E-01 0.35463415382E-01 0.33434228206E-01 0.30332550586E-01 0.26510151974E-01
 0.22347516759E-01 0.18166980593E-01 0.14317214801E-01 0.11040914087E-01 0.84326379090E-02
 0.65435191901E-02 0.54859840299E-02 0.54084526542E-02 0.65953864659E-02 0.96552679574E-02
 0.15691361983E-01 0.26392695661E-01 0.44557088781E-01 0.74479241441E-01 0.12228992994E+00
 0.19626694092E+00 0.30684292400E+00 0.46511300570E+00 0.68103272465E+00 0.95926877474E+00
 0.12937404618E+01 0.16639997018E+01 0.20332962303E+01 0.23527868384E+01 0.25704454464E+01
 0.26479372690E+01 0.25704428128E+01 0.23527873686E+01 0.20332903227E+01 0.16640044493E+01
 0.12937445731E+01 0.95927081184E+00 0.68104096762E+00 0.46511802967E+00 0.30684464213E+00
 0.19627845741E+00 0.12228874685E+00 0.74468697847E-01 0.44557377202E-01 0.26377013063E-01
 0.15689733408E-01 0.96769018805E-02 0.65998220629E-02 0.53923585507E-02 0.54812164503E-02
 0.65337936369E-02 0.84314933990E-02 0.11053844502E-01 0.14323968104E-01 0.18176948300E-01
 0.22353394946E-01 0.26516931471E-01 0.30330525697E-01 0.33430615627E-01 0.35463302771E-01
 0.18427140950E-01 0.18088372135E-01 0.17107607052E-01 0.15589665984E-01 0.13704189857E-01
 0.11652592307E-01 0.96417772912E-02 0.77967336041E-02 0.61986194344E-02 0.49916995599E-02
 0.43643898237E-02 0.43994618149E-02 0.54859840340E-02 0.81884601109E-02 0.13585665795E-01
 0.23512899172E-01 0.41120605123E-01 0.71379547587E-01 0.12228992994E+00 0.20556855863E+00
 0.33790777354E+00 0.54083973272E+00 0.83962875865E+00 0.12584756718E+01 0.18124910129E+01
 0.24954904354E+01 0.32688833537E+01 0.40551032362E+01 0.47445918341E+01 0.52203280216E+01
 0.53903292148E+01 0.52203331725E+01 0.47445950625E+01 0.40551012887E+01 0.32688781127E+01
 0.24954930506E+01 0.18124946576E+01 0.12584602311E+01 0.83962787324E+00 0.54082436884E+00
 0.33790525582E+00 0.20555343578E+00 0.12228874685E+00 0.71392513018E-01 0.41118129180E-01
 0.23521472049E-01 0.13587395294E-01 0.81797240163E-02 0.54812164504E-02 0.43976083620E-02
 0.43632125315E-02 0.50133563256E-02 0.62049338176E-02 0.78029059040E-02 0.96480572304E-02
 0.11654304335E-01 0.13708302953E-01 0.15594122523E-01 0.17110271247E-01 0.18086885714E-01
 0.98881192412E-02 0.97211723362E-02 0.92277134918E-02 0.84880758297E-02 0.75693367411E-02
 0.65541301986E-02 0.55088086205E-02 0.45467292989E-02 0.38326692182E-02 0.34213369289E-02
 0.34663108202E-02 0.43643898252E-02 0.65435191926E-02 0.11015362794E-01 0.19485878369E-01
 0.35077580109E-01 0.62985827961E-01 0.11199972542E+00 0.19626694092E+00 0.33790777355E+00
 0.56898580238E+00 0.93384563489E+00 0.14865831377E+01 0.22846995576E+01 0.33699579665E+01
 0.47445295766E+01 0.63388977662E+01 0.79929548909E+01 0.94673738238E+01 0.10495937754E+02
 0.10865779725E+02 0.10495941981E+02 0.94673596415E+01 0.79929537775E+01 0.63389095827E+01
 0.47445354303E+01 0.33699528646E+01 0.22847092056E+01 0.14865751245E+01 0.93384838529E+00
 0.56899021374E+00 0.33790525582E+00 0.19627845740E+00 0.11199970641E+00 0.62969248756E-01
 0.35079033943E-01 0.19493519490E-01 0.11012574983E-01 0.65337936369E-02 0.43632125333E-02
 0.34878604039E-02 0.34264990372E-02 0.38274574721E-02 0.45469447645E-02 0.54966110701E-02
 0.65521806669E-02 0.75665788176E-02 0.84901911642E-02 0.92289797521E-02 0.97213283512E-02
 0.61382628540E-02 0.60287539935E-02 0.57519870124E-02 0.52950588590E-02 0.47380795144E-02
 0.41177973298E-02 0.35634931642E-02 0.31059304211E-02 0.27910060492E-02 0.28141328283E-02
 0.34213369312E-02 0.49916995602E-02 0.84326379034E-02 0.15120478308E-01 0.27774910977E-01
 0.51228244408E-01 0.94139376171E-01 0.17110270569E+00 0.30684292399E+00 0.54083973272E+00
 0.93384563489E+00 0.15725029622E+01 0.25704599274E+01 0.40549966255E+01 0.61351755474E+01
 0.88439561816E+01 0.12065596985E+02 0.15479000304E+02 0.18572114443E+02 0.20752837419E+02
 0.21541765642E+02 0.20752854673E+02 0.18572112933E+02 0.15478999520E+02 0.12065587619E+02
 0.88439652733E+01 0.61351768614E+01 0.40549773484E+01 0.25704653387E+01 0.15724874355E+01
 0.93384838529E+00 0.54082436884E+00 0.30684464213E+00 0.17109308903E+00 0.94137790658E-01
 0.51247811684E-01 0.27775474793E-01 0.15100787294E-01 0.84314933929E-02 0.50133563302E-02
 0.34264990401E-02 0.28047264760E-02 0.27882598800E-02 0.30889617476E-02 0.35590931146E-02
 0.41089678017E-02 0.47304080552E-02 0.52914426663E-02 0.57524257546E-02 0.60303587545E-02
 0.45358362961E-02 0.44678066860E-02 0.42697061453E-02 0.39732935523E-02 0.36078923468E-02
 0.32128479152E-02 0.28146137131E-02 0.25091545398E-02 0.24710138405E-02 0.27910060473E-02
 0.38326692195E-02 0.61986194338E-02 0.11040914086E-01 0.20538547018E-01 0.38696115437E-01
 0.72890606691E-01 0.13662641943E+00 0.25365766003E+00 0.46511300571E+00 0.83962875865E+00
 0.14865831377E+01 0.25704599274E+01 0.43163152945E+01 0.69958063749E+01 0.10865766320E+02
 0.16048590254E+02 0.22363945322E+02 0.29187395691E+02 0.35458408362E+02 0.39919427655E+02
 0.41539434142E+02 0.39919428966E+02 0.35458382428E+02 0.29187398331E+02 0.22363965983E+02
 0.16048586244E+02 0.10865771995E+02 0.69958142264E+01 0.43162997341E+01 0.25704653387E+01
 0.14865751245E+01 0.83962787324E+00 0.46511802968E+00 0.25365917063E+00 0.13662437232E+00
 0.72897322377E-01 0.38682019844E-01 0.20535228195E-01 0.11053844491E-01 0.62049338130E-02
 0.38274574780E-02 0.27882598794E-02 0.24541258475E-02 0.25064714906E-02 0.28100579838E-02
 0.32094372169E-02 0.36062489469E-02 0.39686457001E-02 0.42673725678E-02 0.44685868872E-02
 0.42297095793E-02 0.41929735123E-02 0.39804437055E-02 0.37126899785E-02 0.33154027107E-02
 0.29590264865E-02 0.26244115679E-02 0.24865798958E-02 0.25091545436E-02 0.31059304247E-02
 0.45467293060E-02 0.77967336070E-02 0.14317214801E-01 0.27295501690E-01 0.52315515010E-01
 0.10048450643E+00 0.19181300645E+00 0.36352136692E+00 0.68103272466E+00 0.12584756718E+01
 0.22846995576E+01 0.40549966255E+01 0.69958063749E+01 0.11649906043E+02 0.18572057762E+02
 0.28085525511E+02 0.39919457860E+02 0.52885274298E+02 0.64888518508E+02 0.73449012748E+02
 0.76558850424E+02 0.73449049170E+02 0.64888520523E+02 0.52885260789E+02 0.39919448085E+02
 0.28085548498E+02 0.18572050640E+02 0.11649897900E+02 0.69958142264E+01 0.40549773484E+01
 0.22847092056E+01 0.12584602311E+01 0.68104096763E+00 0.36351027511E+00 0.19181562861E+00
 0.10049112291E+00 0.52314784444E-01 0.27288701691E-01 0.14323968101E-01 0.78029059053E-02
 0.45469447649E-02 0.30889617456E-02 0.25064714923E-02 0.24842222123E-02 0.26248975167E-02
 0.29615206830E-02 0.33147374485E-02 0.37115106231E-02 0.39792500473E-02 0.41927898125E-02
 0.44265183680E-02 0.43390520504E-02 0.41684292120E-02 0.38570360456E-02 0.35306608169E-02
 0.31464940741E-02 0.28306002231E-02 0.26244115718E-02 0.28146137226E-02 0.35634931707E-02
 0.55088086280E-02 0.96417772882E-02 0.18166980593E-01 0.35122681165E-01 0.68541246067E-01
 0.13363671810E+00 0.25978730933E+00 0.50139550710E+00 0.95926877475E+00 0.18124910129E+01
 0.33699579665E+01 0.61351755474E+01 0.10865766320E+02 0.18572057762E+02 0.30337129026E+02
 0.46842912951E+02 0.67618821255E+02 0.90429675157E+02 0.11145064279E+03 0.12636920486E+03
 0.13178042542E+03 0.12636919850E+03 0.11145061783E+03 0.90429682789E+02 0.67618821784E+02
 0.46842899093E+02 0.30337166412E+02 0.18572050640E+02 0.10865771995E+02 0.61351768614E+01
 0.33699528647E+01 0.18124946576E+01 0.95927081185E+00 0.50140188887E+00 0.25978340077E+00
 0.13364538893E+00 0.68529247876E-01 0.35120050896E-01 0.18176948303E-01 0.96480572264E-02
 0.54966110762E-02 0.35590931166E-02 0.28100579933E-02 0.26248975199E-02 0.28351173492E-02
 0.31510696805E-02 0.35338381499E-02 0.38563673960E-02 0.41664382217E-02 0.43376813764E-02
 0.50157988902E-02 0.49018372043E-02 0.47158302867E-02 0.43287211299E-02 0.39342344669E-02
 0.34503940260E-02 0.31464940695E-02 0.29590264833E-02 0.32128479150E-02 0.41177973348E-02
 0.65541302048E-02 0.11652592306E-01 0.22347516759E-01 0.43713976693E-01 0.86547809007E-01
 0.17113128323E+00 0.33803450678E+00 0.66364265603E+00 0.12937404618E+01 0.24954904354E+01
 0.47445295766E+01 0.88439561816E+01 0.16048590254E+02 0.28085525511E+02 0.46842912951E+02
 0.73449045895E+02 0.10688332005E+03 0.14333106096E+03 0.17744762149E+03 0.20326507869E+03
 0.21331844012E+03 0.20326511654E+03 0.17744762139E+03 0.14333105211E+03 0.10688332442E+03
 0.73449050153E+02 0.46842899093E+02 0.28085548498E+02 0.16048586244E+02 0.88439652733E+01
 0.47445354303E+01 0.24954930506E+01 0.12937445731E+01 0.66363975535E+00 0.33803031312E+00
 0.17113606172E+00 0.86547775253E-01 0.43709816254E-01 0.22353394945E-01 0.11654304331E-01
 0.65521806737E-02 0.41089678001E-02 0.32094372117E-02 0.29615206888E-02 0.31510696815E-02
 0.34537156678E-02 0.39342816891E-02 0.43283661249E-02 0.47152376799E-02 0.49007418693E-02
 0.55715102954E-02 0.54763160215E-02 0.52343119861E-02 0.48491615050E-02 0.44084046442E-02
 0.39342344634E-02 0.35306608176E-02 0.33154027117E-02 0.36078923463E-02 0.47380795154E-02
 0.75693367478E-02 0.13704189853E-01 0.26510151969E-01 0.52520643073E-01 0.10507086339E+00
 0.21048198721E+00 0.42121122824E+00 0.83970634016E+00 0.16639997018E+01 0.32688833536E+01
 0.63388977662E+01 0.12065596985E+02 0.22363945322E+02 0.39919457860E+02 0.67618821255E+02
 0.10688332005E+03 0.15596946116E+03 0.21331843994E+03 0.28653661452E+03 0.37522915652E+03
 0.42215835439E+03 0.37522915292E+03 0.28653662328E+03 0.21331844611E+03 0.15596941422E+03
 0.10688332442E+03 0.67618821784E+02 0.39919448085E+02 0.22363965983E+02 0.12065587619E+02
 0.63389095827E+01 0.32688781127E+01 0.16640044493E+01 0.83970288797E+00 0.42121234800E+00
 0.21048250212E+00 0.10507249923E+00 0.52512014740E-01 0.26516931470E-01 0.13708302957E-01
 0.75665788213E-02 0.47304080627E-02 0.36062489453E-02 0.33147374481E-02 0.35338381498E-02
 0.39342816864E-02 0.44094577985E-02 0.48486635825E-02 0.52341359399E-02 0.54756244974E-02
 0.62189106490E-02 0.61552465500E-02 0.58348694671E-02 0.54278333881E-02 0.48491615095E-02