unknown system                          
   1.00000000000000     
     0.000000    2.840052    2.840052
     0.000000    2.840052   -2.840052
    -2.840052    0.000000   -2.840052
   Fe
     4
Direct
  0.500000  0.500000  0.000000
  0.750000  0.750000  0.500000
  0.000000  0.000000  0.000000
  0.250000  0.250000  0.500000
 
   60   60   60
 0.14968761616E+04 0.34259385945E+04 0.54161839852E+03 0.67690225141E+03 0.90737562981E+03
 0.79625876353E+03 0.57293613264E+03 0.37647396664E+03 0.23853677409E+03 0.15031810815E+03
 0.96082153723E+02 0.63159233590E+02 0.43114163221E+02 0.30767712775E+02 0.23007102060E+02
 0.17988965231E+02 0.14835092763E+02 0.12720720775E+02 0.11292458644E+02 0.10360525062E+02
 0.97408499812E+01 0.93653006479E+01 0.91384101491E+01 0.90364612101E+01 0.90050674041E+01
 0.90320853244E+01 0.90734192797E+01 0.91321299799E+01 0.91765869552E+01 0.92148940329E+01
 0.92223547465E+01 0.92148940329E+01 0.91765869552E+01 0.91321299799E+01 0.90734192797E+01
 0.90320853244E+01 0.90050674041E+01 0.90364612101E+01 0.91384101491E+01 0.93653006479E+01
 0.97408499812E+01 0.10360525062E+02 0.11292458644E+02 0.12720720775E+02 0.14835092763E+02
 0.17988965231E+02 0.23007102060E+02 0.30767712775E+02 0.43114163221E+02 0.63159233590E+02
 0.96082153723E+02 0.15031810815E+03 0.23853677409E+03 0.37647396664E+03 0.57293613264E+03
 0.79625876353E+03 0.90737562981E+03 0.67690225141E+03 0.54161839852E+03 0.34259385945E+04
 0.34259385945E+04 0.16724114426E+04 0.45438455502E+03 0.74007823646E+03 0.90803721583E+03
 0.77571112323E+03 0.55473147054E+03 0.36472961645E+03 0.23175654082E+03 0.14655646101E+03
 0.94017558037E+02 0.62017959620E+02 0.42468953963E+02 0.30395767654E+02 0.22782290978E+02
 0.17857948418E+02 0.14747726608E+02 0.12661154908E+02 0.11252075525E+02 0.10330709772E+02
 0.97187629480E+01 0.93458930648E+01 0.91233391791E+01 0.90261605606E+01 0.89911595808E+01
 0.90162580727E+01 0.90599097320E+01 0.91226281985E+01 0.91685680650E+01 0.92078599856E+01
 0.92148940329E+01 0.92077649408E+01 0.91684276869E+01 0.91225253114E+01 0.90597735341E+01
 0.90160565287E+01 0.89908677318E+01 0.90260350034E+01 0.91234150894E+01 0.93461900573E+01
 0.97188525150E+01 0.10330462640E+02 0.11252010285E+02 0.12661404980E+02 0.14747547408E+02
 0.17858126567E+02 0.22782170804E+02 0.30395613530E+02 0.42468615760E+02 0.62018673456E+02
 0.94017975801E+02 0.14655846900E+03 0.23175657843E+03 0.36473332149E+03 0.55473084331E+03
 0.77571396106E+03 0.90803704614E+03 0.74007341750E+03 0.45438493629E+03 0.16724140683E+04
 0.54161839852E+03 0.45438455502E+03 0.60550117694E+03 0.86534558685E+03 0.88379290571E+03
 0.71267122264E+03 0.50326301981E+03 0.33197591980E+03 0.21280782918E+03 0.13600124515E+03
 0.88177850077E+02 0.58765632546E+02 0.40620327022E+02 0.29323559494E+02 0.22134127263E+02
 0.17473792949E+02 0.14493554522E+02 0.12488065115E+02 0.11134080068E+02 0.10243087267E+02
 0.96529383077E+01 0.92943346088E+01 0.90803216608E+01 0.89839502473E+01 0.89574499257E+01
 0.89853118760E+01 0.90282138295E+01 0.90861034722E+01 0.91312738924E+01 0.91685680650E+01
 0.91765869552E+01 0.91684276869E+01 0.91310778153E+01 0.90860785567E+01 0.90282077967E+01
 0.89852299347E+01 0.89571613185E+01 0.89837318941E+01 0.90799481473E+01 0.92943226243E+01
 0.96531364277E+01 0.10243514906E+02 0.11133577483E+02 0.12488185281E+02 0.14493557475E+02
 0.17473769051E+02 0.22133911364E+02 0.29324197907E+02 0.40620425172E+02 0.58765917133E+02
 0.88176249457E+02 0.13600108485E+03 0.21280518939E+03 0.33197610393E+03 0.50326088761E+03
 0.71267115113E+03 0.88379402581E+03 0.86534502705E+03 0.60550197628E+03 0.45438493629E+03
 0.67690225141E+03 0.74007823646E+03 0.86534558685E+03 0.90375508798E+03 0.79625172172E+03
 0.61082656789E+03 0.42791149520E+03 0.28480732160E+03 0.18538487322E+03 0.12053509188E+03
 0.79513862724E+02 0.53878223339E+02 0.37807505872E+02 0.27675718611E+02 0.20776229563E+02
 0.16865910612E+02 0.14093021113E+02 0.12213958038E+02 0.10947164234E+02 0.10103930943E+02
 0.95519771301E+01 0.92106034019E+01 0.90138073126E+01 0.89263027731E+01 0.89024733824E+01
 0.89288130978E+01 0.89771671161E+01 0.90376093700E+01 0.90861034722E+01 0.91226281985E+01
 0.91321299799E+01 0.91225253114E+01 0.90860785567E+01 0.90377293850E+01 0.89772374324E+01
 0.89288647889E+01 0.89024377709E+01 0.89261653858E+01 0.90131941454E+01 0.92099987790E+01
 0.95522182915E+01 0.10104574606E+02 0.10946957412E+02 0.12213551284E+02 0.14093489947E+02
 0.16865825936E+02 0.20776243053E+02 0.27675769705E+02 0.37806734891E+02 0.53878025714E+02
 0.79513815219E+02 0.12053492016E+03 0.18538524886E+03 0.28480597725E+03 0.42791225947E+03
 0.61082634448E+03 0.79625219436E+03 0.90375941650E+03 0.86534502705E+03 0.74007341750E+03
 0.90737562981E+03 0.90803721583E+03 0.88379290571E+03 0.79625172172E+03 0.65053492069E+03
 0.48715178409E+03 0.34247650416E+03 0.23173322297E+03 0.15415872213E+03 0.10261197320E+03
 0.69278224339E+02 0.47991644177E+02 0.34367818837E+02 0.25616111237E+02 0.19658146461E+02
 0.16081057228E+02 0.13578291978E+02 0.11859479192E+02 0.10704809704E+02 0.99251066933E+01
 0.94222425199E+01 0.91066392124E+01 0.89318521659E+01 0.88490446858E+01 0.88413879161E+01
 0.88709933384E+01 0.89233767207E+01 0.89771671161E+01 0.90282138295E+01 0.90599097320E+01
 0.90734192797E+01 0.90597735341E+01 0.90282077967E+01 0.89772374324E+01 0.89236302327E+01
 0.88710654826E+01 0.88418396742E+01 0.88490718282E+01 0.89316414609E+01 0.91057027061E+01
 0.94218564100E+01 0.99256004830E+01 0.10705644605E+02 0.11858472828E+02 0.13578442442E+02
 0.16081241644E+02 0.19658074389E+02 0.25615754380E+02 0.34368345093E+02 0.47991105120E+02
 0.69279384124E+02 0.10261102780E+03 0.15416058250E+03 0.23173231810E+03 0.34247598221E+03
 0.48715233819E+03 0.65053042201E+03 0.79625219436E+03 0.88379402581E+03 0.90803704614E+03
 0.79625876353E+03 0.77571112323E+03 0.71267122264E+03 0.61082656789E+03 0.48715178409E+03
 0.36470950991E+03 0.26037944063E+03 0.18043385074E+03 0.12339788987E+03 0.84515024699E+02
 0.58694791641E+02 0.41754048767E+02 0.30652111713E+02 0.23332996609E+02 0.18358902403E+02
 0.15184387618E+02 0.12980850019E+02 0.11451791665E+02 0.10423445557E+02 0.97212642729E+01
 0.92747095023E+01 0.89907925620E+01 0.88435568692E+01 0.87773172409E+01 0.87781346537E+01
 0.88093653966E+01 0.88709933384E+01 0.89288130978E+01 0.89853118760E+01 0.90162580727E+01
 0.90320853244E+01 0.90160565287E+01 0.89852299347E+01 0.89288647889E+01 0.88710654826E+01
 0.88098508461E+01 0.87787943950E+01 0.87777164540E+01 0.88431297583E+01 0.89896833828E+01
 0.92745156235E+01 0.97216096334E+01 0.10424044266E+02 0.11451227980E+02 0.12980867244E+02
 0.15184994699E+02 0.18358352692E+02 0.23332738549E+02 0.30652640774E+02 0.41754398056E+02
 0.58695424521E+02 0.84516085495E+02 0.12339742604E+03 0.18043614960E+03 0.26037810350E+03
 0.36470969117E+03 0.48715233819E+03 0.61082634448E+03 0.71267115113E+03 0.77571396106E+03
 0.57293613264E+03 0.55473147054E+03 0.50326301981E+03 0.42791149520E+03 0.34247650416E+03
 0.26037944063E+03 0.19046979648E+03 0.13594488206E+03 0.96003608871E+02 0.67933997176E+02
 0.48713205757E+02 0.35704437818E+02 0.26959507002E+02 0.20658853967E+02 0.16954846007E+02
 0.14240339753E+02 0.12339261344E+02 0.11021470137E+02 0.10118559696E+02 0.95109612248E+01
 0.91202833297E+01 0.88825361918E+01 0.87605236887E+01 0.87148945731E+01 0.87311589218E+01
 0.87781346537E+01 0.88413879161E+01 0.89024733824E+01 0.89574499257E+01 0.89911595808E+01
 0.90050674041E+01 0.89908677318E+01 0.89571613185E+01 0.89024377709E+01 0.88418396742E+01
 0.87787943950E+01 0.87318081239E+01 0.87149106981E+01 0.87598233988E+01 0.88820658552E+01
 0.91190239778E+01 0.95116900713E+01 0.10119618240E+02 0.11021167274E+02 0.12337978583E+02
 0.14241302478E+02 0.16954294904E+02 0.20659705690E+02 0.26959767763E+02 0.35704773647E+02
 0.48712724069E+02 0.67934097578E+02 0.96004431681E+02 0.13594403870E+03 0.19047363474E+03
 0.26037810350E+03 0.34247598221E+03 0.42791225947E+03 0.50326088761E+03 0.55473084331E+03
 0.37647396664E+03 0.36472961645E+03 0.33197591980E+03 0.28480732160E+03 0.23173322297E+03
 0.18043385074E+03 0.13594488206E+03 0.10031127239E+03 0.73368111642E+02 0.53778746499E+02
 0.39909454074E+02 0.30218355184E+02 0.23490314226E+02 0.18676105064E+02 0.15548805740E+02
 0.13296763276E+02 0.11694796287E+02 0.10589482467E+02 0.98169331314E+01 0.93071208046E+01
 0.89772804268E+01 0.87923069831E+01 0.86995070714E+01 0.86887149737E+01 0.87148945731E+01
 0.87773172409E+01 0.88490446858E+01 0.89263027731E+01 0.89839502473E+01 0.90261605606E+01
 0.90364612101E+01 0.90260350034E+01 0.89837318941E+01 0.89261653858E+01 0.88490718282E+01
 0.87777164540E+01 0.87149106981E+01 0.86882379878E+01 0.86992074516E+01 0.87904093994E+01
 0.89773787431E+01 0.93080006828E+01 0.98176084447E+01 0.10588496334E+02 0.11694797617E+02
 0.13297544834E+02 0.15549194486E+02 0.18674924611E+02 0.23491209265E+02 0.30216470334E+02
 0.39910603197E+02 0.53776558118E+02 0.73368963658E+02 0.10031056476E+03 0.13594403870E+03
 0.18043614960E+03 0.23173231810E+03 0.28480597725E+03 0.33197610393E+03 0.36473332149E+03
 0.23853677409E+03 0.23175654082E+03 0.21280782918E+03 0.18538487322E+03 0.15415872213E+03
 0.12339788987E+03 0.96003608871E+02 0.73368111642E+02 0.55643130162E+02 0.42319196689E+02
 0.32526309789E+02 0.25477970287E+02 0.20109786134E+02 0.16756464862E+02 0.14230717740E+02
 0.12392364267E+02 0.11091259781E+02 0.10173136699E+02 0.95418291857E+01 0.91245380319E+01
 0.88685616465E+01 0.87328527804E+01 0.86869761382E+01 0.86995070714E+01 0.87605236887E+01
 0.88435568692E+01 0.89318521659E+01 0.90138073126E+01 0.90803216608E+01 0.91233391791E+01
 0.91384101491E+01 0.91234150894E+01 0.90799481473E+01 0.90131941454E+01 0.89316414609E+01
 0.88431297583E+01 0.87598233988E+01 0.86992074516E+01 0.86850442982E+01 0.87326387312E+01
 0.88683781019E+01 0.91251933920E+01 0.95428637767E+01 0.10172787078E+02 0.11090053584E+02
 0.12393098777E+02 0.14230247679E+02 0.16756656470E+02 0.20110150078E+02 0.25477853063E+02
 0.32525393368E+02 0.42319894884E+02 0.55641450234E+02 0.73368963658E+02 0.96004431681E+02
 0.12339742604E+03 0.15416058250E+03 0.18538524886E+03 0.21280518939E+03 0.23175657843E+03
 0.15031810815E+03 0.14655646101E+03 0.13600124515E+03 0.12053509188E+03 0.10261197320E+03
 0.84515024699E+02 0.67933997176E+02 0.53778746499E+02 0.42319196689E+02 0.33367218440E+02
 0.26586277889E+02 0.21074599846E+02 0.17684591512E+02 0.15023183125E+02 0.13032707488E+02
 0.11575885536E+02 0.10538637454E+02 0.98065158050E+01 0.93079718895E+01 0.89850667536E+01
 0.88072775933E+01 0.87297748644E+01 0.87328527804E+01 0.87923069831E+01 0.88825361918E+01
 0.89907925620E+01 0.91066392124E+01 0.92106034019E+01 0.92943346088E+01 0.93458930648E+01
 0.93653006479E+01 0.93461900573E+01 0.92943226243E+01 0.92099987790E+01 0.91057027061E+01
 0.89896833828E+01 0.88820658552E+01 0.87904093994E+01 0.87326387312E+01 0.87291692558E+01
 0.88078608454E+01 0.89871940449E+01 0.93077694696E+01 0.98044402959E+01 0.10538750247E+02
 0.11577840162E+02 0.13032538043E+02 0.15022387057E+02 0.17684678883E+02 0.21072784632E+02
 0.26586651542E+02 0.33365268344E+02 0.42319894884E+02 0.53776558118E+02 0.67934097578E+02
 0.84516085495E+02 0.10261102780E+03 0.12053492016E+03 0.13600108485E+03 0.14655846900E+03
 0.96082153723E+02 0.94017558037E+02 0.88177850077E+02 0.79513862724E+02 0.69278224339E+02
 0.58694791641E+02 0.48713205757E+02 0.39909454074E+02 0.32526309789E+02 0.26586277889E+02
 0.21899805946E+02 0.18188426078E+02 0.15556598054E+02 0.13523513475E+02 0.11993171711E+02
 0.10871446935E+02 0.10061476470E+02 0.95025164530E+01 0.91324477731E+01 0.89145205012E+01
 0.88109354222E+01 0.88072775933E+01 0.88685616465E+01 0.89772804268E+01 0.91202833297E+01
 0.92747095023E+01 0.94222425199E+01 0.95519771301E+01 0.96529383077E+01 0.97187629480E+01
 0.97408499812E+01 0.97188525150E+01 0.96531364277E+01 0.95522182915E+01 0.94218564100E+01
 0.92745156235E+01 0.91190239778E+01 0.89773787431E+01 0.88683781019E+01 0.88078608454E+01
 0.88131363723E+01 0.89142456431E+01 0.91310927336E+01 0.95023074362E+01 0.10062707181E+02
 0.10871526836E+02 0.11991346037E+02 0.13523477920E+02 0.15557450740E+02 0.18188077959E+02
 0.21900240190E+02 0.26586651542E+02 0.32525393368E+02 0.39910603197E+02 0.48712724069E+02
 0.58695424521E+02 0.69279384124E+02 0.79513815219E+02 0.88176249457E+02 0.94017975801E+02
 0.63159233590E+02 0.62017959620E+02 0.58765632546E+02 0.53878223339E+02 0.47991644177E+02
 0.41754048767E+02 0.35704437818E+02 0.30218355184E+02 0.25477970287E+02 0.21074599846E+02
 0.18188426078E+02 0.15748077093E+02 0.13791020429E+02 0.12268108616E+02 0.11126642908E+02
 0.10281623519E+02 0.96825958181E+01 0.92783685650E+01 0.90361103227E+01 0.89219659770E+01
 0.89145205012E+01 0.89850667536E+01 0.91245380319E+01 0.93071208046E+01 0.95109612248E+01
 0.97212642729E+01 0.99251066933E+01 0.10103930943E+02 0.10243087267E+02 0.10330709772E+02
 0.10360525062E+02 0.10330462640E+02 0.10243514906E+02 0.10104574606E+02 0.99256004830E+01
 0.97216096334E+01 0.95116900713E+01 0.93080006828E+01 0.91251933920E+01 0.89871940449E+01
 0.89142456431E+01 0.89213707590E+01 0.90356867705E+01 0.92781122265E+01 0.96826804920E+01
 0.10281985454E+02 0.11126366924E+02 0.12269750215E+02 0.13790791942E+02 0.15746732511E+02
 0.18188077959E+02 0.21072784632E+02 0.25477853063E+02 0.30216470334E+02 0.35704773647E+02
 0.41754398056E+02 0.47991105120E+02 0.53878025714E+02 0.58765917133E+02 0.62018673456E+02
 0.43114163221E+02 0.42468953963E+02 0.40620327022E+02 0.37807505872E+02 0.34367818837E+02
 0.30652111713E+02 0.26959507002E+02 0.23490314226E+02 0.20109786134E+02 0.17684591512E+02
 0.15556598054E+02 0.13791020429E+02 0.12369622136E+02 0.11264815291E+02 0.10430031207E+02
 0.98219515169E+01 0.94035615830E+01 0.91516057491E+01 0.90361297119E+01 0.90361103227E+01
 0.91324477731E+01 0.93079718895E+01 0.95418291857E+01 0.98169331314E+01 0.10118559696E+02
 0.10423445557E+02 0.10704809704E+02 0.10947164234E+02 0.11134080069E+02 0.11252075525E+02
 0.11292458644E+02 0.11252010285E+02 0.11133577483E+02 0.10946957412E+02 0.10705644605E+02
 0.10424044266E+02 0.10119618240E+02 0.98176084447E+01 0.95428637767E+01 0.93077694696E+01
 0.91310927336E+01 0.90356867705E+01 0.90351446460E+01 0.91520075978E+01 0.94051804843E+01
 0.98217970296E+01 0.10429083276E+02 0.11264775143E+02 0.12368183046E+02 0.13790791942E+02
 0.15557450740E+02 0.17684678883E+02 0.20110150078E+02 0.23491209265E+02 0.26959767763E+02
 0.30652640774E+02 0.34368345093E+02 0.37806734891E+02 0.40620425172E+02 0.42468615760E+02
 0.30767712775E+02 0.30395767654E+02 0.29323559494E+02 0.27675718611E+02 0.25616111237E+02
 0.23332996609E+02 0.20658853967E+02 0.18676105064E+02 0.16756464862E+02 0.15023183125E+02
 0.13523513475E+02 0.12268108616E+02 0.11264815291E+02 0.10479539364E+02 0.98978018750E+01
 0.94933564432E+01 0.92436686601E+01 0.91326305075E+01 0.91516057491E+01 0.92783685650E+01
 0.95025164530E+01 0.98065158050E+01 0.10173136699E+02 0.10589482467E+02 0.11021470137E+02
 0.11451791665E+02 0.11859479192E+02 0.12213958038E+02 0.12488065115E+02 0.12661154908E+02
 0.12720720775E+02 0.12661404980E+02 0.12488185281E+02 0.12213551284E+02 0.11858472828E+02
 0.11451227980E+02 0.11021167274E+02 0.10588496334E+02 0.10172787078E+02 0.98044402959E+01
 0.95023074362E+01 0.92781122265E+01 0.91520075978E+01 0.91347310256E+01 0.92432875321E+01
 0.94912342286E+01 0.98978414094E+01 0.10480912688E+02 0.11264775143E+02 0.12269750215E+02
 0.13523477920E+02 0.15022387057E+02 0.16756656470E+02 0.18674924611E+02 0.20659705690E+02
 0.23332738549E+02 0.25615754380E+02 0.27675769705E+02 0.29324197907E+02 0.30395613530E+02
 0.23007102060E+02 0.22782290978E+02 0.22134127263E+02 0.20776229563E+02 0.19658146461E+02
 0.18358902403E+02 0.16954846007E+02 0.15548805740E+02 0.14230717740E+02 0.13032707488E+02
 0.11993171711E+02 0.11126642908E+02 0.10430031207E+02 0.98978018750E+01 0.95192104238E+01
 0.92932990285E+01 0.92050867183E+01 0.92436686601E+01 0.94035615830E+01 0.96825958181E+01
 0.10061476470E+02 0.10538637454E+02 0.11091259781E+02 0.11694796287E+02 0.12339261344E+02
 0.12980850019E+02 0.13578291978E+02 0.14093021113E+02 0.14493554522E+02 0.14747726608E+02
 0.14835092763E+02 0.14747547408E+02 0.14493557475E+02 0.14093489947E+02 0.13578442442E+02
 0.12980867244E+02 0.12337978583E+02 0.11694797617E+02 0.11090053584E+02 0.10538750247E+02
 0.10062707181E+02 0.96826804920E+01 0.94051804843E+01 0.92432875321E+01 0.92028090917E+01
 0.92933382743E+01 0.95215174777E+01 0.98978414094E+01 0.10429083276E+02 0.11126366924E+02
 0.11991346037E+02 0.13032538043E+02 0.14230247679E+02 0.15549194486E+02 0.16954294904E+02
 0.18358352692E+02 0.19658074389E+02 0.20776243053E+02 0.22133911364E+02 0.22782170804E+02
 0.17988965231E+02 0.17857948418E+02 0.17473792949E+02 0.16865910612E+02 0.16081057228E+02
 0.15184387618E+02 0.14240339753E+02 0.13296763276E+02 0.12392364267E+02 0.11575885536E+02
 0.10871446935E+02 0.10281623519E+02 0.98219515169E+01 0.94933564432E+01 0.92932990285E+01
 0.92245954287E+01 0.92932990285E+01 0.94933564432E+01 0.98219515169E+01 0.10281623519E+02
 0.10871446935E+02 0.11575885536E+02 0.12392364267E+02 0.13296763276E+02 0.14240339753E+02
 0.15184387618E+02 0.16081057228E+02 0.16865910612E+02 0.17473792949E+02 0.17857948418E+02
 0.17988965231E+02 0.17858126567E+02 0.17473769051E+02 0.16865825936E+02 0.16081241644E+02
 0.15184994699E+02 0.14241302478E+02 0.13297544834E+02 0.12393098777E+02 0.11577840162E+02
 0.10871526836E+02 0.10281985454E+02 0.98217970296E+01 0.94912342286E+01 0.92933382743E+01
 0.92271319647E+01 0.92933382743E+01 0.94912342286E+01 0.98217970296E+01 0.10281985454E+02
 0.10871526836E+02 0.11577840162E+02 0.12393098777E+02 0.13297544834E+02 0.14241302478E+02
 0.15184994699E+02 0.16081241644E+02 0.16865825936E+02 0.17473769051E+02 0.17858126567E+02
 0.14835092763E+02 0.14747726608E+02 0.14493554522E+02 0.14093021113E+02 0.13578291978E+02
 0.12980850019E+02 0.12339261344E+02 0.11694796287E+02 0.11091259781E+02 0.10538637454E+02
 0.10061476470E+02 0.96825958181E+01 0.94035615830E+01 0.92436686601E+01 0.92050867183E+01
 0.92932990285E+01 0.95192104238E+01 0.98978018750E+01 0.10430031207E+02 0.11126642908E+02
 0.11993171711E+02 0.13032707488E+02 0.14230717740E+02 0.15548805740E+02 0.16954846007E+02
 0.18358902403E+02 0.19658146461E+02 0.20776229563E+02 0.22134127263E+02 0.22782290978E+02
 0.23007102060E+02 0.22782170804E+02 0.22133911364E+02 0.20776243053E+02 0.19658074389E+02
 0.18358352692E+02 0.16954294904E+02 0.15549194486E+02 0.14230247679E+02 0.13032538043E+02
 0.11991346037E+02 0.11126366924E+02 0.10429083276E+02 0.98978414094E+01 0.95215174777E+01
 0.92933382743E+01 0.92028090917E+01 0.92432875321E+01 0.94051804843E+01 0.96826804920E+01
 0.10062707181E+02 0.10538750247E+02 0.11090053584E+02 0.11694797617E+02 0.12337978583E+02
 0.12980867244E+02 0.13578442442E+02 0.14093489947E+02 0.14493557475E+02 0.14747547408E+02
 0.12720720775E+02 0.12661154908E+02 0.12488065115E+02 0.12213958038E+02 0.11859479192E+02
 0.11451791665E+02 0.11021470137E+02 0.10589482467E+02 0.10173136699E+02 0.98065158050E+01
 0.95025164530E+01 0.92783685650E+01 0.91516057491E+01 0.91326305075E+01 0.92436686601E+01
 0.94933564432E+01 0.98978018750E+01 0.10479539364E+02 0.11264815291E+02 0.12268108616E+02
 0.13523513475E+02 0.15023183125E+02 0.16756464862E+02 0.18676105064E+02 0.20658853967E+02
 0.23332996609E+02 0.25616111237E+02 0.27675718611E+02 0.29323559494E+02 0.30395767654E+02
 0.30767712775E+02 0.30395613530E+02 0.29324197907E+02 0.27675769705E+02 0.25615754380E+02
 0.23332738549E+02 0.20659705690E+02 0.18674924611E+02 0.16756656470E+02 0.15022387057E+02
 0.13523477920E+02 0.12269750215E+02 0.11264775143E+02 0.10480912688E+02 0.98978414094E+01
 0.94912342286E+01 0.92432875321E+01 0.91347310256E+01 0.91520075978E+01 0.92781122265E+01
 0.95023074362E+01 0.98044402959E+01 0.10172787078E+02 0.10588496334E+02 0.11021167274E+02
 0.11451227980E+02 0.11858472828E+02 0.12213551284E+02 0.12488185281E+02 0.12661404980E+02
 0.11292458644E+02 0.11252075525E+02 0.11134080069E+02 0.10947164234E+02 0.10704809704E+02
 0.10423445557E+02 0.10118559696E+02 0.98169331314E+01 0.95418291857E+01 0.93079718895E+01
 0.91324477731E+01 0.90361103227E+01 0.90361297119E+01 0.91516057491E+01 0.94035615830E+01
 0.98219515169E+01 0.10430031207E+02 0.11264815291E+02 0.12369622136E+02 0.13791020429E+02
 0.15556598054E+02 0.17684591512E+02 0.20109786134E+02 0.23490314226E+02 0.26959507002E+02
 0.30652111713E+02 0.34367818837E+02 0.37807505872E+02 0.40620327022E+02 0.42468953963E+02
 0.43114163221E+02 0.42468615760E+02 0.40620425172E+02 0.37806734891E+02 0.34368345093E+02
 0.30652640774E+02 0.26959767763E+02 0.23491209265E+02 0.20110150078E+02 0.17684678883E+02
 0.15557450740E+02 0.13790791942E+02 0.12368183046E+02 0.11264775143E+02 0.10429083276E+02
 0.98217970296E+01 0.94051804843E+01 0.91520075978E+01 0.90351446460E+01 0.90356867705E+01
 0.91310927336E+01 0.93077694696E+01 0.95428637767E+01 0.98176084447E+01 0.10119618240E+02
 0.10424044266E+02 0.10705644605E+02 0.10946957412E+02 0.11133577483E+02 0.11252010285E+02
 0.10360525062E+02 0.10330709772E+02 0.10243087267E+02 0.10103930943E+02 0.99251066933E+01
 0.97212642729E+01 0.95109612248E+01 0.93071208046E+01 0.91245380319E+01 0.89850667536E+01
 0.89145205012E+01 0.89219659770E+01 0.90361103227E+01 0.92783685650E+01 0.96825958181E+01
 0.10281623519E+02 0.11126642908E+02 0.12268108616E+02 0.13791020429E+02 0.15748077093E+02
 0.18188426078E+02 0.21074599846E+02 0.25477970287E+02 0.30218355184E+02 0.35704437818E+02
 0.41754048767E+02 0.47991644177E+02 0.53878223339E+02 0.58765632546E+02 0.62017959620E+02
 0.63159233590E+02 0.62018673456E+02 0.58765917133E+02 0.53878025714E+02 0.47991105120E+02
 0.41754398056E+02 0.35704773647E+02 0.30216470334E+02 0.25477853063E+02 0.21072784632E+02
 0.18188077959E+02 0.15746732511E+02 0.13790791942E+02 0.12269750215E+02 0.11126366924E+02
 0.10281985454E+02 0.96826804920E+01 0.92781122265E+01 0.90356867705E+01 0.89213707590E+01
 0.89142456431E+01 0.89871940449E+01 0.91251933920E+01 0.93080006828E+01 0.95116900713E+01
 0.97216096334E+01 0.99256004830E+01 0.10104574606E+02 0.10243514906E+02 0.10330462640E+02
 0.97408499812E+01 0.97187629480E+01 0.96529383077E+01 0.95519771301E+01 0.94222425199E+01
 0.92747095023E+01 0.91202833297E+01 0.89772804268E+01 0.88685616465E+01 0.88072775933E+01
 0.88109354222E+01 0.89145205012E+01 0.91324477731E+01 0.95025164530E+01 0.10061476470E+02
 0.10871446935E+02 0.11993171711E+02 0.13523513475E+02 0.15556598054E+02 0.18188426078E+02
 0.21899805946E+02 0.26586277889E+02 0.32526309789E+02 0.39909454074E+02 0.48713205757E+02
 0.58694791641E+02 0.69278224339E+02 0.79513862724E+02 0.88177850077E+02 0.94017558037E+02
 0.96082153723E+02 0.94017975801E+02 0.88176249457E+02 0.79513815219E+02 0.69279384124E+02
 0.58695424521E+02 0.48712724069E+02 0.39910603197E+02 0.32525393368E+02 0.26586651542E+02
 0.21900240190E+02 0.18188077959E+02 0.15557450740E+02 0.13523477920E+02 0.11991346037E+02
 0.10871526836E+02 0.10062707181E+02 0.95023074362E+01 0.91310927336E+01 0.89142456431E+01
 0.88131363724E+01 0.88078608454E+01 0.88683781019E+01 0.89773787431E+01 0.91190239778E+01
 0.92745156235E+01 0.94218564100E+01 0.95522182915E+01 0.96531364277E+01 0.97188525150E+01
 0.93653006479E+01 0.93458930648E+01 0.92943346088E+01 0.92106034019E+01 0.91066392124E+01
 0.89907925620E+01 0.88825361918E+01 0.87923069831E+01 0.87328527804E+01 0.87297748644E+01
 0.88072775933E+01 0.89850667536E+01 0.93079718895E+01 0.98065158050E+01 0.10538637454E+02
 0.11575885536E+02 0.13032707488E+02 0.15023183125E+02 0.17684591512E+02 0.21074599846E+02
 0.26586277889E+02 0.33367218440E+02 0.42319196689E+02 0.53778746499E+02 0.67933997176E+02
 0.84515024699E+02 0.10261197320E+03 0.12053509188E+03 0.13600124515E+03 0.14655646101E+03
 0.15031810815E+03 0.14655846900E+03 0.13600108485E+03 0.12053492016E+03 0.10261102780E+03
 0.84516085495E+02 0.67934097578E+02 0.53776558118E+02 0.42319894884E+02 0.33365268344E+02
 0.26586651542E+02 0.21072784632E+02 0.17684678883E+02 0.15022387057E+02 0.13032538043E+02
 0.11577840162E+02 0.10538750247E+02 0.98044402959E+01 0.93077694696E+01 0.89871940449E+01
 0.88078608454E+01 0.87291692558E+01 0.87326387312E+01 0.87904093994E+01 0.88820658552E+01
 0.89896833828E+01 0.91057027061E+01 0.92099987790E+01 0.92943226243E+01 0.93461900573E+01
 0.91384101491E+01 0.91233391791E+01 0.90803216608E+01 0.90138073126E+01 0.89318521659E+01
 0.88435568692E+01 0.87605236887E+01 0.86995070714E+01 0.86869761382E+01 0.87328527804E+01
 0.88685616465E+01 0.91245380319E+01 0.95418291857E+01 0.10173136699E+02 0.11091259781E+02
 0.12392364267E+02 0.14230717740E+02 0.16756464862E+02 0.20109786134E+02 0.25477970287E+02
 0.32526309789E+02 0.42319196689E+02 0.55643130162E+02 0.73368111642E+02 0.96003608871E+02
 0.12339788987E+03 0.15415872213E+03 0.18538487322E+03 0.21280782918E+03 0.23175654082E+03
 0.23853677409E+03 0.23175657843E+03 0.21280518939E+03 0.18538524886E+03 0.15416058250E+03
 0.12339742604E+03 0.96004431681E+02 0.73368963658E+02 0.55641450234E+02 0.42319894884E+02
 0.32525393368E+02 0.25477853063E+02 0.20110150078E+02 0.16756656470E+02 0.14230247679E+02
 0.12393098777E+02 0.11090053584E+02 0.10172787078E+02 0.95428637767E+01 0.91251933920E+01
 0.88683781019E+01 0.87326387312E+01 0.86850442982E+01 0.86992074516E+01 0.87598233988E+01
 0.88431297583E+01 0.89316414609E+01 0.90131941454E+01 0.90799481473E+01 0.91234150894E+01
 0.90364612101E+01 0.90261605606E+01 0.89839502473E+01 0.89263027731E+01 0.88490446858E+01
 0.87773172409E+01 0.87148945731E+01 0.86887149737E+01 0.86995070714E+01 0.87923069831E+01
 0.89772804268E+01 0.93071208046E+01 0.98169331314E+01 0.10589482467E+02 0.11694796287E+02
 0.13296763276E+02 0.15548805740E+02 0.18676105064E+02 0.23490314226E+02 0.30218355184E+02
 0.39909454074E+02 0.53778746499E+02 0.73368111642E+02 0.10031127239E+03 0.13594488206E+03
 0.18043385074E+03 0.23173322297E+03 0.28480732160E+03 0.33197591980E+03 0.36472961645E+03
 0.37647396664E+03 0.36473332149E+03 0.33197610393E+03 0.28480597725E+03 0.23173231810E+03
 0.18043614960E+03 0.13594403870E+03 0.10031056476E+03 0.73368963658E+02 0.53776558118E+02
 0.39910603197E+02 0.30216470334E+02 0.23491209265E+02 0.18674924611E+02 0.15549194486E+02
 0.13297544834E+02 0.11694797617E+02 0.10588496334E+02 0.98176084447E+01 0.93080006828E+01
 0.89773787431E+01 0.87904093994E+01 0.86992074516E+01 0.86882379878E+01 0.87149106981E+01
 0.87777164540E+01 0.88490718282E+01 0.89261653858E+01 0.89837318941E+01 0.90260350034E+01
 0.90050674041E+01 0.89911595808E+01 0.89574499257E+01 0.89024733824E+01 0.88413879161E+01
 0.87781346537E+01 0.87311589218E+01 0.87148945731E+01 0.87605236887E+01 0.88825361918E+01
 0.91202833297E+01 0.95109612248E+01 0.10118559696E+02 0.11021470137E+02 0.12339261344E+02
 0.14240339753E+02 0.16954846007E+02 0.20658853967E+02 0.26959507002E+02 0.35704437818E+02
 0.48713205757E+02 0.67933997176E+02 0.96003608871E+02 0.13594488206E+03 0.19046979648E+03
 0.26037944063E+03 0.34247650416E+03 0.42791149520E+03 0.50326301981E+03 0.55473147054E+03
 0.57293613264E+03 0.55473084331E+03 0.50326088761E+03 0.42791225947E+03 0.34247598221E+03
 0.26037810350E+03 0.19047363474E+03 0.13594403870E+03 0.96004431681E+02 0.67934097578E+02
 0.48712724069E+02 0.35704773647E+02 0.26959767763E+02 0.20659705690E+02 0.16954294904E+02
 0.14241302478E+02 0.12337978583E+02 0.11021167274E+02 0.10119618240E+02 0.95116900713E+01
 0.91190239778E+01 0.88820658552E+01 0.87598233988E+01 0.87149106981E+01 0.87318081239E+01
 0.87787943950E+01 0.88418396742E+01 0.89024377709E+01 0.89571613185E+01 0.89908677318E+01
 0.90320853244E+01 0.90162580727E+01 0.89853118760E+01 0.89288130978E+01 0.88709933384E+01
 0.88093653966E+01 0.87781346537E+01 0.87773172409E+01 0.88435568692E+01 0.89907925620E+01
 0.92747095023E+01 0.97212642729E+01 0.10423445557E+02 0.11451791665E+02 0.12980850019E+02
 0.15184387618E+02 0.18358902403E+02 0.23332996609E+02 0.30652111713E+02 0.41754048767E+02
 0.58694791641E+02 0.84515024699E+02 0.12339788987E+03 0.18043385074E+03 0.26037944063E+03
 0.36470950991E+03 0.48715178409E+03 0.61082656789E+03 0.71267122264E+03 0.77571112323E+03
 0.79625876353E+03 0.77571396106E+03 0.71267115113E+03 0.61082634448E+03 0.48715233819E+03
 0.36470969117E+03 0.26037810350E+03 0.18043614960E+03 0.12339742604E+03 0.84516085495E+02
 0.58695424521E+02 0.41754398056E+02 0.30652640774E+02 0.23332738549E+02 0.18358352692E+02
 0.15184994699E+02 0.12980867244E+02 0.11451227980E+02 0.10424044266E+02 0.97216096334E+01
 0.92745156235E+01 0.89896833828E+01 0.88431297583E+01 0.87777164540E+01 0.87787943950E+01
 0.88098508461E+01 0.88710654826E+01 0.89288647889E+01 0.89852299347E+01 0.90160565287E+01
 0.90734192797E+01 0.90599097320E+01 0.90282138295E+01 0.89771671161E+01 0.89233767207E+01
 0.88709933384E+01 0.88413879161E+01 0.88490446858E+01 0.89318521659E+01 0.91066392124E+01
 0.94222425199E+01 0.99251066933E+01 0.10704809704E+02 0.11859479192E+02 0.13578291978E+02
 0.16081057228E+02 0.19658146461E+02 0.25616111237E+02 0.34367818837E+02 0.47991644177E+02
 0.69278224339E+02 0.10261197320E+03 0.15415872213E+03 0.23173322297E+03 0.34247650416E+03
 0.48715178409E+03 0.65053492069E+03 0.79625172172E+03 0.88379290571E+03 0.90803721583E+03
 0.90737562981E+03 0.90803704614E+03 0.88379402581E+03 0.79625219436E+03 0.65053042201E+03
 0.48715233819E+03 0.34247598221E+03 0.23173231810E+03 0.15416058250E+03 0.10261102780E+03
 0.69279384124E+02 0.47991105120E+02 0.34368345093E+02 0.25615754380E+02 0.19658074389E+02
 0.16081241644E+02 0.13578442442E+02 0.11858472828E+02 0.10705644605E+02 0.99256004830E+01
 0.94218564100E+01 0.91057027061E+01 0.89316414609E+01 0.88490718282E+01 0.88418396742E+01
 0.88710654826E+01 0.89236302327E+01 0.89772374324E+01 0.90282077967E+01 0.90597735341E+01
 0.91321299799E+01 0.91226281985E+01 0.90861034722E+01 0.90376093700E+01 0.89771671161E+01