=========================================
SLURM_JOB_ID = 63461687
SLURM_JOB_NODELIST = lnode15
SLURM_GPUS = 
SLURM_CPUS_ON_NODE = 16
SLURM_JOB_PARTITION = lenovo
SLURM_TASK_PID = 463037
CUDA_VISIBLE_DEVICES = 
==========================================
 running on   16 total cores
 distrk:  each k-point on   16 cores,    1 groups
 distr:  one band on    4 cores,    4 groups
 using from now: INCAR     
 vasp.5.4.4.18Apr17-6-g9f103f2a35 (build Apr 28 2018 00:24:27) complex          
  
 POSCAR found type information on POSCAR  Fe O 
 POSCAR found :  2 types and      10 ions
 scaLAPACK will be used
 LDA part: xc-table for Pade appr. of Perdew
 POSCAR, INCAR and KPOINTS ok, starting setup
 FFT: planning ...
 WAVECAR not read
 entering main loop
       N       E                     dE             d eps       ncg     rms          rms(c)
DAV:   1     0.142008515137E+04    0.14201E+04   -0.51344E+04 45320   0.217E+03
DAV:   2     0.136078542789E+03   -0.12840E+04   -0.11913E+04 44848   0.626E+02
DAV:   3    -0.732090810332E+02   -0.20929E+03   -0.19384E+03 48672   0.240E+02
DAV:   4    -0.863077207084E+02   -0.13099E+02   -0.13003E+02 48600   0.591E+01
DAV:   5    -0.864930038043E+02   -0.18528E+00   -0.18494E+00 49264   0.801E+00    0.506E+01
DAV:   6    -0.613403159702E+02    0.25153E+02   -0.11856E+02 54720   0.104E+02    0.518E+01
DAV:   7    -0.663256332182E+02   -0.49853E+01   -0.22488E+01 45568   0.310E+01    0.297E+01
DAV:   8    -0.662844348491E+02    0.41198E-01   -0.43078E+00 56740   0.139E+01    0.212E+01
DAV:   9    -0.661052951247E+02    0.17914E+00   -0.19459E+00 47184   0.150E+01    0.960E+00
DAV:  10    -0.661793500093E+02   -0.74055E-01   -0.23309E-01 49968   0.470E+00    0.208E+00
DAV:  11    -0.661819843279E+02   -0.26343E-02   -0.25322E-02 47172   0.108E+00    0.143E+00
DAV:  12    -0.661674786939E+02    0.14506E-01   -0.51789E-02 47272   0.213E+00    0.525E-01
DAV:  13    -0.661684083044E+02   -0.92961E-03   -0.24076E-02 47316   0.817E-01    0.250E-01
DAV:  14    -0.661683051732E+02    0.10313E-03   -0.24352E-03 46984   0.282E-01    0.270E-01
DAV:  15    -0.661683738464E+02   -0.68673E-04   -0.12218E-04 47392   0.961E-02    0.337E-02
DAV:  16    -0.661683650132E+02    0.88333E-05   -0.74815E-05 47144   0.445E-02    0.473E-02
DAV:  17    -0.661683596477E+02    0.53655E-05   -0.17736E-05 49468   0.261E-02    0.176E-02
DAV:  18    -0.661683594849E+02    0.16281E-06   -0.59407E-06 47160   0.127E-02    0.124E-02
DAV:  19    -0.661683596465E+02   -0.16162E-06   -0.95703E-07 45172   0.101E-02    0.670E-03
DAV:  20    -0.661683597627E+02   -0.11625E-06   -0.10009E-07 25636   0.246E-03    0.221E-03
DAV:  21    -0.661683597798E+02   -0.17080E-07   -0.25859E-08 25016   0.132E-03
   1 F= -.66168360E+02 E0= -.66168360E+02  d E =0.000000E+00  mag=    -0.0000
