=========================================
SLURM_JOB_ID = 63457033
SLURM_JOB_NODELIST = lnode23
SLURM_GPUS = 
SLURM_CPUS_ON_NODE = 8
SLURM_JOB_PARTITION = lenovo
SLURM_TASK_PID = 3766545
CUDA_VISIBLE_DEVICES = 
==========================================
 running on    8 total cores
 distrk:  each k-point on    8 cores,    1 groups
 distr:  one band on    4 cores,    2 groups
 using from now: INCAR     
 vasp.5.4.4.18Apr17-6-g9f103f2a35 (build Apr 28 2018 00:24:27) complex          
  
 POSCAR found type information on POSCAR  Eu S 
 POSCAR found :  2 types and       2 ions
 scaLAPACK will be used

 ----------------------------------------------------------------------------- 
|                                                                             |
|  ADVICE TO THIS USER RUNNING 'VASP/VAMP'   (HEAR YOUR MASTER'S VOICE ...):  |
|                                                                             |
|      You have a (more or less) 'small supercell' and for smaller cells      |
|      it is recommended  to use the reciprocal-space projection scheme!      |
|      The real space optimization is not  efficient for small cells and it   |
|      is also less accurate ...                                              |
|      Therefore set LREAL=.FALSE. in the  INCAR file                         |
|                                                                             |
 ----------------------------------------------------------------------------- 

 LDA part: xc-table for Pade appr. of Perdew
 POSCAR, INCAR and KPOINTS ok, starting setup
 FFT: planning ...
 WAVECAR not read
 entering main loop
       N       E                     dE             d eps       ncg     rms          rms(c)
DAV:   1     0.172334156043E+03    0.17233E+03   -0.11413E+04  1828   0.281E+03
DAV:   2     0.497353064057E+01   -0.16736E+03   -0.14774E+03  1792   0.289E+02
DAV:   3    -0.149080829752E+02   -0.19882E+02   -0.19281E+02  1876   0.110E+02
DAV:   4    -0.159939394052E+02   -0.10859E+01   -0.10731E+01  2584   0.228E+01
DAV:   5    -0.160332476815E+02   -0.39308E-01   -0.39129E-01  2316   0.361E+00    0.132E+01
DAV:   6    -0.202074520580E+02   -0.41742E+01   -0.46495E+01  2320   0.681E+01    0.177E+01
DAV:   7    -0.190862943974E+02    0.11212E+01   -0.28755E+00  1960   0.389E+01    0.656E+00
DAV:   8    -0.187622500319E+02    0.32404E+00   -0.14309E+00  2696   0.143E+01    0.253E+00
DAV:   9    -0.188344445142E+02   -0.72194E-01   -0.13721E+00  2172   0.989E+00    0.334E+00
DAV:  10    -0.187496304100E+02    0.84814E-01   -0.79931E-01  2076   0.737E+00    0.104E+00
DAV:  11    -0.187621619571E+02   -0.12532E-01   -0.19400E-02  2460   0.101E+00    0.541E-01
DAV:  12    -0.187607317078E+02    0.14302E-02   -0.52527E-03  2528   0.701E-01    0.511E-01
DAV:  13    -0.187590378519E+02    0.16939E-02   -0.44721E-03  2368   0.562E-01    0.270E-01
DAV:  14    -0.187587690979E+02    0.26875E-03   -0.13956E-03  2640   0.307E-01    0.158E-01
DAV:  15    -0.187588355583E+02   -0.66460E-04   -0.20503E-03  2092   0.380E-01    0.101E-02
DAV:  16    -0.187588390411E+02   -0.34828E-05   -0.91788E-05  2468   0.487E-02    0.104E-02
DAV:  17    -0.187588387598E+02    0.28122E-06   -0.32781E-06  2432   0.861E-03    0.958E-03
DAV:  18    -0.187588485971E+02   -0.98373E-05   -0.13953E-06  2540   0.994E-03    0.122E-02
DAV:  19    -0.187588326429E+02    0.15954E-04   -0.28980E-06  2068   0.146E-02    0.530E-03
DAV:  20    -0.187588259881E+02    0.66548E-05   -0.79580E-07  1784   0.728E-03    0.240E-03
DAV:  21    -0.187588248561E+02    0.11320E-05   -0.71326E-08  1048   0.231E-03    0.175E-03
DAV:  22    -0.187588261922E+02   -0.13361E-05   -0.44833E-08   944   0.246E-03    0.104E-03
DAV:  23    -0.187588270617E+02   -0.86944E-06   -0.23289E-08   916   0.140E-03    0.384E-04
DAV:  24    -0.187588276928E+02   -0.63118E-06   -0.12290E-08   908   0.897E-04    0.854E-05
DAV:  25    -0.187588278078E+02   -0.11501E-06   -0.35672E-09   908   0.595E-04    0.103E-04
DAV:  26    -0.187588278017E+02    0.61091E-08   -0.16579E-09   896   0.384E-04
   1 F= -.18758828E+02 E0= -.18758828E+02  d E =0.000000E+00  mag=     6.9956
