=========================================
SLURM_JOB_ID = 51706441
SLURM_JOB_NODELIST = lnode32
SLURM_GPUS = 
SLURM_CPUS_ON_NODE = 24
SLURM_JOB_PARTITION = lenovo
SLURM_TASK_PID = 407691
CUDA_VISIBLE_DEVICES = 
==========================================
 running on   24 total cores
 distrk:  each k-point on   24 cores,    1 groups
 distr:  one band on    4 cores,    6 groups
 using from now: INCAR     
 vasp.5.4.4.18Apr17-6-g9f103f2a35 (build Apr 28 2018 00:24:27) complex          
  
 POSCAR found type information on POSCAR  Fe O 
 POSCAR found :  2 types and      30 ions
 scaLAPACK will be used
 LDA part: xc-table for Pade appr. of Perdew
 POSCAR, INCAR and KPOINTS ok, starting setup
 FFT: planning ...
 WAVECAR not read
 entering main loop
       N       E                     dE             d eps       ncg     rms          rms(c)
DAV:   1     0.418113474988E+04    0.41811E+04   -0.13777E+05 11616   0.188E+03
DAV:   2     0.412467721687E+03   -0.37687E+04   -0.34190E+04 11424   0.537E+02
DAV:   3    -0.254707834939E+03   -0.66718E+03   -0.60167E+03 12000   0.226E+02
DAV:   4    -0.293980161528E+03   -0.39272E+02   -0.38850E+02 12888   0.553E+01
DAV:   5    -0.294404004712E+03   -0.42384E+00   -0.42287E+00 12768   0.649E+00    0.809E+01
DAV:   6    -0.235282372532E+03    0.59122E+02   -0.25340E+02 14784   0.807E+01    0.915E+01
DAV:   7    -0.210990923175E+03    0.24291E+02   -0.11500E+02 12180   0.632E+01    0.438E+01
DAV:   8    -0.218256723737E+03   -0.72658E+01   -0.21431E+01 12132   0.170E+01    0.264E+01
DAV:   9    -0.222535274102E+03   -0.42786E+01   -0.83939E+00 12660   0.172E+01    0.277E+01
DAV:  10    -0.222081070597E+03    0.45420E+00   -0.25063E+00 12600   0.702E+00    0.187E+01
DAV:  11    -0.221497745399E+03    0.58333E+00   -0.24812E-01 14160   0.287E+00    0.122E+01
DAV:  12    -0.221297388365E+03    0.20036E+00   -0.19522E-01 15144   0.239E+00    0.852E+00
DAV:  13    -0.221292592527E+03    0.47958E-02   -0.11980E-01 13932   0.236E+00    0.455E+00
DAV:  14    -0.221340617325E+03   -0.48025E-01   -0.16762E-01 14736   0.202E+00    0.166E+00
DAV:  15    -0.221360194885E+03   -0.19578E-01   -0.64850E-02 12348   0.683E-01    0.138E+00
DAV:  16    -0.221354757783E+03    0.54371E-02   -0.98586E-03 13800   0.731E-01    0.320E-01
DAV:  17    -0.221355517717E+03   -0.75993E-03   -0.43528E-03 12156   0.165E-01    0.173E-01
DAV:  18    -0.221355789292E+03   -0.27157E-03   -0.18368E-04 13596   0.708E-02    0.994E-02
DAV:  19    -0.221355870220E+03   -0.80928E-04   -0.82766E-05 14064   0.455E-02    0.264E-02
DAV:  20    -0.221355887395E+03   -0.17176E-04   -0.34452E-05 13692   0.207E-02    0.872E-03
DAV:  21    -0.221355898444E+03   -0.11049E-04   -0.40488E-06 11868   0.579E-03    0.897E-03
DAV:  22    -0.221355899297E+03   -0.85246E-06   -0.34680E-07  9240   0.268E-03    0.656E-03
DAV:  23    -0.221355895371E+03    0.39257E-05   -0.17795E-07  8364   0.229E-03    0.262E-03
DAV:  24    -0.221355893905E+03    0.14666E-05   -0.12536E-07  6792   0.117E-03    0.103E-03
DAV:  25    -0.221355894704E+03   -0.79985E-06   -0.31533E-08  6204   0.452E-04    0.434E-04
DAV:  26    -0.221355895122E+03   -0.41784E-06   -0.44102E-09  6204   0.278E-04    0.636E-04
DAV:  27    -0.221355894773E+03    0.34920E-06   -0.85359E-09  6204   0.332E-04    0.561E-04
DAV:  28    -0.221355894499E+03    0.27371E-06   -0.25667E-09  6192   0.145E-04    0.331E-04
DAV:  29    -0.221355894389E+03    0.11075E-06   -0.31901E-09  6204   0.126E-04    0.192E-04
DAV:  30    -0.221355894356E+03    0.32502E-07   -0.10706E-09  6216   0.963E-05
   1 F= -.22135589E+03 E0= -.22135589E+03  d E =0.000000E+00  mag=    42.2959
