 vasp.5.4.4.18Apr17-6-g9f103f2a35 (build Apr 28 2018 00:24:27) complex          
  
 executed on             LinuxIFC date 2021.09.06  03:24:01
 running on   24 total cores
 distrk:  each k-point on   24 cores,    1 groups
 distr:  one band on NCORES_PER_BAND=   4 cores,    6 groups


--------------------------------------------------------------------------------------------------------


 INCAR:
 POTCAR:    PAW_PBE Fe_pv 02Aug2007               
 POTCAR:    PAW_PBE O 08Apr2002                   
 POTCAR:    PAW_PBE Fe_pv 02Aug2007               
   VRHFIN =Fe:  3pd7s1                                                          
   LEXCH  = PE                                                                  
   EATOM  =  2457.4239 eV,  180.6156 Ry                                         
                                                                                
   TITEL  = PAW_PBE Fe_pv 02Aug2007                                             
   LULTRA =        F    use ultrasoft PP ?                                      
   IUNSCR =        1    unscreen: 0-lin 1-nonlin 2-no                           
   RPACOR =    1.750    partial core radius                                     
   POMASS =   55.847; ZVAL   =   14.000    mass and valenz                      
   RCORE  =    2.200    outmost cutoff radius                                   
   RWIGS  =    2.200; RWIGS  =    1.164    wigner-seitz radius (au A)           
   ENMAX  =  293.238; ENMIN  =  219.928 eV                                      
   ICORE  =        3    local potential                                         
   LCOR   =        T    correct aug charges                                     
   LPAW   =        T    paw PP                                                  
   EAUG   =  578.342                                                            
   DEXC   =    0.000                                                            
   RMAX   =    2.249    core radius for proj-oper                               
   RAUG   =    1.300    factor for augmentation sphere                          
   RDEP   =    2.296    radius for radial grids                                 
   RDEPT  =    1.766    core radius for aug-charge                              
                                                                                
   Atomic configuration                                                         
    8 entries                                                                   
     n  l   j            E        occ.                                          
     1  0  0.50     -6993.8440   2.0000                                         
     2  0  0.50      -814.6047   2.0000                                         
     2  1  1.50      -693.3689   6.0000                                         
     3  0  0.50       -89.4732   2.0000                                         
     3  1  1.50       -55.6373   6.0000                                         
     3  2  2.50        -3.8151   7.0000                                         
     4  0  0.50        -4.2551   1.0000                                         
     4  3  2.50        -1.3606   0.0000                                         
   Description                                                                  
     l       E           TYP  RCUT    TYP  RCUT                                 
     1    -55.6372668     23  2.000                                             
     1     -5.4423304     23  2.000                                             
     2     -3.8151096     23  2.200                                             
     2     -5.1756922     23  2.200                                             
     0     -4.2550951     23  2.200                                             
     0     27.2116520     23  2.200                                             
     3     -1.3605826     23  2.200                                             
  local pseudopotential read in
  partial core-charges read in
  partial kinetic energy density read in
  atomic valenz-charges read in
  non local Contribution for L=           1  read in
    real space projection operators read in
  non local Contribution for L=           1  read in
    real space projection operators read in
  non local Contribution for L=           2  read in
    real space projection operators read in
  non local Contribution for L=           2  read in
    real space projection operators read in
  non local Contribution for L=           0  read in
    real space projection operators read in
  non local Contribution for L=           0  read in
    real space projection operators read in
    PAW grid and wavefunctions read in
 
   number of l-projection  operators is LMAX  =           6
   number of lm-projection operators is LMMAX =          18
 
 POTCAR:    PAW_PBE O 08Apr2002                   
   VRHFIN =O: s2p4                                                              
   LEXCH  = PE                                                                  
   EATOM  =   432.3788 eV,   31.7789 Ry                                         
                                                                                
   TITEL  = PAW_PBE O 08Apr2002                                                 
   LULTRA =        F    use ultrasoft PP ?                                      
   IUNSCR =        1    unscreen: 0-lin 1-nonlin 2-no                           
   RPACOR =    1.200    partial core radius                                     
   POMASS =   16.000; ZVAL   =    6.000    mass and valenz                      
   RCORE  =    1.520    outmost cutoff radius                                   
   RWIGS  =    1.550; RWIGS  =    0.820    wigner-seitz radius (au A)           
   ENMAX  =  400.000; ENMIN  =  300.000 eV                                      
   ICORE  =        2    local potential                                         
   LCOR   =        T    correct aug charges                                     
   LPAW   =        T    paw PP                                                  
   EAUG   =  605.392                                                            
   DEXC   =    0.000                                                            
   RMAX   =    1.553    core radius for proj-oper                               
   RAUG   =    1.300    factor for augmentation sphere                          
   RDEP   =    1.550    radius for radial grids                                 
   RDEPT  =    1.329    core radius for aug-charge                              
                                                                                
   Atomic configuration                                                         
    4 entries                                                                   
     n  l   j            E        occ.                                          
     1  0  0.50      -514.6923   2.0000                                         
     2  0  0.50       -23.9615   2.0000                                         
     2  1  0.50        -9.0305   4.0000                                         
     3  2  1.50        -9.5241   0.0000                                         
   Description                                                                  
     l       E           TYP  RCUT    TYP  RCUT                                 
     0    -23.9615318     23  1.200                                             
     0     -9.5240782     23  1.200                                             
     1     -9.0304911     23  1.520                                             
     1      8.1634956     23  1.520                                             
     2     -9.5240782      7  1.500                                             
  local pseudopotential read in
  partial core-charges read in
  partial kinetic energy density read in
  kinetic energy density of atom read in
  atomic valenz-charges read in
  non local Contribution for L=           0  read in
    real space projection operators read in
  non local Contribution for L=           0  read in
    real space projection operators read in
  non local Contribution for L=           1  read in
    real space projection operators read in
  non local Contribution for L=           1  read in
    real space projection operators read in
    PAW grid and wavefunctions read in
 
   number of l-projection  operators is LMAX  =           4
   number of lm-projection operators is LMMAX =           8
 
 Optimization of the real space projectors (new method)

 maximal supplied QI-value         = 17.01
 optimisation between [QCUT,QGAM] = [ 11.57, 23.30] = [ 37.45,152.03] Ry 
 Optimized for a Real-space Cutoff    1.45 Angstroem

   l    n(q)    QCUT    max X(q) W(low)/X(q) W(high)/X(q)  e(spline) 
   1     10    11.565     4.267    0.91E-04    0.15E-03    0.13E-06
   1     10    11.565     5.750    0.14E-03    0.22E-03    0.20E-06
   2      9    11.565    53.656    0.13E-03    0.57E-04    0.16E-06
   2      9    11.565    49.521    0.13E-03    0.59E-04    0.16E-06
   0     10    11.565    31.246    0.61E-04    0.74E-05    0.89E-07
   0     10    11.565    12.201    0.44E-04    0.68E-05    0.74E-07
 Optimization of the real space projectors (new method)

 maximal supplied QI-value         = 24.76
 optimisation between [QCUT,QGAM] = [ 11.64, 23.27] = [ 37.91,151.63] Ry 
 Optimized for a Real-space Cutoff    1.14 Angstroem

   l    n(q)    QCUT    max X(q) W(low)/X(q) W(high)/X(q)  e(spline) 
   0      8    11.635    20.381    0.10E-03    0.33E-03    0.24E-06
   0      8    11.635    15.268    0.11E-03    0.35E-03    0.26E-06
   1      7    11.635     5.964    0.24E-03    0.31E-03    0.30E-06
   1      7    11.635     5.382    0.22E-03    0.25E-03    0.26E-06
  PAW_PBE Fe_pv 02Aug2007               :
 energy of atom  1       EATOM=-2457.4239
 kinetic energy error for atom=    0.0062 (will be added to EATOM!!)
  PAW_PBE O 08Apr2002                   :
 energy of atom  2       EATOM= -432.3788
 kinetic energy error for atom=    0.0208 (will be added to EATOM!!)
 
 
 POSCAR: Fe12 O18                                
  positions in direct lattice
  No initial velocities read in
 exchange correlation table for  LEXCH =        8
   RHO(1)=    0.500       N(1)  =     2000
   RHO(2)=  100.500       N(2)  =     4000
 


--------------------------------------------------------------------------------------------------------


 ion  position               nearest neighbor table
   1  0.000  0.000  0.355-  17 1.94  23 1.94  28 1.94  25 2.12  19 2.12  13 2.12
   2  0.000  0.000  0.645-  16 1.94  22 1.94  29 1.94  26 2.12  20 2.12  14 2.12
   3  0.333  0.667  0.022-  30 1.94  24 1.94  18 1.94  27 2.12  21 2.12  15 2.12
   4  0.667  0.333  0.689-  14 1.94  20 1.94  26 1.94  22 2.12  29 2.12  16 2.12
   5  0.333  0.667  0.311-  13 1.94  19 1.94  25 1.94  23 2.12  28 2.12  17 2.12
   6  0.667  0.333  0.978-  27 1.94  21 1.94  15 1.94  30 2.12  24 2.12  18 2.12
   7  0.000  0.000  0.145-  24 1.94  18 1.94  30 1.94  25 2.12  19 2.12  13 2.12
   8  0.000  0.000  0.855-  21 1.94  15 1.94  27 1.94  26 2.12  20 2.12  14 2.12
   9  0.333  0.667  0.811-  20 1.94  14 1.94  26 1.94  27 2.12  21 2.12  15 2.12
  10  0.333  0.667  0.522-  29 1.94  16 1.94  22 1.94  23 2.12  28 2.12  17 2.12
  11  0.667  0.333  0.478-  28 1.94  17 1.94  23 1.94  22 2.12  29 2.12  16 2.12
  12  0.667  0.333  0.189-  19 1.94  13 1.94  25 1.94  30 2.12  24 2.12  18 2.12
  13  0.306  0.000  0.250-   5 1.94  12 1.94   7 2.12   1 2.12
  14  0.694  0.000  0.750-   4 1.94   9 1.94   8 2.12   2 2.12
  15  0.640  0.667  0.917-   6 1.94   8 1.94   9 2.12   3 2.12
  16  0.973  0.333  0.583-  10 1.94   2 1.94   4 2.12  11 2.12
  17  0.027  0.667  0.417-  11 1.94   1 1.94   5 2.12  10 2.12
  18  0.360  0.333  0.083-   3 1.94   7 1.94  12 2.12   6 2.12
  19  0.000  0.306  0.250-  12 1.94   5 1.94   7 2.12   1 2.12
  20  0.000  0.694  0.750-   9 1.94   4 1.94   8 2.12   2 2.12
  21  0.333  0.973  0.917-   6 1.94   8 1.94   9 2.12   3 2.12
  22  0.667  0.640  0.583-  10 1.94   2 1.94   4 2.12  11 2.12
  23  0.333  0.360  0.417-  11 1.94   1 1.94   5 2.12  10 2.12
  24  0.667  0.027  0.083-   3 1.94   7 1.94  12 2.12   6 2.12
  25  0.694  0.694  0.250-  12 1.94   5 1.94   7 2.12   1 2.12
  26  0.306  0.306  0.750-   9 1.94   4 1.94   8 2.12   2 2.12
  27  0.027  0.360  0.917-   6 1.94   8 1.94   9 2.12   3 2.12
  28  0.640  0.973  0.417-  11 1.94   1 1.94   5 2.12  10 2.12
  29  0.360  0.027  0.583-  10 1.94   2 1.94   4 2.12  11 2.12
  30  0.973  0.640  0.083-   3 1.94   7 1.94  12 2.12   6 2.12
 
  LATTYP: Found a hexagonal cell.
 ALAT       =     5.0350995578
 C/A-ratio  =     2.7324385232
  
  Lattice vectors:
  
 A1 = (   5.0351000000,   0.0000000000,   0.0000000000)
 A2 = (  -2.5175500000,   4.3605240000,   0.0000000000)
 A3 = (   0.0000000000,   0.0000000000,  13.7581000000)


Analysis of symmetry for initial positions (statically):
=====================================================================
 Subroutine PRICEL returns following result:
 
  LATTYP: Found a trigonal (rhomboedric) cell.
 ALAT       =     5.4297801492
 COS(alpha) =     0.5700456062
  
  Lattice vectors:
  
 A1 = (  -2.5175449649,  -1.4535109070,  -4.5860425054)
 A2 = (  -0.0000025175,   2.9070174535,  -4.5860287473)
 A3 = (   2.5175474825,  -1.4535065465,  -4.5860287473)
 
   3 primitive cells build up your supercell.
 

 Routine SETGRP: Setting up the symmetry group for a 
 hexagonal supercell.


 Subroutine GETGRP returns: Found 12 space group operations
 (whereof  6 operations were pure point group operations)
 out of a pool of 24 trial point group operations.


The static configuration has the point symmetry S_6 .
 The point group associated with its full space group is D_3d.


Analysis of symmetry for dynamics (positions and initial velocities):
=====================================================================
 Subroutine PRICEL returns following result:
 
  LATTYP: Found a trigonal (rhomboedric) cell.
 ALAT       =     5.4297801492
 COS(alpha) =     0.5700456062
  
  Lattice vectors:
  
 A1 = (  -2.5175449649,  -1.4535109070,  -4.5860425054)
 A2 = (  -0.0000025175,   2.9070174535,  -4.5860287473)
 A3 = (   2.5175474825,  -1.4535065465,  -4.5860287473)
 
   3 primitive cells build up your supercell.
 

 Routine SETGRP: Setting up the symmetry group for a 
 hexagonal supercell.


 Subroutine GETGRP returns: Found 12 space group operations
 (whereof  6 operations were pure point group operations)
 out of a pool of 24 trial point group operations.


The dynamic configuration has the point symmetry S_6 .
 The point group associated with its full space group is D_3d.


Analysis of structural, dynamic, and magnetic symmetry:
=====================================================================
 Subroutine PRICEL returns following result:
 
  LATTYP: Found a trigonal (rhomboedric) cell.
 ALAT       =     5.4297801492
 COS(alpha) =     0.5700456062
  
  Lattice vectors:
  
 A1 = (  -2.5175449649,  -1.4535109070,  -4.5860425054)
 A2 = (  -0.0000025175,   2.9070174535,  -4.5860287473)
 A3 = (   2.5175474825,  -1.4535065465,  -4.5860287473)
 
   3 primitive cells build up your supercell.
 

 Routine SETGRP: Setting up the symmetry group for a 
 hexagonal supercell.


 Subroutine GETGRP returns: Found 12 space group operations
 (whereof  6 operations were pure point group operations)
 out of a pool of 24 trial point group operations.


The magnetic configuration has the point symmetry S_6 .
 The point group associated with its full space group is D_3d.


 Subroutine INISYM returns: Found 12 space group operations
 (whereof  6 operations are pure point group operations),
 and found     3 'primitive' translations

 
 
 KPOINTS: pymatgen with grid density = 2464 / numb

Automatic generation of k-mesh.
Space group operators:
 irot       det(A)        alpha          n_x          n_y          n_z        tau_x        tau_y        tau_z
    1     1.000000     0.000000     1.000000     0.000000     0.000000     0.000000     0.000000     0.000000
    2    -1.000000     0.000000     1.000000     0.000000     0.000000     0.000000     0.000000     0.000000
    3     1.000000   120.000000     0.000000     0.000000    -1.000000     0.000000     0.000000     0.000000
    4    -1.000000   120.000000     0.000000     0.000000    -1.000000     0.000000     0.000000     0.000000
    5     1.000000   120.000000     0.000000     0.000000     1.000000     0.000000     0.000000     0.000000
    6    -1.000000   120.000000     0.000000     0.000000     1.000000     0.000000     0.000000     0.000000
    7     1.000000   180.000000     1.000000     0.000000     0.000000     0.000001    -0.000000    -0.500000
    8    -1.000000   180.000000     1.000000     0.000000     0.000000     0.000001    -0.000000    -0.500000
    9     1.000000   180.000000     0.500000    -0.866025     0.000000     0.000000     0.000000    -0.500000
   10    -1.000000   180.000000     0.500000    -0.866025     0.000000     0.000000     0.000000    -0.500000
   11     1.000000   180.000000    -0.500000    -0.866025     0.000000     0.000000     0.000000    -0.500000
   12    -1.000000   180.000000    -0.500000    -0.866025     0.000000     0.000000     0.000000    -0.500000
 
 Subroutine IBZKPT returns following result:
 ===========================================
 
 Found     14 irreducible k-points:
 
 Following reciprocal coordinates:
            Coordinates               Weight
  0.000000  0.000000  0.000000      1.000000
  0.166667  0.000000  0.000000      6.000000
  0.333333  0.000000  0.000000      6.000000
  0.500000  0.000000  0.000000      3.000000
  0.166667  0.166667  0.000000      6.000000
  0.333333  0.166667  0.000000     12.000000
  0.333333  0.333333  0.000000      2.000000
  0.000000  0.000000  0.500000      1.000000
  0.166667  0.000000  0.500000      6.000000
  0.333333  0.000000  0.500000      6.000000
  0.500000  0.000000  0.500000      3.000000
  0.166667  0.166667  0.500000      6.000000
  0.333333  0.166667  0.500000     12.000000
  0.333333  0.333333  0.500000      2.000000
 
 Following cartesian coordinates:
            Coordinates               Weight
  0.000000  0.000000  0.000000      1.000000
  0.033101  0.019111  0.000000      6.000000
  0.066202  0.038222  0.000000      6.000000
  0.099303  0.057333  0.000000      3.000000
  0.033101  0.057333  0.000000      6.000000
  0.066202  0.076443  0.000000     12.000000
  0.066202  0.114665  0.000000      2.000000
  0.000000  0.000000  0.036342      1.000000
  0.033101  0.019111  0.036342      6.000000
  0.066202  0.038222  0.036342      6.000000
  0.099303  0.057333  0.036342      3.000000
  0.033101  0.057333  0.036342      6.000000
  0.066202  0.076443  0.036342     12.000000
  0.066202  0.114665  0.036342      2.000000
 
 TETIRR: Found     71 inequivalent tetrahedra from      432


--------------------------------------------------------------------------------------------------------




 Dimension of arrays:
   k-points           NKPTS =     14   k-points in BZ     NKDIM =     14   number of bands    NBANDS=    204
   number of dos      NEDOS =    301   number of ions     NIONS =     30
   non local maximal  LDIM  =      6   non local SUM 2l+1 LMDIM =     18
   total plane-waves  NPLWV = 172800
   max r-space proj   IRMAX =   7291   max aug-charges    IRDMAX=  17140
   dimension x,y,z NGX =    40 NGY =   40 NGZ =  108
   dimension x,y,z NGXF=    80 NGYF=   80 NGZF=  216
   support grid    NGXF=    80 NGYF=   80 NGZF=  216
   ions per type =              12  18
   NGX,Y,Z   is equivalent  to a cutoff of  13.21, 13.21, 13.05 a.u.
   NGXF,Y,Z  is equivalent  to a cutoff of  26.41, 26.41, 26.10 a.u.

 SYSTEM =  unknown system                          
 POSCAR =  Fe12 O18                                

 Startparameter for this run:
   NWRITE =      2    write-flag & timer
   PREC   = accura    normal or accurate (medium, high low for compatibility)
   ISTART =      0    job   : 0-new  1-cont  2-samecut
   ICHARG =      2    charge: 1-file 2-atom 10-const
   ISPIN  =      2    spin polarized calculation?
   LNONCOLLINEAR =      F non collinear calculations
   LSORBIT =      F    spin-orbit coupling
   INIWAV =      1    electr: 0-lowe 1-rand  2-diag
   LASPH  =      F    aspherical Exc in radial PAW
   METAGGA=      F    non-selfconsistent MetaGGA calc.

 Electronic Relaxation 1
   ENCUT  =  520.0 eV  38.22 Ry    6.18 a.u.   9.36  9.36 25.58*2*pi/ulx,y,z
   ENINI  =  520.0     initial cutoff
   ENAUG  =  605.4 eV  augmentation charge cutoff
   NELM   =    100;   NELMIN=  2; NELMDL= -5     # of ELM steps 
   EDIFF  = 0.1E-06   stopping-criterion for ELM
   LREAL  =      T    real-space projection
   NLSPLINE    = F    spline interpolate recip. space projectors
   LCOMPAT=      F    compatible to vasp.4.4
   GGA_COMPAT  = T    GGA compatible to vasp.4.4-vasp.4.6
   LMAXPAW     = -100 max onsite density
   LMAXMIX     =    2 max onsite mixed and CHGCAR
   VOSKOWN=      0    Vosko Wilk Nusair interpolation
   ROPT   =   -0.00025  -0.00025
 Ionic relaxation
   EDIFFG = 0.1E-05   stopping-criterion for IOM
   NSW    =      0    number of steps for IOM
   NBLOCK =      1;   KBLOCK =      1    inner block; outer block 
   IBRION =     -1    ionic relax: 0-MD 1-quasi-New 2-CG
   NFREE  =      0    steps in history (QN), initial steepest desc. (CG)
   ISIF   =      3    stress and relaxation
   IWAVPR =     10    prediction:  0-non 1-charg 2-wave 3-comb
   ISYM   =      2    0-nonsym 1-usesym 2-fastsym
   LCORR  =      T    Harris-Foulkes like correction to forces

   POTIM  = 0.5000    time-step for ionic-motion
   TEIN   =    0.0    initial temperature
   TEBEG  =    0.0;   TEEND  =   0.0 temperature during run
   SMASS  =  -3.00    Nose mass-parameter (am)
   estimated Nose-frequenzy (Omega)   =  0.10E-29 period in steps =****** mass=  -0.579E-27a.u.
   SCALEE = 1.0000    scale energy and forces
   NPACO  =    256;   APACO  = 16.0  distance and # of slots for P.C.
   PSTRESS=    0.0 pullay stress

  Mass of Ions in am
   POMASS =  55.85 16.00
  Ionic Valenz
   ZVAL   =  14.00  6.00
  Atomic Wigner-Seitz radii
   RWIGS  =  -1.00 -1.00
  virtual crystal weights 
   VCA    =   1.00  1.00
   NELECT =     276.0000    total number of electrons
   NUPDOWN=      -1.0000    fix difference up-down

 DOS related values:
   EMIN   =  10.00;   EMAX   =-10.00  energy-range for DOS
   EFERMI =   0.00
   ISMEAR =    -5;   SIGMA  =   0.05  broadening in eV -4-tet -1-fermi 0-gaus

 Electronic relaxation 2 (details)
   IALGO  =     38    algorithm
   LDIAG  =      T    sub-space diagonalisation (order eigenvalues)
   LSUBROT=      F    optimize rotation matrix (better conditioning)
   TURBO    =      0    0=normal 1=particle mesh
   IRESTART =      0    0=no restart 2=restart with 2 vectors
   NREBOOT  =      0    no. of reboots
   NMIN     =      0    reboot dimension
   EREF     =   0.00    reference energy to select bands
   IMIX   =      4    mixing-type and parameters
     AMIX     =   0.40;   BMIX     =  1.00
     AMIX_MAG =   1.60;   BMIX_MAG =  1.00
     AMIN     =   0.10
     WC   =   100.;   INIMIX=   1;  MIXPRE=   1;  MAXMIX= -45

 Intra band minimization:
   WEIMIN = 0.0000     energy-eigenvalue tresh-hold
   EBREAK =  0.12E-09  absolut break condition
   DEPER  =   0.30     relativ break condition  

   TIME   =   0.40     timestep for ELM

  volume/ion in A,a.u.               =      10.07        67.95
  Fermi-wavevector in a.u.,A,eV,Ry     =   1.588581  3.001983 34.335534  2.523591
  Thomas-Fermi vector in A             =   2.687563
 
 Write flags
   LWAVE        =      F    write WAVECAR
   LDOWNSAMPLE  =      F    k-point downsampling of WAVECAR
   LCHARG       =      F    write CHGCAR
   LVTOT        =      F    write LOCPOT, total local potential
   LVHAR        =      F    write LOCPOT, Hartree potential only
   LELF         =      F    write electronic localiz. function (ELF)
   LORBIT       =     11    0 simple, 1 ext, 2 COOP (PROOUT), +10 PAW based schemes


 Dipole corrections
   LMONO  =      F    monopole corrections only (constant potential shift)
   LDIPOL =      F    correct potential (dipole corrections)
   IDIPOL =      0    1-x, 2-y, 3-z, 4-all directions 
   EPSILON=  1.0000000 bulk dielectric constant

 Exchange correlation treatment:
   GGA     =    --    GGA type
   LEXCH   =     8    internal setting for exchange type
   VOSKOWN=      0    Vosko Wilk Nusair interpolation
   LHFCALC =     F    Hartree Fock is set to
   LHFONE  =     F    Hartree Fock one center treatment
   AEXX    =    0.0000 exact exchange contribution

 Linear response parameters
   LEPSILON=     F    determine dielectric tensor
   LRPA    =     F    only Hartree local field effects (RPA)
   LNABLA  =     F    use nabla operator in PAW spheres
   LVEL    =     F    velocity operator in full k-point grid
   LINTERFAST=   F  fast interpolation
   KINTER  =     0    interpolate to denser k-point grid
   CSHIFT  =0.1000    complex shift for real part using Kramers Kronig
   OMEGAMAX=  -1.0    maximum frequency
   DEG_THRESHOLD= 0.2000000E-02 threshold for treating states as degnerate
   RTIME   =   -0.100 relaxation time in fs
  (WPLASMAI=    0.000 imaginary part of plasma frequency in eV, 0.658/RTIME)
   DFIELD  = 0.0000000 0.0000000 0.0000000 field for delta impulse in time
 
 Orbital magnetization related:
   ORBITALMAG=     F  switch on orbital magnetization
   LCHIMAG   =     F  perturbation theory with respect to B field
   DQ        =  0.001000  dq finite difference perturbation B field
   LLRAUG    =     F  two centre corrections for induced B field



--------------------------------------------------------------------------------------------------------


 Static calculation
 charge density and potential will be updated during run
 spin polarized calculation
 Variant of blocked Davidson
 Davidson routine will perform the subspace rotation
 perform sub-space diagonalisation
    after iterative eigenvector-optimisation
 modified Broyden-mixing scheme, WC =      100.0
 initial mixing is a Kerker type mixing with AMIX =  0.4000 and BMIX =      1.0000
 Hartree-type preconditioning will be used
 using additional bands           66
 real space projection scheme for non local part
 use partial core corrections
 calculate Harris-corrections to forces 
   (improved forces if not selfconsistent)
 use gradient corrections 
 use of overlap-Matrix (Vanderbilt PP)
 Fermi weights with tetrahedron method with Bloechl corrections


--------------------------------------------------------------------------------------------------------


  energy-cutoff  :      520.00
  volume of cell :      302.07
      direct lattice vectors                 reciprocal lattice vectors
     5.035100000  0.000000000  0.000000000     0.198605787  0.114665118  0.000000000
    -2.517550000  4.360524000  0.000000000     0.000000000  0.229330236  0.000000000
     0.000000000  0.000000000 13.758100000     0.000000000  0.000000000  0.072684455

  length of vectors
     5.035100000  5.035099558 13.758100000     0.229330216  0.229330236  0.072684455


 
 k-points in units of 2pi/SCALE and weight: pymatgen with grid density = 2464 / numb
   0.00000000  0.00000000  0.00000000       0.014
   0.03310096  0.01911085  0.00000000       0.083
   0.06620193  0.03822171  0.00000000       0.083
   0.09930289  0.05733256  0.00000000       0.042
   0.03310096  0.05733256  0.00000000       0.083
   0.06620193  0.07644341  0.00000000       0.167
   0.06620193  0.11466512  0.00000000       0.028
   0.00000000  0.00000000  0.03634223       0.014
   0.03310096  0.01911085  0.03634223       0.083
   0.06620193  0.03822171  0.03634223       0.083
   0.09930289  0.05733256  0.03634223       0.042
   0.03310096  0.05733256  0.03634223       0.083
   0.06620193  0.07644341  0.03634223       0.167
   0.06620193  0.11466512  0.03634223       0.028
 
 k-points in reciprocal lattice and weights: pymatgen with grid density = 2464 / numb
   0.00000000  0.00000000  0.00000000       0.014
   0.16666667  0.00000000  0.00000000       0.083
   0.33333333  0.00000000  0.00000000       0.083
   0.50000000  0.00000000  0.00000000       0.042
   0.16666667  0.16666667  0.00000000       0.083
   0.33333333  0.16666667  0.00000000       0.167
   0.33333333  0.33333333  0.00000000       0.028
   0.00000000  0.00000000  0.50000000       0.014
   0.16666667  0.00000000  0.50000000       0.083
   0.33333333  0.00000000  0.50000000       0.083
   0.50000000  0.00000000  0.50000000       0.042
   0.16666667  0.16666667  0.50000000       0.083
   0.33333333  0.16666667  0.50000000       0.167
   0.33333333  0.33333333  0.50000000       0.028
 
 position of ions in fractional coordinates (direct lattice) 
   0.00000000  0.00000000  0.35532000
   0.00000000  0.00000000  0.64468000
   0.33333300  0.66666700  0.02198700
   0.66666700  0.33333300  0.68865300
   0.33333300  0.66666700  0.31134700
   0.66666700  0.33333300  0.97801300
   0.00000000  0.00000000  0.14468000
   0.00000000  0.00000000  0.85532000
   0.33333300  0.66666700  0.81134700
   0.33333300  0.66666700  0.52198700
   0.66666700  0.33333300  0.47801300
   0.66666700  0.33333300  0.18865300
   0.30618000  0.00000000  0.25000000
   0.69382000  0.00000000  0.75000000
   0.63951300  0.66666700  0.91666700
   0.97284700  0.33333300  0.58333300
   0.02715300  0.66666700  0.41666700
   0.36048700  0.33333300  0.08333300
   0.00000000  0.30618000  0.25000000
   0.00000000  0.69382000  0.75000000
   0.33333300  0.97284700  0.91666700
   0.66666700  0.63951300  0.58333300
   0.33333300  0.36048700  0.41666700
   0.66666700  0.02715300  0.08333300
   0.69382000  0.69382000  0.25000000
   0.30618000  0.30618000  0.75000000
   0.02715300  0.36048700  0.91666700
   0.63951300  0.97284700  0.41666700
   0.36048700  0.02715300  0.58333300
   0.97284700  0.63951300  0.08333300
 
 position of ions in cartesian coordinates  (Angst):
   0.00000000  0.00000000  4.88852809
   0.00000000  0.00000000  8.86957191
  -0.00000252  2.90701745  0.30249934
   2.51755252  1.45350655  9.47455684
  -0.00000252  2.90701745  4.28354316
   2.51755252  1.45350655 13.45560066
   0.00000000  0.00000000  1.99052191
   0.00000000  0.00000000 11.76757809
  -0.00000252  2.90701745 11.16259316
  -0.00000252  2.90701745  7.18154934
   2.51755252  1.45350655  6.57655066
   2.51755252  1.45350655  2.59550684
   1.54164692  0.00000000  3.43952500
   3.49345308  0.00000000 10.31857500
   1.54164440  2.90701745 12.61159625
   4.05919944  1.45350655  8.02555375
  -1.54164944  2.90701745  5.73254625
   0.97590560  1.45350655  1.14650375
  -0.77082346  1.33510524  3.43952500
  -1.74672654  3.02541876 10.31857500
  -0.77082598  4.24212269 12.61159625
   1.74672906  2.78861178  8.02555375
   0.77082094  1.57191222  5.73254625
   3.28837598  0.11840131  1.14650375
   1.74672654  3.02541876  3.43952500
   0.77082346  1.33510524 10.31857500
  -0.77082598  1.57191222 12.61159625
   0.77082094  4.24212269  5.73254625
   1.74672906  0.11840131  8.02555375
   3.28837598  2.78861178  1.14650375
 


--------------------------------------------------------------------------------------------------------


 k-point  1 :   0.0000 0.0000 0.0000  plane waves:    8163
 k-point  2 :   0.1667 0.0000 0.0000  plane waves:    8140
 k-point  3 :   0.3333 0.0000 0.0000  plane waves:    8130
 k-point  4 :   0.5000 0.0000 0.0000  plane waves:    8154
 k-point  5 :   0.1667 0.1667 0.0000  plane waves:    8139
 k-point  6 :   0.3333 0.1667 0.0000  plane waves:    8124
 k-point  7 :   0.3333 0.3333 0.0000  plane waves:    8100
 k-point  8 :   0.0000 0.0000 0.5000  plane waves:    8152
 k-point  9 :   0.1667 0.0000 0.5000  plane waves:    8152
 k-point 10 :   0.3333 0.0000 0.5000  plane waves:    8138
 k-point 11 :   0.5000 0.0000 0.5000  plane waves:    8128
 k-point 12 :   0.1667 0.1667 0.5000  plane waves:    8122
 k-point 13 :   0.3333 0.1667 0.5000  plane waves:    8110
 k-point 14 :   0.3333 0.3333 0.5000  plane waves:    8154

 maximum and minimum number of plane-waves per node :      2057     2008

 maximum number of plane-waves:      8163
 maximum index in each direction: 
   IXMAX=    9   IYMAX=    9   IZMAX=   25
   IXMIN=   -9   IYMIN=   -9   IZMIN=  -26


 real space projection operators:
  total allocation   :      15753.38 KBytes
  max/ min on nodes  :       3944.75       3934.88


 parallel 3D FFT for wavefunctions:
    minimum data exchange during FFTs selected (reduces bandwidth)
 parallel 3D FFT for charge:
    minimum data exchange during FFTs selected (reduces bandwidth)


 total amount of memory used by VASP MPI-rank0    84158. kBytes
=======================================================================

   base      :      30000. kBytes
   nonlr-proj:       8549. kBytes
   fftplans  :       3513. kBytes
   grid      :       9039. kBytes
   one-center:        248. kBytes
   wavefun   :      32809. kBytes
 
     INWAV:  cpu time    0.0000: real time    0.0001
 Broyden mixing: mesh for mixing (old mesh)
   NGX = 19   NGY = 19   NGZ = 51
  (NGX  = 80   NGY  = 80   NGZ  =216)
  gives a total of  18411 points

 initial charge density was supplied:
 charge density of overlapping atoms calculated
 number of electron     276.0000000 magnetization      70.8000000
 keeping initial charge density in first step


--------------------------------------------------------------------------------------------------------


 Maximum index for non-local projection operator         1764
 Maximum index for augmentation-charges         1267 (set IRDMAX)


--------------------------------------------------------------------------------------------------------


 First call to EWALD:  gamma=   0.264
 Maximum number of real-space cells 4x 4x 2
 Maximum number of reciprocal cells 2x 2x 5

    FEWALD:  cpu time    0.0019: real time    0.0019


--------------------------------------- Iteration      1(   1)  ---------------------------------------


    POTLOK:  cpu time    0.0852: real time    0.0862
    SETDIJ:  cpu time    0.0132: real time    0.0132
     EDDAV:  cpu time   12.0573: real time   12.0975
 BZINTS: Fermi energy: 27.760547;276.000000 electrons
         Band energy:1164.855303;  BLOECHL correction: -0.039944
       DOS:  cpu time    0.0445: real time    0.0446
    --------------------------------------------
      LOOP:  cpu time   12.2001: real time   12.2415

 eigenvalue-minimisations  : 11616
 total energy-change (2. order) : 0.4181135E+04  (-0.1377728E+05)
 number of electron     276.0000000 magnetization      70.8000000
 augmentation part      276.0000000 magnetization      70.8000000

 Free energy of the ion-electron system (eV)
  ---------------------------------------------------
  alpha Z        PSCENC =      1362.55286497
  Ewald energy   TEWEN  =    -25513.06237826
  -Hartree energ DENC   =    -10371.14386018
  -exchange      EXHF   =         0.00000000
  -V(xc)+E(xc)   XCENC  =      1375.27779283
  PAW double counting   =     30224.59406688   -31333.39571732
  entropy T*S    EENTRO =         0.00000000
  eigenvalues    EBANDS =      1164.85530293
  atomic energy  EATOM  =     37271.45667804
  Solvation  Ediel_sol  =         0.00000000
  ---------------------------------------------------
  free energy    TOTEN  =      4181.13474988 eV

  energy without entropy =     4181.13474988  energy(sigma->0) =     4181.13474988


--------------------------------------------------------------------------------------------------------




--------------------------------------- Iteration      1(   2)  ---------------------------------------


     EDDAV:  cpu time   12.0285: real time   12.0589
 BZINTS: Fermi energy: 11.325331;276.000000 electrons
         Band energy:***********;  BLOECHL correction: -0.029382
       DOS:  cpu time    0.0463: real time    0.0464
    --------------------------------------------
      LOOP:  cpu time   12.0748: real time   12.1053

 eigenvalue-minimisations  : 11424
 total energy-change (2. order) :-0.3768667E+04  (-0.3419005E+04)
 number of electron     276.0000000 magnetization      70.8000000
 augmentation part      276.0000000 magnetization      70.8000000

 Free energy of the ion-electron system (eV)
  ---------------------------------------------------
  alpha Z        PSCENC =      1362.55286497
  Ewald energy   TEWEN  =    -25513.06237826
  -Hartree energ DENC   =    -10371.14386018
  -exchange      EXHF   =         0.00000000
  -V(xc)+E(xc)   XCENC  =      1375.27779283
  PAW double counting   =     30224.59406688   -31333.39571732
  entropy T*S    EENTRO =         0.00000000
  eigenvalues    EBANDS =     -2603.81172526
  atomic energy  EATOM  =     37271.45667804
  Solvation  Ediel_sol  =         0.00000000
  ---------------------------------------------------
  free energy    TOTEN  =       412.46772169 eV

  energy without entropy =      412.46772169  energy(sigma->0) =      412.46772169


--------------------------------------------------------------------------------------------------------




--------------------------------------- Iteration      1(   3)  ---------------------------------------


     EDDAV:  cpu time   12.3154: real time   12.3466
 BZINTS: Fermi energy:  8.548290;276.000000 electrons
         Band energy:***********;  BLOECHL correction:  0.000000
       DOS:  cpu time    0.0073: real time    0.0073
    --------------------------------------------
      LOOP:  cpu time   12.3227: real time   12.3540

 eigenvalue-minimisations  : 12000
 total energy-change (2. order) :-0.6671756E+03  (-0.6016712E+03)
 number of electron     276.0000000 magnetization      70.8000000
 augmentation part      276.0000000 magnetization      70.8000000

 Free energy of the ion-electron system (eV)
  ---------------------------------------------------
  alpha Z        PSCENC =      1362.55286497
  Ewald energy   TEWEN  =    -25513.06237826
  -Hartree energ DENC   =    -10371.14386018
  -exchange      EXHF   =         0.00000000
  -V(xc)+E(xc)   XCENC  =      1375.27779283
  PAW double counting   =     30224.59406688   -31333.39571732
  entropy T*S    EENTRO =         0.00000000
  eigenvalues    EBANDS =     -3270.98728189
  atomic energy  EATOM  =     37271.45667804
  Solvation  Ediel_sol  =         0.00000000
  ---------------------------------------------------
  free energy    TOTEN  =      -254.70783494 eV

  energy without entropy =     -254.70783494  energy(sigma->0) =     -254.70783494


--------------------------------------------------------------------------------------------------------




--------------------------------------- Iteration      1(   4)  ---------------------------------------


     EDDAV:  cpu time   13.0028: real time   13.0361
 BZINTS: Fermi energy:  8.262756;276.000000 electrons
         Band energy:***********;  BLOECHL correction:  0.000000
       DOS:  cpu time    0.0062: real time    0.0064
    --------------------------------------------
      LOOP:  cpu time   13.0091: real time   13.0425

 eigenvalue-minimisations  : 12888
 total energy-change (2. order) :-0.3927233E+02  (-0.3884993E+02)
 number of electron     276.0000000 magnetization      70.8000000
 augmentation part      276.0000000 magnetization      70.8000000

 Free energy of the ion-electron system (eV)
  ---------------------------------------------------
  alpha Z        PSCENC =      1362.55286497
  Ewald energy   TEWEN  =    -25513.06237826
  -Hartree energ DENC   =    -10371.14386018
  -exchange      EXHF   =         0.00000000
  -V(xc)+E(xc)   XCENC  =      1375.27779283
  PAW double counting   =     30224.59406688   -31333.39571732
  entropy T*S    EENTRO =         0.00000000
  eigenvalues    EBANDS =     -3310.25960848
  atomic energy  EATOM  =     37271.45667804
  Solvation  Ediel_sol  =         0.00000000
  ---------------------------------------------------
  free energy    TOTEN  =      -293.98016153 eV

  energy without entropy =     -293.98016153  energy(sigma->0) =     -293.98016153


--------------------------------------------------------------------------------------------------------




--------------------------------------- Iteration      1(   5)  ---------------------------------------


     EDDAV:  cpu time   12.9143: real time   12.9470
 BZINTS: Fermi energy:  8.271722;276.000000 electrons
         Band energy:***********;  BLOECHL correction:  0.000000
       DOS:  cpu time    0.0075: real time    0.0075
    CHARGE:  cpu time    0.4308: real time    0.4320
    MIXING:  cpu time    0.0020: real time    0.0020
    --------------------------------------------
      LOOP:  cpu time   13.3546: real time   13.3885

 eigenvalue-minimisations  : 12768
 total energy-change (2. order) :-0.4238432E+00  (-0.4228662E+00)
 number of electron     276.0000073 magnetization      67.8179408
 augmentation part      108.0336689 magnetization      47.0413174

 Broyden mixing:
  rms(total) = 0.80924E+01    rms(broyden)= 0.80919E+01
  rms(prec ) = 0.88389E+01
  weight for this iteration     100.00

 Free energy of the ion-electron system (eV)
  ---------------------------------------------------
  alpha Z        PSCENC =      1362.55286497
  Ewald energy   TEWEN  =    -25513.06237826
  -Hartree energ DENC   =    -10371.14386018
  -exchange      EXHF   =         0.00000000
  -V(xc)+E(xc)   XCENC  =      1375.27779283
  PAW double counting   =     30224.59406688   -31333.39571732
  entropy T*S    EENTRO =         0.00000000
  eigenvalues    EBANDS =     -3310.68345166
  atomic energy  EATOM  =     37271.45667804
  Solvation  Ediel_sol  =         0.00000000
  ---------------------------------------------------
  free energy    TOTEN  =      -294.40400471 eV

  energy without entropy =     -294.40400471  energy(sigma->0) =     -294.40400471


--------------------------------------------------------------------------------------------------------




--------------------------------------- Iteration      1(   6)  ---------------------------------------


    POTLOK:  cpu time    0.0813: real time    0.0818
    SETDIJ:  cpu time    0.0134: real time    0.0134
     EDDAV:  cpu time   14.5053: real time   14.5420
 BZINTS: Fermi energy:  5.536691;276.000000 electrons
         Band energy:***********;  BLOECHL correction: -0.054190
       DOS:  cpu time    0.0496: real time    0.0497
    CHARGE:  cpu time    0.4396: real time    0.4407
    MIXING:  cpu time    0.0021: real time    0.0021
    --------------------------------------------
      LOOP:  cpu time   15.0912: real time   15.1296

 eigenvalue-minimisations  : 14784
 total energy-change (2. order) : 0.5912163E+02  (-0.2534000E+02)
 number of electron     276.0000044 magnetization      62.9859242
 augmentation part      120.7708750 magnetization      54.4340813

 Broyden mixing:
  rms(total) = 0.91461E+01    rms(broyden)= 0.91451E+01
  rms(prec ) = 0.97977E+01
  weight for this iteration     100.00

 eigenvalues of (default mixing * dielectric matrix)
  average eigenvalue GAMMA=   0.3176
  0.3176

 Free energy of the ion-electron system (eV)
  ---------------------------------------------------
  alpha Z        PSCENC =      1362.55286497
  Ewald energy   TEWEN  =    -25513.06237826
  -Hartree energ DENC   =     -9966.14954638
  -exchange      EXHF   =         0.00000000
  -V(xc)+E(xc)   XCENC  =      1376.67735103
  PAW double counting   =     31436.59275999   -32503.57503903
  entropy T*S    EENTRO =         0.00000000
  eigenvalues    EBANDS =     -3699.77506288
  atomic energy  EATOM  =     37271.45667804
  Solvation  Ediel_sol  =         0.00000000
  ---------------------------------------------------
  free energy    TOTEN  =      -235.28237253 eV

  energy without entropy =     -235.28237253  energy(sigma->0) =     -235.28237253


--------------------------------------------------------------------------------------------------------




--------------------------------------- Iteration      1(   7)  ---------------------------------------


    POTLOK:  cpu time    0.0810: real time    0.0813
    SETDIJ:  cpu time    0.0132: real time    0.0132
     EDDAV:  cpu time   11.9883: real time   12.0186
 BZINTS: Fermi energy:  7.091083;276.000000 electrons
         Band energy:***********;  BLOECHL correction: -0.035692
       DOS:  cpu time    0.0478: real time    0.0479
    CHARGE:  cpu time    0.4348: real time    0.4360
    MIXING:  cpu time    0.0019: real time    0.0019
    --------------------------------------------
      LOOP:  cpu time   12.5670: real time   12.5989

 eigenvalue-minimisations  : 12180
 total energy-change (2. order) : 0.2429145E+02  (-0.1149975E+02)
 number of electron     276.0000061 magnetization      58.8122630
 augmentation part      109.3774328 magnetization      40.2661609

 Broyden mixing:
  rms(total) = 0.43789E+01    rms(broyden)= 0.43785E+01
  rms(prec ) = 0.45397E+01
  weight for this iteration     100.00

 eigenvalues of (default mixing * dielectric matrix)
  average eigenvalue GAMMA=   0.6794
  1.0298  0.3290

 Free energy of the ion-electron system (eV)
  ---------------------------------------------------
  alpha Z        PSCENC =      1362.55286497
  Ewald energy   TEWEN  =    -25513.06237826
  -Hartree energ DENC   =    -10208.66517723
  -exchange      EXHF   =         0.00000000
  -V(xc)+E(xc)   XCENC  =      1372.58107151
  PAW double counting   =     32869.06666611   -33997.67675888
  entropy T*S    EENTRO =         0.00000000
  eigenvalues    EBANDS =     -3367.24388943
  atomic energy  EATOM  =     37271.45667804
  Solvation  Ediel_sol  =         0.00000000
  ---------------------------------------------------
  free energy    TOTEN  =      -210.99092318 eV

  energy without entropy =     -210.99092318  energy(sigma->0) =     -210.99092318


--------------------------------------------------------------------------------------------------------




--------------------------------------- Iteration      1(   8)  ---------------------------------------


    POTLOK:  cpu time    0.0783: real time    0.0786
    SETDIJ:  cpu time    0.0130: real time    0.0130
     EDDAV:  cpu time   11.9088: real time   11.9389
 BZINTS: Fermi energy:  6.459578;276.000000 electrons
         Band energy:***********;  BLOECHL correction: -0.034174
       DOS:  cpu time    0.0500: real time    0.0501
    CHARGE:  cpu time    0.4364: real time    0.4375
    MIXING:  cpu time    0.0019: real time    0.0019
    --------------------------------------------
      LOOP:  cpu time   12.4884: real time   12.5200

 eigenvalue-minimisations  : 12132
 total energy-change (2. order) :-0.7265801E+01  (-0.2143135E+01)
 number of electron     276.0000060 magnetization      51.8914681
 augmentation part      111.2664008 magnetization      34.9814518

 Broyden mixing:
  rms(total) = 0.26368E+01    rms(broyden)= 0.26367E+01
  rms(prec ) = 0.26968E+01
  weight for this iteration     100.00

 eigenvalues of (default mixing * dielectric matrix)
  average eigenvalue GAMMA=   1.0876
  2.2915  0.5918  0.3794

 Free energy of the ion-electron system (eV)
  ---------------------------------------------------
  alpha Z        PSCENC =      1362.55286497
  Ewald energy   TEWEN  =    -25513.06237826
  -Hartree energ DENC   =    -10075.13533702
  -exchange      EXHF   =         0.00000000
  -V(xc)+E(xc)   XCENC  =      1366.59600307
  PAW double counting   =     34236.03110194   -35376.60835678
  entropy T*S    EENTRO =         0.00000000
  eigenvalues    EBANDS =     -3490.08729971
  atomic energy  EATOM  =     37271.45667804
  Solvation  Ediel_sol  =         0.00000000
  ---------------------------------------------------
  free energy    TOTEN  =      -218.25672374 eV

  energy without entropy =     -218.25672374  energy(sigma->0) =     -218.25672374


--------------------------------------------------------------------------------------------------------




--------------------------------------- Iteration      1(   9)  ---------------------------------------


    POTLOK:  cpu time    0.0792: real time    0.0795
    SETDIJ:  cpu time    0.0130: real time    0.0131
     EDDAV:  cpu time   12.7665: real time   12.7988
 BZINTS: Fermi energy:  5.870494;276.000000 electrons
         Band energy:***********;  BLOECHL correction: -0.039981
       DOS:  cpu time    0.0518: real time    0.0519
    CHARGE:  cpu time    0.4367: real time    0.4379
    MIXING:  cpu time    0.0021: real time    0.0021
    --------------------------------------------
      LOOP:  cpu time   13.3493: real time   13.3832

 eigenvalue-minimisations  : 12660
 total energy-change (2. order) :-0.4278550E+01  (-0.8393920E+00)
 number of electron     276.0000055 magnetization      50.9462251
 augmentation part      114.2264987 magnetization      37.9224088

 Broyden mixing:
  rms(total) = 0.27744E+01    rms(broyden)= 0.27742E+01
  rms(prec ) = 0.29123E+01
  weight for this iteration     100.00

 eigenvalues of (default mixing * dielectric matrix)
  average eigenvalue GAMMA=   1.0995
  2.8459  0.8044  0.3738  0.3738

 Free energy of the ion-electron system (eV)
  ---------------------------------------------------
  alpha Z        PSCENC =      1362.55286497
  Ewald energy   TEWEN  =    -25513.06237826
  -Hartree energ DENC   =     -9931.54611407
  -exchange      EXHF   =         0.00000000
  -V(xc)+E(xc)   XCENC  =      1362.31722788
  PAW double counting   =     36543.53705364   -37712.96769719
  entropy T*S    EENTRO =         0.00000000
  eigenvalues    EBANDS =     -3604.82290911
  atomic energy  EATOM  =     37271.45667804
  Solvation  Ediel_sol  =         0.00000000
  ---------------------------------------------------
  free energy    TOTEN  =      -222.53527410 eV

  energy without entropy =     -222.53527410  energy(sigma->0) =     -222.53527410


--------------------------------------------------------------------------------------------------------




--------------------------------------- Iteration      1(  10)  ---------------------------------------


    POTLOK:  cpu time    0.0804: real time    0.0807
    SETDIJ:  cpu time    0.0132: real time    0.0133
     EDDAV:  cpu time   12.7655: real time   12.7976
 BZINTS: Fermi energy:  5.957968;276.000000 electrons
         Band energy:***********;  BLOECHL correction: -0.037575
       DOS:  cpu time    0.0516: real time    0.0517
    CHARGE:  cpu time    0.4376: real time    0.4387
    MIXING:  cpu time    0.0021: real time    0.0021
    --------------------------------------------
      LOOP:  cpu time   13.3504: real time   13.3842

 eigenvalue-minimisations  : 12600
 total energy-change (2. order) : 0.4542035E+00  (-0.2506294E+00)
 number of electron     276.0000055 magnetization      50.6285943
 augmentation part      113.4500118 magnetization      37.3409679

 Broyden mixing:
  rms(total) = 0.18674E+01    rms(broyden)= 0.18674E+01
  rms(prec ) = 0.19803E+01
  weight for this iteration     100.00

 eigenvalues of (default mixing * dielectric matrix)
  average eigenvalue GAMMA=   1.0195
  2.6100  0.3726  0.7701  0.6723  0.6723

 Free energy of the ion-electron system (eV)
  ---------------------------------------------------
  alpha Z        PSCENC =      1362.55286497
  Ewald energy   TEWEN  =    -25513.06237826
  -Hartree energ DENC   =     -9948.92209520
  -exchange      EXHF   =         0.00000000
  -V(xc)+E(xc)   XCENC  =      1360.89310222
  PAW double counting   =     36550.13879338   -37722.57031329
  entropy T*S    EENTRO =         0.00000000
  eigenvalues    EBANDS =     -3582.56772245
  atomic energy  EATOM  =     37271.45667804
  Solvation  Ediel_sol  =         0.00000000
  ---------------------------------------------------
  free energy    TOTEN  =      -222.08107060 eV

  energy without entropy =     -222.08107060  energy(sigma->0) =     -222.08107060


--------------------------------------------------------------------------------------------------------




--------------------------------------- Iteration      1(  11)  ---------------------------------------


    POTLOK:  cpu time    0.0805: real time    0.0808
    SETDIJ:  cpu time    0.0132: real time    0.0132
     EDDAV:  cpu time   13.9730: real time   14.0083
 BZINTS: Fermi energy:  6.020606;276.000000 electrons
         Band energy:***********;  BLOECHL correction: -0.034132
       DOS:  cpu time    0.0519: real time    0.0520
    CHARGE:  cpu time    0.4397: real time    0.4409
    MIXING:  cpu time    0.0022: real time    0.0022
    --------------------------------------------
      LOOP:  cpu time   14.5604: real time   14.5974

 eigenvalue-minimisations  : 14160
 total energy-change (2. order) : 0.5833252E+00  (-0.2481207E-01)
 number of electron     276.0000056 magnetization      49.2956143
 augmentation part      113.0218722 magnetization      35.6152232

 Broyden mixing:
  rms(total) = 0.12179E+01    rms(broyden)= 0.12179E+01
  rms(prec ) = 0.12923E+01
  weight for this iteration     100.00

 eigenvalues of (default mixing * dielectric matrix)
  average eigenvalue GAMMA=   1.0470
  2.5791  0.9795  0.9795  0.3775  0.7982  0.5685

 Free energy of the ion-electron system (eV)
  ---------------------------------------------------
  alpha Z        PSCENC =      1362.55286497
  Ewald energy   TEWEN  =    -25513.06237826
  -Hartree energ DENC   =     -9960.16366218
  -exchange      EXHF   =         0.00000000
  -V(xc)+E(xc)   XCENC  =      1360.20790059
  PAW double counting   =     36378.27155848   -37548.67976631
  entropy T*S    EENTRO =         0.00000000
  eigenvalues    EBANDS =     -3572.08094072
  atomic energy  EATOM  =     37271.45667804
  Solvation  Ediel_sol  =         0.00000000
  ---------------------------------------------------
  free energy    TOTEN  =      -221.49774540 eV

  energy without entropy =     -221.49774540  energy(sigma->0) =     -221.49774540


--------------------------------------------------------------------------------------------------------




--------------------------------------- Iteration      1(  12)  ---------------------------------------


    POTLOK:  cpu time    0.0811: real time    0.0816
    SETDIJ:  cpu time    0.0132: real time    0.0132
     EDDAV:  cpu time   14.7364: real time   14.7735
 BZINTS: Fermi energy:  6.081724;276.000000 electrons
         Band energy:***********;  BLOECHL correction: -0.033770
       DOS:  cpu time    0.0505: real time    0.0507
    CHARGE:  cpu time    0.4363: real time    0.4375
    MIXING:  cpu time    0.0023: real time    0.0023
    --------------------------------------------
      LOOP:  cpu time   15.3198: real time   15.3588

 eigenvalue-minimisations  : 15144
 total energy-change (2. order) : 0.2003570E+00  (-0.1952242E-01)
 number of electron     276.0000057 magnetization      46.7779998
 augmentation part      112.7006940 magnetization      33.0034255

 Broyden mixing:
  rms(total) = 0.85212E+00    rms(broyden)= 0.85211E+00
  rms(prec ) = 0.89395E+00
  weight for this iteration     100.00

 eigenvalues of (default mixing * dielectric matrix)
  average eigenvalue GAMMA=   1.1037
  1.9974  1.9974  1.3315  0.3761  0.7480  0.6379  0.6379

 Free energy of the ion-electron system (eV)
  ---------------------------------------------------
  alpha Z        PSCENC =      1362.55286497
  Ewald energy   TEWEN  =    -25513.06237826
  -Hartree energ DENC   =     -9973.56218956
  -exchange      EXHF   =         0.00000000
  -V(xc)+E(xc)   XCENC  =      1359.58245304
  PAW double counting   =     36264.21708136   -37433.62009808
  entropy T*S    EENTRO =         0.00000000
  eigenvalues    EBANDS =     -3558.86179987
  atomic energy  EATOM  =     37271.45667804
  Solvation  Ediel_sol  =         0.00000000
  ---------------------------------------------------
  free energy    TOTEN  =      -221.29738837 eV

  energy without entropy =     -221.29738837  energy(sigma->0) =     -221.29738837


--------------------------------------------------------------------------------------------------------




--------------------------------------- Iteration      1(  13)  ---------------------------------------


    POTLOK:  cpu time    0.0801: real time    0.0804
    SETDIJ:  cpu time    0.0132: real time    0.0132
     EDDAV:  cpu time   13.7872: real time   13.8220
 BZINTS: Fermi energy:  6.144406;276.000000 electrons
         Band energy:***********;  BLOECHL correction: -0.034503
       DOS:  cpu time    0.0466: real time    0.0467
    CHARGE:  cpu time    0.4399: real time    0.4409
    MIXING:  cpu time    0.0024: real time    0.0024
    --------------------------------------------
      LOOP:  cpu time   14.3694: real time   14.4057

 eigenvalue-minimisations  : 13932
 total energy-change (2. order) : 0.4795838E-02  (-0.1198000E-01)
 number of electron     276.0000057 magnetization      43.8488872
 augmentation part      112.4133254 magnetization      30.3219093

 Broyden mixing:
  rms(total) = 0.45546E+00    rms(broyden)= 0.45544E+00
  rms(prec ) = 0.47823E+00
  weight for this iteration     100.00

 eigenvalues of (default mixing * dielectric matrix)
  average eigenvalue GAMMA=   1.4047
  3.6355  3.3127  0.9341  0.9341  0.3764  0.7212  0.7212  0.6024

 Free energy of the ion-electron system (eV)
  ---------------------------------------------------
  alpha Z        PSCENC =      1362.55286497
  Ewald energy   TEWEN  =    -25513.06237826
  -Hartree energ DENC   =     -9992.27959766
  -exchange      EXHF   =         0.00000000
  -V(xc)+E(xc)   XCENC  =      1358.73016531
  PAW double counting   =     36027.86665202   -37194.15422413
  entropy T*S    EENTRO =         0.00000000
  eigenvalues    EBANDS =     -3542.40275281
  atomic energy  EATOM  =     37271.45667804
  Solvation  Ediel_sol  =         0.00000000
  ---------------------------------------------------
  free energy    TOTEN  =      -221.29259253 eV

  energy without entropy =     -221.29259253  energy(sigma->0) =     -221.29259253


--------------------------------------------------------------------------------------------------------




--------------------------------------- Iteration      1(  14)  ---------------------------------------


    POTLOK:  cpu time    0.0794: real time    0.0797
    SETDIJ:  cpu time    0.0128: real time    0.0128
     EDDAV:  cpu time   14.4748: real time   14.5115
 BZINTS: Fermi energy:  6.176815;276.000000 electrons
         Band energy:***********;  BLOECHL correction: -0.032719
       DOS:  cpu time    0.0519: real time    0.0521
    CHARGE:  cpu time    0.4390: real time    0.4401
    MIXING:  cpu time    0.0024: real time    0.0025
    --------------------------------------------
      LOOP:  cpu time   15.0604: real time   15.0985

 eigenvalue-minimisations  : 14736
 total energy-change (2. order) :-0.4802480E-01  (-0.1676245E-01)
 number of electron     276.0000058 magnetization      42.9788486
 augmentation part      112.2265301 magnetization      29.8334602

 Broyden mixing:
  rms(total) = 0.16580E+00    rms(broyden)= 0.16572E+00
  rms(prec ) = 0.17234E+00
  weight for this iteration     100.00

 eigenvalues of (default mixing * dielectric matrix)
  average eigenvalue GAMMA=   1.5128
  5.3755  2.7705  1.2679  0.3764  0.8448  0.8448  0.8748  0.6305  0.6305

 Free energy of the ion-electron system (eV)
  ---------------------------------------------------
  alpha Z        PSCENC =      1362.55286497
  Ewald energy   TEWEN  =    -25513.06237826
  -Hartree energ DENC   =    -10004.87687995
  -exchange      EXHF   =         0.00000000
  -V(xc)+E(xc)   XCENC  =      1357.62570060
  PAW double counting   =     35826.83519832   -36990.11114790
  entropy T*S    EENTRO =         0.00000000
  eigenvalues    EBANDS =     -3531.76065314
  atomic energy  EATOM  =     37271.45667804
  Solvation  Ediel_sol  =         0.00000000
  ---------------------------------------------------
  free energy    TOTEN  =      -221.34061732 eV

  energy without entropy =     -221.34061732  energy(sigma->0) =     -221.34061732


--------------------------------------------------------------------------------------------------------




--------------------------------------- Iteration      1(  15)  ---------------------------------------


    POTLOK:  cpu time    0.0802: real time    0.0805
    SETDIJ:  cpu time    0.0132: real time    0.0132
     EDDAV:  cpu time   12.0819: real time   12.1128
 BZINTS: Fermi energy:  6.159920;276.000000 electrons
         Band energy:***********;  BLOECHL correction: -0.033115
       DOS:  cpu time    0.0416: real time    0.0417
    CHARGE:  cpu time    0.4341: real time    0.4352
    MIXING:  cpu time    0.0026: real time    0.0026
    --------------------------------------------
      LOOP:  cpu time   12.6537: real time   12.6860

 eigenvalue-minimisations  : 12348
 total energy-change (2. order) :-0.1957756E-01  (-0.6484998E-02)
 number of electron     276.0000058 magnetization      42.5652826
 augmentation part      112.2915952 magnetization      29.5961112

 Broyden mixing:
  rms(total) = 0.13758E+00    rms(broyden)= 0.13756E+00
  rms(prec ) = 0.14619E+00
  weight for this iteration     100.00

 eigenvalues of (default mixing * dielectric matrix)
  average eigenvalue GAMMA=   1.5434
  6.0935  2.8410  1.3713  1.0766  0.3764  0.8476  0.8476  0.6925  0.6925  0.5954

 Free energy of the ion-electron system (eV)
  ---------------------------------------------------
  alpha Z        PSCENC =      1362.55286497
  Ewald energy   TEWEN  =    -25513.06237826
  -Hartree energ DENC   =    -10002.97897795
  -exchange      EXHF   =         0.00000000
  -V(xc)+E(xc)   XCENC  =      1357.14146064
  PAW double counting   =     35818.89811198   -36981.87374613
  entropy T*S    EENTRO =         0.00000000
  eigenvalues    EBANDS =     -3533.49420816
  atomic energy  EATOM  =     37271.45667804
  Solvation  Ediel_sol  =         0.00000000
  ---------------------------------------------------
  free energy    TOTEN  =      -221.36019489 eV

  energy without entropy =     -221.36019489  energy(sigma->0) =     -221.36019489


--------------------------------------------------------------------------------------------------------




--------------------------------------- Iteration      1(  16)  ---------------------------------------


    POTLOK:  cpu time    0.0774: real time    0.0779
    SETDIJ:  cpu time    0.0127: real time    0.0128
     EDDAV:  cpu time   13.2975: real time   13.3310
 BZINTS: Fermi energy:  6.182889;276.000000 electrons
         Band energy:***********;  BLOECHL correction: -0.032918
       DOS:  cpu time    0.0497: real time    0.0500
    CHARGE:  cpu time    0.4360: real time    0.4370
    MIXING:  cpu time    0.0027: real time    0.0027
    --------------------------------------------
      LOOP:  cpu time   13.8760: real time   13.9113

 eigenvalue-minimisations  : 13800
 total energy-change (2. order) : 0.5437102E-02  (-0.9858571E-03)
 number of electron     276.0000058 magnetization      42.4487306
 augmentation part      112.1948311 magnetization      29.4682996

 Broyden mixing:
  rms(total) = 0.32023E-01    rms(broyden)= 0.32003E-01
  rms(prec ) = 0.33270E-01
  weight for this iteration     100.00

 eigenvalues of (default mixing * dielectric matrix)
  average eigenvalue GAMMA=   1.5311
  6.2654  2.7898  1.3133  1.3133  0.3764  1.0693  0.8218  0.8218  0.7321  0.7321
  0.6064

 Free energy of the ion-electron system (eV)
  ---------------------------------------------------
  alpha Z        PSCENC =      1362.55286497
  Ewald energy   TEWEN  =    -25513.06237826
  -Hartree energ DENC   =    -10007.76913503
  -exchange      EXHF   =         0.00000000
  -V(xc)+E(xc)   XCENC  =      1357.05411202
  PAW double counting   =     35779.55834419   -36942.51208961
  entropy T*S    EENTRO =         0.00000000
  eigenvalues    EBANDS =     -3528.63315409
  atomic energy  EATOM  =     37271.45667804
  Solvation  Ediel_sol  =         0.00000000
  ---------------------------------------------------
  free energy    TOTEN  =      -221.35475778 eV

  energy without entropy =     -221.35475778  energy(sigma->0) =     -221.35475778


--------------------------------------------------------------------------------------------------------




--------------------------------------- Iteration      1(  17)  ---------------------------------------


    POTLOK:  cpu time    0.0789: real time    0.0793
    SETDIJ:  cpu time    0.0129: real time    0.0130
     EDDAV:  cpu time   12.3156: real time   12.3466
 BZINTS: Fermi energy:  6.183365;276.000000 electrons
         Band energy:***********;  BLOECHL correction: -0.032868
       DOS:  cpu time    0.0487: real time    0.0488
    CHARGE:  cpu time    0.4348: real time    0.4360
    MIXING:  cpu time    0.0027: real time    0.0027
    --------------------------------------------
      LOOP:  cpu time   12.8936: real time   12.9263

 eigenvalue-minimisations  : 12156
 total energy-change (2. order) :-0.7599336E-03  (-0.4352817E-03)
 number of electron     276.0000058 magnetization      42.3633432
 augmentation part      112.1942053 magnetization      29.3962663

 Broyden mixing:
  rms(total) = 0.17283E-01    rms(broyden)= 0.17277E-01
  rms(prec ) = 0.17818E-01
  weight for this iteration     100.00

 eigenvalues of (default mixing * dielectric matrix)
  average eigenvalue GAMMA=   1.5537
  6.4303  2.7559  2.4580  0.3764  1.0777  1.0777  0.8910  0.8910  0.7146  0.7146
  0.6021  0.6550

 Free energy of the ion-electron system (eV)
  ---------------------------------------------------
  alpha Z        PSCENC =      1362.55286497
  Ewald energy   TEWEN  =    -25513.06237826
  -Hartree energ DENC   =    -10007.37680670
  -exchange      EXHF   =         0.00000000
  -V(xc)+E(xc)   XCENC  =      1357.00023960
  PAW double counting   =     35799.60603395   -36963.11391798
  entropy T*S    EENTRO =         0.00000000
  eigenvalues    EBANDS =     -3528.41823133
  atomic energy  EATOM  =     37271.45667804
  Solvation  Ediel_sol  =         0.00000000
  ---------------------------------------------------
  free energy    TOTEN  =      -221.35551772 eV

  energy without entropy =     -221.35551772  energy(sigma->0) =     -221.35551772


--------------------------------------------------------------------------------------------------------




--------------------------------------- Iteration      1(  18)  ---------------------------------------


    POTLOK:  cpu time    0.0757: real time    0.0759
    SETDIJ:  cpu time    0.0123: real time    0.0123
     EDDAV:  cpu time   13.4497: real time   13.4836
 BZINTS: Fermi energy:  6.183466;276.000000 electrons
         Band energy:***********;  BLOECHL correction: -0.033015
       DOS:  cpu time    0.0491: real time    0.0494
    CHARGE:  cpu time    0.4344: real time    0.4354
    MIXING:  cpu time    0.0028: real time    0.0028
    --------------------------------------------
      LOOP:  cpu time   14.0239: real time   14.0594

 eigenvalue-minimisations  : 13596
 total energy-change (2. order) :-0.2715747E-03  (-0.1836763E-04)
 number of electron     276.0000058 magnetization      42.3115748
 augmentation part      112.1907744 magnetization      29.3610966

 Broyden mixing:
  rms(total) = 0.99355E-02    rms(broyden)= 0.99318E-02
  rms(prec ) = 0.10347E-01
  weight for this iteration     100.00

 eigenvalues of (default mixing * dielectric matrix)
  average eigenvalue GAMMA=   1.5218
  6.5557  2.8293  2.4531  1.1488  1.1488  0.9524  0.9524  0.3764  0.7307  0.7307
  0.6948  0.6052  0.6052

 Free energy of the ion-electron system (eV)
  ---------------------------------------------------
  alpha Z        PSCENC =      1362.55286497
  Ewald energy   TEWEN  =    -25513.06237826
  -Hartree energ DENC   =    -10007.57599788
  -exchange      EXHF   =         0.00000000
  -V(xc)+E(xc)   XCENC  =      1356.95748211
  PAW double counting   =     35798.81137249   -36962.37859008
  entropy T*S    EENTRO =         0.00000000
  eigenvalues    EBANDS =     -3528.11722068
  atomic energy  EATOM  =     37271.45667804
  Solvation  Ediel_sol  =         0.00000000
  ---------------------------------------------------
  free energy    TOTEN  =      -221.35578929 eV

  energy without entropy =     -221.35578929  energy(sigma->0) =     -221.35578929


--------------------------------------------------------------------------------------------------------




--------------------------------------- Iteration      1(  19)  ---------------------------------------


    POTLOK:  cpu time    0.0781: real time    0.0784
    SETDIJ:  cpu time    0.0129: real time    0.0130
     EDDAV:  cpu time   13.8236: real time   13.8586
 BZINTS: Fermi energy:  6.184488;276.000000 electrons
         Band energy:***********;  BLOECHL correction: -0.033100
       DOS:  cpu time    0.0450: real time    0.0451
    CHARGE:  cpu time    0.4371: real time    0.4381
    MIXING:  cpu time    0.0030: real time    0.0030
    --------------------------------------------
      LOOP:  cpu time   14.3998: real time   14.4362

 eigenvalue-minimisations  : 14064
 total energy-change (2. order) :-0.8092780E-04  (-0.8276618E-05)
 number of electron     276.0000058 magnetization      42.2958006
 augmentation part      112.1859586 magnetization      29.3536447

 Broyden mixing:
  rms(total) = 0.26359E-02    rms(broyden)= 0.26303E-02
  rms(prec ) = 0.28018E-02
  weight for this iteration     100.00

 eigenvalues of (default mixing * dielectric matrix)
  average eigenvalue GAMMA=   1.5120
  6.6463  2.8561  2.4143  1.4336  1.1387  1.0120  1.0120  0.3764  0.7833  0.7833
  0.7463  0.7463  0.6100  0.6100

 Free energy of the ion-electron system (eV)
  ---------------------------------------------------
  alpha Z        PSCENC =      1362.55286497
  Ewald energy   TEWEN  =    -25513.06237826
  -Hartree energ DENC   =    -10007.92852682
  -exchange      EXHF   =         0.00000000
  -V(xc)+E(xc)   XCENC  =      1356.93691370
  PAW double counting   =     35794.36317224   -36957.87906817
  entropy T*S    EENTRO =         0.00000000
  eigenvalues    EBANDS =     -3527.79552591
  atomic energy  EATOM  =     37271.45667804
  Solvation  Ediel_sol  =         0.00000000
  ---------------------------------------------------
  free energy    TOTEN  =      -221.35587022 eV

  energy without entropy =     -221.35587022  energy(sigma->0) =     -221.35587022


--------------------------------------------------------------------------------------------------------




--------------------------------------- Iteration      1(  20)  ---------------------------------------


    POTLOK:  cpu time    0.0782: real time    0.0785
    SETDIJ:  cpu time    0.0127: real time    0.0128
     EDDAV:  cpu time   13.5315: real time   13.5657
 BZINTS: Fermi energy:  6.184965;276.000000 electrons
         Band energy:***********;  BLOECHL correction: -0.033116
       DOS:  cpu time    0.0465: real time    0.0466
    CHARGE:  cpu time    0.4350: real time    0.4362
    MIXING:  cpu time    0.0032: real time    0.0032
    --------------------------------------------
      LOOP:  cpu time   14.1071: real time   14.1430

 eigenvalue-minimisations  : 13692
 total energy-change (2. order) :-0.1717551E-04  (-0.3445207E-05)
 number of electron     276.0000058 magnetization      42.2909720
 augmentation part      112.1841212 magnetization      29.3507419

 Broyden mixing:
  rms(total) = 0.87197E-03    rms(broyden)= 0.86943E-03
  rms(prec ) = 0.90419E-03
  weight for this iteration     100.00

 eigenvalues of (default mixing * dielectric matrix)
  average eigenvalue GAMMA=   1.4847
  6.6753  2.9283  2.4153  1.6489  1.0168  1.0168  0.3764  0.9933  0.9933  0.8109
  0.7340  0.7340  0.6027  0.6622  0.6622

 Free energy of the ion-electron system (eV)
  ---------------------------------------------------
  alpha Z        PSCENC =      1362.55286497
  Ewald energy   TEWEN  =    -25513.06237826
  -Hartree energ DENC   =    -10008.04446969
  -exchange      EXHF   =         0.00000000
  -V(xc)+E(xc)   XCENC  =      1356.92954197
  PAW double counting   =     35793.68441937   -36957.19889712
  entropy T*S    EENTRO =         0.00000000
  eigenvalues    EBANDS =     -3527.67364668
  atomic energy  EATOM  =     37271.45667804
  Solvation  Ediel_sol  =         0.00000000
  ---------------------------------------------------
  free energy    TOTEN  =      -221.35588740 eV

  energy without entropy =     -221.35588740  energy(sigma->0) =     -221.35588740


--------------------------------------------------------------------------------------------------------




--------------------------------------- Iteration      1(  21)  ---------------------------------------


    POTLOK:  cpu time    0.0767: real time    0.0771
    SETDIJ:  cpu time    0.0128: real time    0.0128
     EDDAV:  cpu time   12.1237: real time   12.1543
 BZINTS: Fermi energy:  6.185080;276.000000 electrons
         Band energy:***********;  BLOECHL correction: -0.033127
       DOS:  cpu time    0.0501: real time    0.0502
    CHARGE:  cpu time    0.4359: real time    0.4369
    MIXING:  cpu time    0.0033: real time    0.0033
    --------------------------------------------
      LOOP:  cpu time   12.7025: real time   12.7347

 eigenvalue-minimisations  : 11868
 total energy-change (2. order) :-0.1104933E-04  (-0.4048832E-06)
 number of electron     276.0000058 magnetization      42.2917208
 augmentation part      112.1839492 magnetization      29.3524184

 Broyden mixing:
  rms(total) = 0.89661E-03    rms(broyden)= 0.89627E-03
  rms(prec ) = 0.93849E-03
  weight for this iteration     100.00

 eigenvalues of (default mixing * dielectric matrix)
  average eigenvalue GAMMA=   1.4883
  6.6904  2.9814  2.2588  2.2588  1.1245  1.1245  1.0205  1.0205  0.3764  0.8030
  0.8030  0.7262  0.7262  0.6863  0.6063  0.6063

 Free energy of the ion-electron system (eV)
  ---------------------------------------------------
  alpha Z        PSCENC =      1362.55286497
  Ewald energy   TEWEN  =    -25513.06237826
  -Hartree energ DENC   =    -10008.08492215
  -exchange      EXHF   =         0.00000000
  -V(xc)+E(xc)   XCENC  =      1356.92809670
  PAW double counting   =     35793.20948980   -36956.72294269
  entropy T*S    EENTRO =         0.00000000
  eigenvalues    EBANDS =     -3527.63278485
  atomic energy  EATOM  =     37271.45667804
  Solvation  Ediel_sol  =         0.00000000
  ---------------------------------------------------
  free energy    TOTEN  =      -221.35589844 eV

  energy without entropy =     -221.35589844  energy(sigma->0) =     -221.35589844


--------------------------------------------------------------------------------------------------------




--------------------------------------- Iteration      1(  22)  ---------------------------------------


    POTLOK:  cpu time    0.0785: real time    0.0788
    SETDIJ:  cpu time    0.0129: real time    0.0130
     EDDAV:  cpu time   10.1250: real time   10.1506
 BZINTS: Fermi energy:  6.185027;276.000000 electrons
         Band energy:***********;  BLOECHL correction: -0.033128
       DOS:  cpu time    0.0501: real time    0.0502
    CHARGE:  cpu time    0.4339: real time    0.4350
    MIXING:  cpu time    0.0036: real time    0.0036
    --------------------------------------------
      LOOP:  cpu time   10.7040: real time   10.7311

 eigenvalue-minimisations  :  9240
 total energy-change (2. order) :-0.8524585E-06  (-0.3468005E-07)
 number of electron     276.0000058 magnetization      42.2944500
 augmentation part      112.1842346 magnetization      29.3552185

 Broyden mixing:
  rms(total) = 0.65583E-03    rms(broyden)= 0.65581E-03
  rms(prec ) = 0.68038E-03
  weight for this iteration     100.00

 eigenvalues of (default mixing * dielectric matrix)
  average eigenvalue GAMMA=   1.4717
  6.6780  2.9733  2.3696  2.3696  1.2241  1.2241  1.0248  1.0248  0.3764  0.8618
  0.8618  0.7257  0.7257  0.7045  0.6033  0.6358  0.6358

 Free energy of the ion-electron system (eV)
  ---------------------------------------------------
  alpha Z        PSCENC =      1362.55286497
  Ewald energy   TEWEN  =    -25513.06237826
  -Hartree energ DENC   =    -10008.07338503
  -exchange      EXHF   =         0.00000000
  -V(xc)+E(xc)   XCENC  =      1356.92822205
  PAW double counting   =     35793.27480221   -36956.78921326
  entropy T*S    EENTRO =         0.00000000
  eigenvalues    EBANDS =     -3527.64349002
  atomic energy  EATOM  =     37271.45667804
  Solvation  Ediel_sol  =         0.00000000
  ---------------------------------------------------
  free energy    TOTEN  =      -221.35589930 eV

  energy without entropy =     -221.35589930  energy(sigma->0) =     -221.35589930


--------------------------------------------------------------------------------------------------------




--------------------------------------- Iteration      1(  23)  ---------------------------------------


    POTLOK:  cpu time    0.0784: real time    0.0787
    SETDIJ:  cpu time    0.0129: real time    0.0129
     EDDAV:  cpu time    9.4766: real time    9.5006
 BZINTS: Fermi energy:  6.184994;276.000000 electrons
         Band energy:***********;  BLOECHL correction: -0.033124
       DOS:  cpu time    0.0501: real time    0.0503
    CHARGE:  cpu time    0.4351: real time    0.4361
    MIXING:  cpu time    0.0036: real time    0.0036
    --------------------------------------------
      LOOP:  cpu time   10.0567: real time   10.0822

 eigenvalue-minimisations  :  8364
 total energy-change (2. order) : 0.3925736E-05  (-0.1779514E-07)
 number of electron     276.0000058 magnetization      42.2956957
 augmentation part      112.1844198 magnetization      29.3560037

 Broyden mixing:
  rms(total) = 0.26151E-03    rms(broyden)= 0.26146E-03
  rms(prec ) = 0.27752E-03
  weight for this iteration     100.00

 eigenvalues of (default mixing * dielectric matrix)
  average eigenvalue GAMMA=   1.4728
  6.6674  3.0068  2.5360  2.2748  1.4287  1.4287  1.0514  1.0514  0.3764  0.9204
  0.9204  0.8235  0.7307  0.7307  0.6746  0.6746  0.6070  0.6070

 Free energy of the ion-electron system (eV)
  ---------------------------------------------------
  alpha Z        PSCENC =      1362.55286497
  Ewald energy   TEWEN  =    -25513.06237826
  -Hartree energ DENC   =    -10008.05693284
  -exchange      EXHF   =         0.00000000
  -V(xc)+E(xc)   XCENC  =      1356.92947347
  PAW double counting   =     35793.55049983   -36957.06987112
  entropy T*S    EENTRO =         0.00000000
  eigenvalues    EBANDS =     -3527.65622945
  atomic energy  EATOM  =     37271.45667804
  Solvation  Ediel_sol  =         0.00000000
  ---------------------------------------------------
  free energy    TOTEN  =      -221.35589537 eV

  energy without entropy =     -221.35589537  energy(sigma->0) =     -221.35589537


--------------------------------------------------------------------------------------------------------




--------------------------------------- Iteration      1(  24)  ---------------------------------------


    POTLOK:  cpu time    0.0778: real time    0.0781
    SETDIJ:  cpu time    0.0123: real time    0.0124
     EDDAV:  cpu time    7.8025: real time    7.8222
 BZINTS: Fermi energy:  6.184981;276.000000 electrons
         Band energy:***********;  BLOECHL correction: -0.033123
       DOS:  cpu time    0.0490: real time    0.0491
    CHARGE:  cpu time    0.4391: real time    0.4401
    MIXING:  cpu time    0.0037: real time    0.0037
    --------------------------------------------
      LOOP:  cpu time    8.3844: real time    8.4056

 eigenvalue-minimisations  :  6792
 total energy-change (2. order) : 0.1466593E-05  (-0.1253573E-07)
 number of electron     276.0000058 magnetization      42.2956717
 augmentation part      112.1845139 magnetization      29.3558190

 Broyden mixing:
  rms(total) = 0.10315E-03    rms(broyden)= 0.10306E-03
  rms(prec ) = 0.10872E-03
  weight for this iteration     100.00

 eigenvalues of (default mixing * dielectric matrix)
[...]
  0.000  -0.002  -0.000   0.000  -0.001   0.000   0.000  -0.000  -0.006  -0.000   0.000   0.000  -0.000   0.009   0.000  -0.000
 total augmentation occupancy for first ion, spin component:           2
 -0.003  -0.000  -0.000  -0.010   0.000   0.000   0.002   0.001  -0.000   0.000   0.000  -0.003  -0.002   0.000  -0.000  -0.000
  0.000  -0.003  -0.000   0.000  -0.010  -0.000   0.000  -0.000  -0.001   0.000   0.000  -0.000   0.000   0.002   0.000  -0.000
  0.000   0.000  -0.003  -0.000   0.000  -0.010   0.000  -0.000   0.000   0.001  -0.002  -0.000   0.000  -0.000  -0.002   0.003
 -0.010  -0.000  -0.000   0.021  -0.000  -0.000  -0.085  -0.050  -0.000   0.002   0.013   0.049   0.032   0.000  -0.001  -0.008
  0.000  -0.010   0.000  -0.000   0.017  -0.000   0.000   0.000   0.076  -0.000  -0.000  -0.000  -0.000  -0.043   0.000   0.000
  0.000  -0.000  -0.010  -0.000  -0.000   0.021   0.013  -0.002  -0.000  -0.050   0.085  -0.008   0.001   0.000   0.032  -0.049
  0.002  -0.000   0.000  -0.085  -0.000   0.013   4.288   0.573   0.000  -0.179  -0.000  -2.423  -0.467  -0.000   0.165   0.002
  0.001  -0.000  -0.000  -0.050  -0.000  -0.002   0.573   5.011   0.000   0.000  -0.179  -0.466  -3.018  -0.000   0.003   0.166
 -0.000  -0.001   0.000  -0.000   0.076  -0.000  -0.000   0.000   4.385   0.000  -0.000   0.000  -0.000  -2.381  -0.000   0.000
  0.000  -0.000   0.001   0.002   0.000  -0.050  -0.179  -0.000   0.000   5.011  -0.573   0.166  -0.003  -0.000  -3.018   0.466
  0.000   0.000  -0.002   0.013  -0.000   0.085   0.000  -0.179  -0.000  -0.573   4.288  -0.002   0.165   0.000   0.467  -2.423
 -0.003  -0.000  -0.000   0.049   0.000  -0.008  -2.423  -0.466   0.000   0.166  -0.002   1.291   0.329   0.000  -0.128  -0.000
 -0.002   0.000   0.000   0.032   0.000   0.001  -0.467  -3.018  -0.000  -0.003   0.165   0.329   1.745   0.000   0.000  -0.128
  0.000   0.002  -0.000   0.000  -0.043   0.000  -0.000  -0.000  -2.381  -0.000   0.000   0.000   0.000   1.230   0.000  -0.000
 -0.000  -0.000  -0.002  -0.001   0.000   0.032   0.165   0.003  -0.000  -3.018   0.467  -0.128   0.000   0.000   1.745  -0.329
 -0.000  -0.000   0.003  -0.008   0.000  -0.049   0.002   0.166   0.000   0.466  -2.423   0.000  -0.128  -0.000  -0.329   1.291
 -0.000   0.000   0.000  -0.000   0.001   0.000  -0.000  -0.000   0.044  -0.000  -0.000   0.000  -0.000  -0.022   0.000   0.000
  0.000   0.000   0.000  -0.000   0.001   0.000  -0.000  -0.000   0.007   0.000  -0.000  -0.000   0.000  -0.005  -0.000   0.000


------------------------ aborting loop because EDIFF is reached ----------------------------------------


 


 total charge     
 
# of ion       s       p       d       tot
------------------------------------------
    1        0.284   6.340   5.853  12.476
    2        0.284   6.340   5.855  12.479
    3        0.284   6.340   5.862  12.486
    4        0.284   6.340   5.852  12.476
    5        0.284   6.340   5.855  12.478
    6        0.284   6.340   5.865  12.489
    7        0.284   6.340   5.851  12.475
    8        0.284   6.340   5.854  12.477
    9        0.283   6.340   5.854  12.478
   10        0.283   6.340   5.869  12.492
   11        0.283   6.340   5.866  12.489
   12        0.283   6.340   5.857  12.480
   13        1.572   3.414   0.000   4.985
   14        1.572   3.413   0.000   4.985
   15        1.572   3.414   0.000   4.985
   16        1.572   3.415   0.000   4.986
   17        1.572   3.415   0.000   4.986
   18        1.572   3.414   0.000   4.985
   19        1.571   3.401   0.000   4.972
   20        1.571   3.401   0.000   4.972
   21        1.571   3.402   0.000   4.973
   22        1.571   3.402   0.000   4.973
   23        1.571   3.402   0.000   4.973
   24        1.571   3.402   0.000   4.973
   25        1.573   3.415   0.000   4.987
   26        1.573   3.414   0.000   4.987
   27        1.573   3.416   0.000   4.988
   28        1.573   3.417   0.000   4.990
   29        1.573   3.417   0.000   4.989
   30        1.573   3.416   0.000   4.989
--------------------------------------------------
tot         31.692 137.471  70.292 239.455
 


 magnetization (x)
 
# of ion       s       p       d       tot
------------------------------------------
    1        0.024   0.036   3.138   3.198
    2        0.024   0.036   3.135   3.196
    3        0.025   0.036   3.132   3.192
    4        0.025   0.036   3.138   3.199
    5        0.025   0.036   3.138   3.199
    6        0.025   0.036   3.130   3.190
    7        0.024   0.036   3.122   3.182
    8        0.024   0.036   3.119   3.180
    9        0.025   0.036   3.120   3.181
   10        0.025   0.036   3.114   3.174
   11        0.025   0.036   3.116   3.177
   12        0.025   0.036   3.120   3.181
   13        0.020   0.139   0.000   0.159
   14        0.020   0.138   0.000   0.159
   15        0.020   0.139   0.000   0.159
   16        0.020   0.140   0.000   0.160
   17        0.020   0.140   0.000   0.160
   18        0.020   0.139   0.000   0.159
   19        0.021   0.143   0.000   0.164
   20        0.021   0.143   0.000   0.164
   21        0.021   0.144   0.000   0.165
   22        0.021   0.143   0.000   0.165
   23        0.021   0.144   0.000   0.165
   24        0.021   0.144   0.000   0.165
   25        0.020   0.135   0.000   0.156
   26        0.020   0.134   0.000   0.155
   27        0.020   0.136   0.000   0.156
   28        0.020   0.137   0.000   0.157
   29        0.020   0.137   0.000   0.157
   30        0.020   0.136   0.000   0.157
--------------------------------------------------
tot          0.668   2.942  37.522  41.132
 
    CHARGE:  cpu time    0.4339: real time    0.4351
    FORLOC:  cpu time    0.0088: real time    0.0088
    FORNL :  cpu time    3.2676: real time    3.2759
    STRESS:  cpu time    9.7993: real time    9.8240
    FORCOR:  cpu time    0.0876: real time    0.0878
    FORHAR:  cpu time    0.0151: real time    0.0152
    MIXING:  cpu time    0.0043: real time    0.0043
    OFIELD:  cpu time    0.0001: real time    0.0001

  FORCE on cell =-STRESS in cart. coord.  units (eV):
  Direction    XX          YY          ZZ          XY          YZ          ZX
  --------------------------------------------------------------------------------------
  Alpha Z  1362.55286  1362.55286  1362.55286
  Ewald   -8201.75422 -8201.75360 -9109.63806     0.00000     0.00002    -0.00000
  Hartree  3504.03345  3504.03331  2999.97781    -0.00000     0.00001    -0.00000
  E(xc)   -1615.75425 -1615.75430 -1617.31802    -0.00004     0.00000    -0.00000
  Local    -163.82862  -163.82954  1232.14855    -0.00108    -0.00004     0.00000
  n-local  -744.03526  -742.91683  -745.44576    -4.18113     0.49738     0.12886
  augment  1845.03079  1845.03151  1846.88646     0.00089    -0.00000     0.00000
  Kinetic  4005.95162  4008.06050  4023.79502     7.63912    -1.97665    -5.06824
  Fock        0.00000     0.00000     0.00000     0.00000     0.00000     0.00000
  -------------------------------------------------------------------------------------
  Total      -6.18985    -6.18985    -7.04113     0.00000    -0.00000    -0.00000
  in kB     -32.83109   -32.83108   -37.34632     0.00000    -0.00000    -0.00000
  external pressure =      -34.34 kB  Pullay stress =        0.00 kB


 VOLUME and BASIS-vectors are now :
 -----------------------------------------------------------------------------
  energy-cutoff  :      520.00
  volume of cell :      302.07
      direct lattice vectors                 reciprocal lattice vectors
     5.035100000  0.000000000  0.000000000     0.198605787  0.114665118  0.000000000
    -2.517550000  4.360524000  0.000000000     0.000000000  0.229330236  0.000000000
     0.000000000  0.000000000 13.758100000     0.000000000  0.000000000  0.072684455

  length of vectors
     5.035100000  5.035099558 13.758100000     0.229330216  0.229330236  0.072684455


 FORCES acting on ions
    electron-ion (+dipol)            ewald-force                    non-local-force                 convergence-correction
 -----------------------------------------------------------------------------------------------
   0.156E-03 0.366E-03 -.126E+03   -.101E-02 0.523E-03 0.128E+03   0.217E-17 -.434E-17 -.289E+01   0.129E-08 -.105E-08 -.960E-05
   -.402E-03 0.579E-03 0.126E+03   0.101E-02 -.523E-03 -.128E+03   0.260E-17 -.477E-17 0.289E+01   -.166E-08 0.111E-08 0.960E-05
   -.134E-03 0.533E-03 -.126E+03   0.314E-02 -.187E-02 0.128E+03   -.434E-18 -.130E-17 -.289E+01   -.111E-07 0.613E-08 -.861E-05
   -.328E-03 0.646E-03 -.126E+03   -.220E-02 0.121E-02 0.128E+03   0.217E-17 0.434E-18 -.289E+01   0.970E-08 -.587E-08 -.827E-05
   0.819E-04 0.299E-03 0.126E+03   0.220E-02 -.121E-02 -.128E+03   -.347E-17 -.260E-17 0.289E+01   -.101E-07 0.593E-08 0.827E-05
   -.113E-03 0.412E-03 0.126E+03   -.314E-02 0.187E-02 -.128E+03   0.000E+00 -.564E-17 0.289E+01   0.107E-07 -.606E-08 0.861E-05
   0.566E-03 -.105E-02 0.126E+03   0.964E-03 -.523E-03 -.128E+03   -.369E-17 0.173E-17 0.289E+01   -.206E-08 0.103E-08 0.960E-05
   0.104E-02 -.127E-02 -.126E+03   -.964E-03 0.523E-03 0.128E+03   -.976E-17 -.434E-18 -.289E+01   0.134E-08 -.365E-09 -.960E-05
   0.105E-02 -.133E-02 0.126E+03   0.215E-02 -.121E-02 -.128E+03   0.239E-17 0.477E-17 0.289E+01   -.104E-07 0.590E-08 0.827E-05
   0.751E-03 -.110E-02 -.126E+03   0.319E-02 -.187E-02 0.128E+03   -.108E-17 0.651E-17 -.289E+01   -.111E-07 0.675E-08 -.861E-05
   0.855E-03 -.121E-02 0.126E+03   -.319E-02 0.187E-02 -.128E+03   -.434E-18 0.477E-17 0.289E+01   0.103E-07 -.609E-08 0.861E-05
   0.556E-03 -.987E-03 -.126E+03   -.215E-02 0.121E-02 0.128E+03   -.867E-17 -.867E-18 -.289E+01   0.972E-08 -.524E-08 -.827E-05
   -.424E+02 -.134E-02 0.214E-03   0.418E+02 0.106E-02 -.470E-03   0.679E+00 0.401E-17 0.618E-17   0.686E-06 -.229E-08 0.545E-09
   0.424E+02 -.863E-04 -.336E-03   -.418E+02 -.106E-02 0.470E-03   -.679E+00 0.206E-17 -.743E-17   -.686E-06 0.270E-08 -.223E-09
   -.424E+02 -.317E-02 -.585E-02   0.418E+02 0.570E-03 -.997E-03   0.679E+00 -.157E-17 0.542E-19   0.686E-06 0.358E-08 -.295E-06
   -.424E+02 0.238E-02 0.545E-02   0.418E+02 -.163E-02 0.147E-02   0.679E+00 0.141E-17 -.623E-17   0.684E-06 -.768E-09 0.295E-06
   0.424E+02 -.380E-02 -.557E-02   -.418E+02 0.163E-02 -.147E-02   -.679E+00 0.333E-17 0.228E-17   -.684E-06 0.118E-08 -.294E-06
   0.424E+02 0.175E-02 0.573E-02   -.418E+02 -.570E-03 0.997E-03   -.679E+00 0.331E-17 -.770E-17   -.686E-06 -.317E-08 0.295E-06
   0.212E+02 -.367E+02 -.307E-03   -.209E+02 0.362E+02 0.438E-03   -.339E+00 0.588E+00 -.434E-17   -.345E-06 0.592E-06 -.219E-09
   -.212E+02 0.367E+02 0.193E-03   0.209E+02 -.362E+02 -.438E-03   0.339E+00 -.588E+00 -.347E-17   0.345E-06 -.593E-06 0.530E-09
   0.212E+02 -.367E+02 -.554E-02   -.209E+02 0.362E+02 -.150E-02   -.339E+00 0.588E+00 0.260E-17   -.343E-06 0.591E-06 -.294E-06
   0.212E+02 -.367E+02 0.576E-02   -.209E+02 0.362E+02 0.964E-03   -.339E+00 0.588E+00 -.347E-17   -.340E-06 0.596E-06 0.295E-06
   -.212E+02 0.367E+02 -.587E-02   0.209E+02 -.362E+02 -.964E-03   0.339E+00 -.588E+00 -.607E-17   0.340E-06 -.596E-06 -.295E-06
   -.212E+02 0.367E+02 0.543E-02   0.209E+02 -.362E+02 0.150E-02   0.339E+00 -.588E+00 -.781E-17   0.343E-06 -.592E-06 0.295E-06
   0.212E+02 0.367E+02 0.945E-04   -.209E+02 -.362E+02 0.322E-04   -.339E+00 -.588E+00 -.260E-17   -.341E-06 -.590E-06 -.323E-09
   -.212E+02 -.367E+02 0.144E-03   0.209E+02 0.362E+02 -.322E-04   0.339E+00 0.588E+00 0.173E-17   0.340E-06 0.590E-06 -.304E-09
   0.212E+02 0.367E+02 -.409E-02   -.209E+02 -.362E+02 -.303E-02   -.339E+00 -.588E+00 0.260E-17   -.346E-06 -.593E-06 -.294E-06
   -.212E+02 -.367E+02 -.404E-02   0.209E+02 0.362E+02 -.310E-02   0.339E+00 0.588E+00 0.390E-17   0.340E-06 0.597E-06 -.294E-06
   0.212E+02 0.367E+02 0.428E-02   -.209E+02 -.362E+02 0.310E-02   -.339E+00 -.588E+00 -.867E-18   -.341E-06 -.596E-06 0.294E-06
   -.212E+02 -.367E+02 0.433E-02   0.209E+02 0.362E+02 0.303E-02   0.339E+00 0.588E+00 0.217E-17   0.346E-06 0.593E-06 0.294E-06
 -----------------------------------------------------------------------------------------------
   0.149E-01 -.165E-01 -.114E-04   -.995E-13 -.995E-13 -.192E-12   0.000E+00 0.000E+00 -.285E-16   -.505E-08 0.393E-08 0.589E-09
 
 
 POSITION                                       TOTAL-FORCE (eV/Angst)
 -----------------------------------------------------------------------------------
      0.00000      0.00000      4.88853         0.000000     -0.000000     -0.927858
      0.00000      0.00000      8.86957         0.000000     -0.000000      0.927858
     -0.00000      2.90702      0.30250         0.000000     -0.000000     -0.927858
      2.51755      1.45351      9.47456         0.000000     -0.000000     -0.927858
     -0.00000      2.90702      4.28354         0.000000     -0.000000      0.927858
      2.51755      1.45351     13.45560         0.000000     -0.000000      0.927858
      0.00000      0.00000      1.99052         0.000000     -0.000000      0.927858
      0.00000      0.00000     11.76758         0.000000     -0.000000     -0.927858
     -0.00000      2.90702     11.16259         0.000000     -0.000000      0.927858
     -0.00000      2.90702      7.18155         0.000000     -0.000000     -0.927858
      2.51755      1.45351      6.57655         0.000000     -0.000000      0.927858
      2.51755      1.45351      2.59551         0.000000     -0.000000     -0.927858
      1.54165      0.00000      3.43953         0.086889     -0.000000     -0.000000
      3.49345      0.00000     10.31858        -0.086889     -0.000000      0.000000
      1.54164      2.90702     12.61160         0.086889     -0.000000      0.000000
      4.05920      1.45351      8.02555         0.086889     -0.000000      0.000000
     -1.54165      2.90702      5.73255        -0.086889     -0.000000      0.000000
      0.97591      1.45351      1.14650        -0.086889     -0.000000     -0.000000
     -0.77082      1.33511      3.43953        -0.043445      0.075248     -0.000000
     -1.74673      3.02542     10.31858         0.043445     -0.075248      0.000000
     -0.77083      4.24212     12.61160        -0.043445      0.075248      0.000000
      1.74673      2.78861      8.02555        -0.043445      0.075248     -0.000000
      0.77082      1.57191      5.73255         0.043445     -0.075248      0.000000
      3.28838      0.11840      1.14650         0.043445     -0.075248     -0.000000
      1.74673      3.02542      3.43953        -0.043445     -0.075248     -0.000000
      0.77082      1.33511     10.31858         0.043445      0.075248      0.000000
     -0.77083      1.57191     12.61160        -0.043445     -0.075248      0.000000
      0.77082      4.24212      5.73255         0.043445      0.075248      0.000000
      1.74673      0.11840      8.02555        -0.043445     -0.075248     -0.000000
      3.28838      2.78861      1.14650         0.043445      0.075248      0.000000
 -----------------------------------------------------------------------------------
    total drift:                                0.014947     -0.016507     -0.000011


--------------------------------------------------------------------------------------------------------



  FREE ENERGIE OF THE ION-ELECTRON SYSTEM (eV)
  ---------------------------------------------------
  free  energy   TOTEN  =      -221.35589436 eV

  energy  without entropy=     -221.35589436  energy(sigma->0) =     -221.35589436
 


--------------------------------------------------------------------------------------------------------


    POTLOK:  cpu time    0.0910: real time    0.0912


--------------------------------------------------------------------------------------------------------


     LOOP+:  cpu time  376.3322: real time  377.3155
    4ORBIT:  cpu time    0.0000: real time    0.0000
 


 total charge     
 
# of ion       s       p       d       tot
------------------------------------------
    1        0.284   6.340   5.853  12.476
    2        0.284   6.340   5.855  12.479
    3        0.284   6.340   5.862  12.486
    4        0.284   6.340   5.852  12.476
    5        0.284   6.340   5.855  12.478
    6        0.284   6.340   5.865  12.489
    7        0.284   6.340   5.851  12.475
    8        0.284   6.340   5.854  12.477
    9        0.283   6.340   5.854  12.478
   10        0.283   6.340   5.869  12.492
   11        0.283   6.340   5.866  12.489
   12        0.283   6.340   5.857  12.480
   13        1.572   3.414   0.000   4.985
   14        1.572   3.413   0.000   4.985
   15        1.572   3.414   0.000   4.985
   16        1.572   3.415   0.000   4.986
   17        1.572   3.415   0.000   4.986
   18        1.572   3.414   0.000   4.985
   19        1.571   3.401   0.000   4.972
   20        1.571   3.401   0.000   4.972
   21        1.571   3.402   0.000   4.973
   22        1.571   3.402   0.000   4.973
   23        1.571   3.402   0.000   4.973
   24        1.571   3.402   0.000   4.973
   25        1.573   3.415   0.000   4.987
   26        1.573   3.414   0.000   4.987
   27        1.573   3.416   0.000   4.988
   28        1.573   3.417   0.000   4.990
   29        1.573   3.417   0.000   4.989
   30        1.573   3.416   0.000   4.989
--------------------------------------------------
tot         31.692 137.471  70.292 239.455
 


 magnetization (x)
 
# of ion       s       p       d       tot
------------------------------------------
    1        0.024   0.036   3.138   3.198
    2        0.024   0.036   3.135   3.196
    3        0.025   0.036   3.132   3.192
    4        0.025   0.036   3.138   3.199
    5        0.025   0.036   3.138   3.199
    6        0.025   0.036   3.130   3.190
    7        0.024   0.036   3.122   3.182
    8        0.024   0.036   3.119   3.180
    9        0.025   0.036   3.120   3.181
   10        0.025   0.036   3.114   3.174
   11        0.025   0.036   3.116   3.177
   12        0.025   0.036   3.120   3.181
   13        0.020   0.139   0.000   0.159
   14        0.020   0.138   0.000   0.159
   15        0.020   0.139   0.000   0.159
   16        0.020   0.140   0.000   0.160
   17        0.020   0.140   0.000   0.160
   18        0.020   0.139   0.000   0.159
   19        0.021   0.143   0.000   0.164
   20        0.021   0.143   0.000   0.164
   21        0.021   0.144   0.000   0.165
   22        0.021   0.143   0.000   0.165
   23        0.021   0.144   0.000   0.165
   24        0.021   0.144   0.000   0.165
   25        0.020   0.135   0.000   0.156
   26        0.020   0.134   0.000   0.155
   27        0.020   0.136   0.000   0.156
   28        0.020   0.137   0.000   0.157
   29        0.020   0.137   0.000   0.157
   30        0.020   0.136   0.000   0.157
--------------------------------------------------
tot          0.668   2.942  37.522  41.132
 
 BZINTS: Fermi energy:  6.184957;276.000000 electrons
         Band energy:***********;  BLOECHL correction: -0.033123

 total amount of memory used by VASP MPI-rank0    84158. kBytes
=======================================================================

   base      :      30000. kBytes
   nonlr-proj:       8549. kBytes
   fftplans  :       3513. kBytes
   grid      :       9039. kBytes
   one-center:        248. kBytes
   wavefun   :      32809. kBytes
 
  
  
 General timing and accounting informations for this job:
 ========================================================
  
                  Total CPU time used (sec):      383.106
                            User time (sec):      381.663
                          System time (sec):        1.443
                         Elapsed time (sec):      384.111
  
                   Maximum memory used (kb):      129488.
                   Average memory used (kb):           0.
  
                          Minor page faults:        70957
                          Major page faults:            0
                 Voluntary context switches:          238
