 vasp.5.4.4.18Apr17-6-g9f103f2a35 (build Apr 28 2018 00:24:27) complex          
  
 executed on             LinuxIFC date 2021.09.06  23:54:46
 running on   24 total cores
 distrk:  each k-point on   24 cores,    1 groups
 distr:  one band on NCORES_PER_BAND=   4 cores,    6 groups


--------------------------------------------------------------------------------------------------------


 INCAR:
 POTCAR:    PAW_PBE Fe_pv 02Aug2007               
 POTCAR:    PAW_PBE Fe_pv 02Aug2007               
   VRHFIN =Fe:  3pd7s1                                                          
   LEXCH  = PE                                                                  
   EATOM  =  2457.4239 eV,  180.6156 Ry                                         
                                                                                
   TITEL  = PAW_PBE Fe_pv 02Aug2007                                             
   LULTRA =        F    use ultrasoft PP ?                                      
   IUNSCR =        1    unscreen: 0-lin 1-nonlin 2-no                           
   RPACOR =    1.750    partial core radius                                     
   POMASS =   55.847; ZVAL   =   14.000    mass and valenz                      
   RCORE  =    2.200    outmost cutoff radius                                   
   RWIGS  =    2.200; RWIGS  =    1.164    wigner-seitz radius (au A)           
   ENMAX  =  293.238; ENMIN  =  219.928 eV                                      
   ICORE  =        3    local potential                                         
   LCOR   =        T    correct aug charges                                     
   LPAW   =        T    paw PP                                                  
   EAUG   =  578.342                                                            
   DEXC   =    0.000                                                            
   RMAX   =    2.249    core radius for proj-oper                               
   RAUG   =    1.300    factor for augmentation sphere                          
   RDEP   =    2.296    radius for radial grids                                 
   RDEPT  =    1.766    core radius for aug-charge                              
                                                                                
   Atomic configuration                                                         
    8 entries                                                                   
     n  l   j            E        occ.                                          
     1  0  0.50     -6993.8440   2.0000                                         
     2  0  0.50      -814.6047   2.0000                                         
     2  1  1.50      -693.3689   6.0000                                         
     3  0  0.50       -89.4732   2.0000                                         
     3  1  1.50       -55.6373   6.0000                                         
     3  2  2.50        -3.8151   7.0000                                         
     4  0  0.50        -4.2551   1.0000                                         
     4  3  2.50        -1.3606   0.0000                                         
   Description                                                                  
     l       E           TYP  RCUT    TYP  RCUT                                 
     1    -55.6372668     23  2.000                                             
     1     -5.4423304     23  2.000                                             
     2     -3.8151096     23  2.200                                             
     2     -5.1756922     23  2.200                                             
     0     -4.2550951     23  2.200                                             
     0     27.2116520     23  2.200                                             
     3     -1.3605826     23  2.200                                             
  local pseudopotential read in
  partial core-charges read in
  partial kinetic energy density read in
  atomic valenz-charges read in
  non local Contribution for L=           1  read in
    real space projection operators read in
  non local Contribution for L=           1  read in
    real space projection operators read in
  non local Contribution for L=           2  read in
    real space projection operators read in
  non local Contribution for L=           2  read in
    real space projection operators read in
  non local Contribution for L=           0  read in
    real space projection operators read in
  non local Contribution for L=           0  read in
    real space projection operators read in
    PAW grid and wavefunctions read in
 
   number of l-projection  operators is LMAX  =           6
   number of lm-projection operators is LMMAX =          18
 

 ----------------------------------------------------------------------------- 
|                                                                             |
|  ADVICE TO THIS USER RUNNING 'VASP/VAMP'   (HEAR YOUR MASTER'S VOICE ...):  |
|                                                                             |
|      You have a (more or less) 'small supercell' and for smaller cells      |
|      it is recommended  to use the reciprocal-space projection scheme!      |
|      The real space optimization is not  efficient for small cells and it   |
|      is also less accurate ...                                              |
|      Therefore set LREAL=.FALSE. in the  INCAR file                         |
|                                                                             |
 ----------------------------------------------------------------------------- 

 Optimization of the real space projectors (new method)

 maximal supplied QI-value         = 17.01
 optimisation between [QCUT,QGAM] = [ 12.76, 25.51] = [ 45.56,182.25] Ry 
 Optimized for a Real-space Cutoff    1.32 Angstroem

   l    n(q)    QCUT    max X(q) W(low)/X(q) W(high)/X(q)  e(spline) 
   1     10    12.756     4.267    0.11E-03    0.84E-04    0.26E-06
   1     10    12.756     5.750    0.17E-03    0.14E-03    0.42E-06
   2      9    12.756    53.656    0.21E-03    0.25E-04    0.27E-06
   2      9    12.756    49.521    0.21E-03    0.27E-04    0.27E-06
   0     10    12.756    31.246    0.43E-04    0.19E-04    0.16E-06
   0     10    12.756    12.201    0.36E-04    0.16E-04    0.13E-06
  PAW_PBE Fe_pv 02Aug2007               :
 energy of atom  1       EATOM=-2457.4239
 kinetic energy error for atom=    0.0051 (will be added to EATOM!!)
 
 
 POSCAR: Fe2                                     
  positions in direct lattice
  No initial velocities read in
 exchange correlation table for  LEXCH =        8
   RHO(1)=    0.500       N(1)  =     2000
   RHO(2)=  100.500       N(2)  =     4000
 


--------------------------------------------------------------------------------------------------------


 ion  position               nearest neighbor table
   1  0.000  0.000  0.000-   2 2.46   2 2.46   2 2.46   2 2.46   2 2.46   2 2.46   2 2.46   2 2.46

   2  0.500  0.500  0.500-   1 2.46   1 2.46   1 2.46   1 2.46   1 2.46   1 2.46   1 2.46   1 2.46

 
  LATTYP: Found a simple cubic cell.
 ALAT       =     2.8400520000
  
  Lattice vectors:
  
 A1 = (   2.8400520000,   0.0000000000,   0.0000000000)
 A2 = (   0.0000000000,   2.8400520000,   0.0000000000)
 A3 = (   0.0000000000,   0.0000000000,   2.8400520000)


Analysis of symmetry for initial positions (statically):
=====================================================================
 Subroutine PRICEL returns following result:
 
  LATTYP: Found a body centered cubic cell.
 ALAT       =     2.8400520000
  
  Lattice vectors:
  
 A1 = (   1.4200260000,   1.4200260000,   1.4200260000)
 A2 = (   1.4200260000,  -1.4200260000,  -1.4200260000)
 A3 = (  -1.4200260000,   1.4200260000,  -1.4200260000)
 
   2 primitive cells build up your supercell.
 

 Routine SETGRP: Setting up the symmetry group for a 
 simple cubic supercell.


 Subroutine GETGRP returns: Found 48 space group operations
 (whereof 48 operations were pure point group operations)
 out of a pool of 48 trial point group operations.


The static configuration has the point symmetry O_h .


Analysis of symmetry for dynamics (positions and initial velocities):
=====================================================================
 Subroutine PRICEL returns following result:
 
  LATTYP: Found a body centered cubic cell.
 ALAT       =     2.8400520000
  
  Lattice vectors:
  
 A1 = (   1.4200260000,   1.4200260000,   1.4200260000)
 A2 = (   1.4200260000,  -1.4200260000,  -1.4200260000)
 A3 = (  -1.4200260000,   1.4200260000,  -1.4200260000)
 
   2 primitive cells build up your supercell.
 

 Routine SETGRP: Setting up the symmetry group for a 
 simple cubic supercell.


 Subroutine GETGRP returns: Found 48 space group operations
 (whereof 48 operations were pure point group operations)
 out of a pool of 48 trial point group operations.


The dynamic configuration has the point symmetry O_h .


Analysis of structural, dynamic, and magnetic symmetry:
=====================================================================
 Subroutine PRICEL returns following result:
 
  LATTYP: Found a body centered cubic cell.
 ALAT       =     2.8400520000
  
  Lattice vectors:
  
 A1 = (   1.4200260000,   1.4200260000,   1.4200260000)
 A2 = (   1.4200260000,  -1.4200260000,  -1.4200260000)
 A3 = (  -1.4200260000,   1.4200260000,  -1.4200260000)
 
   2 primitive cells build up your supercell.
 

 Routine SETGRP: Setting up the symmetry group for a 
 simple cubic supercell.


 Subroutine GETGRP returns: Found 48 space group operations
 (whereof 48 operations were pure point group operations)
 out of a pool of 48 trial point group operations.


The magnetic configuration has the point symmetry O_h .


 Subroutine INISYM returns: Found 48 space group operations
 (whereof 48 operations are pure point group operations),
 and found     2 'primitive' translations

 
 
 KPOINTS: pymatgen with grid density = 2166 / numb

Automatic generation of k-mesh.
Space group operators:
 irot       det(A)        alpha          n_x          n_y          n_z        tau_x        tau_y        tau_z
    1     1.000000     0.000000     1.000000     0.000000     0.000000     0.000000     0.000000     0.000000
    2    -1.000000     0.000000     1.000000     0.000000     0.000000     0.000000     0.000000     0.000000
    3     1.000000   120.000000    -0.577350    -0.577350    -0.577350     0.000000     0.000000     0.000000
    4    -1.000000   120.000000    -0.577350    -0.577350    -0.577350     0.000000     0.000000     0.000000
    5     1.000000   120.000000     0.577350     0.577350     0.577350     0.000000     0.000000     0.000000
    6    -1.000000   120.000000     0.577350     0.577350     0.577350     0.000000     0.000000     0.000000
    7     1.000000    90.000000     0.000000     0.000000    -1.000000     0.000000     0.000000     0.000000
    8    -1.000000    90.000000     0.000000     0.000000    -1.000000     0.000000     0.000000     0.000000
    9     1.000000   180.000000     0.000000     0.707107     0.707107     0.000000     0.000000     0.000000
   10    -1.000000   180.000000     0.000000     0.707107     0.707107     0.000000     0.000000     0.000000
   11     1.000000    90.000000     0.000000     1.000000     0.000000     0.000000     0.000000     0.000000
   12    -1.000000    90.000000     0.000000     1.000000     0.000000     0.000000     0.000000     0.000000
   13     1.000000   180.000000     0.000000     0.000000     1.000000     0.000000     0.000000     0.000000
   14    -1.000000   180.000000     0.000000     0.000000     1.000000     0.000000     0.000000     0.000000
   15     1.000000   120.000000    -0.577350     0.577350     0.577350     0.000000     0.000000     0.000000
   16    -1.000000   120.000000    -0.577350     0.577350     0.577350     0.000000     0.000000     0.000000
   17     1.000000   120.000000    -0.577350     0.577350    -0.577350     0.000000     0.000000     0.000000
   18    -1.000000   120.000000    -0.577350     0.577350    -0.577350     0.000000     0.000000     0.000000
   19     1.000000    90.000000     0.000000     0.000000     1.000000     0.000000     0.000000     0.000000
   20    -1.000000    90.000000     0.000000     0.000000     1.000000     0.000000     0.000000     0.000000
   21     1.000000    90.000000    -1.000000     0.000000     0.000000     0.000000     0.000000     0.000000
   22    -1.000000    90.000000    -1.000000     0.000000     0.000000     0.000000     0.000000     0.000000
   23     1.000000   180.000000     0.707107     0.000000     0.707107     0.000000     0.000000     0.000000
   24    -1.000000   180.000000     0.707107     0.000000     0.707107     0.000000     0.000000     0.000000
   25     1.000000   120.000000     0.577350    -0.577350     0.577350     0.000000     0.000000     0.000000
   26    -1.000000   120.000000     0.577350    -0.577350     0.577350     0.000000     0.000000     0.000000
   27     1.000000   120.000000    -0.577350    -0.577350     0.577350     0.000000     0.000000     0.000000
   28    -1.000000   120.000000    -0.577350    -0.577350     0.577350     0.000000     0.000000     0.000000
   29     1.000000   180.000000     1.000000     0.000000     0.000000     0.000000     0.000000     0.000000
   30    -1.000000   180.000000     1.000000     0.000000     0.000000     0.000000     0.000000     0.000000
   31     1.000000    90.000000     0.000000    -1.000000     0.000000     0.000000     0.000000     0.000000
   32    -1.000000    90.000000     0.000000    -1.000000     0.000000     0.000000     0.000000     0.000000
   33     1.000000   180.000000     0.707107     0.707107     0.000000     0.000000     0.000000     0.000000
   34    -1.000000   180.000000     0.707107     0.707107     0.000000     0.000000     0.000000     0.000000
   35     1.000000    90.000000     1.000000     0.000000     0.000000     0.000000     0.000000     0.000000
   36    -1.000000    90.000000     1.000000     0.000000     0.000000     0.000000     0.000000     0.000000
   37     1.000000   120.000000     0.577350    -0.577350    -0.577350     0.000000     0.000000     0.000000
   38    -1.000000   120.000000     0.577350    -0.577350    -0.577350     0.000000     0.000000     0.000000
   39     1.000000   180.000000     0.000000     1.000000     0.000000     0.000000     0.000000     0.000000
   40    -1.000000   180.000000     0.000000     1.000000     0.000000     0.000000     0.000000     0.000000
   41     1.000000   120.000000     0.577350     0.577350    -0.577350     0.000000     0.000000     0.000000
   42    -1.000000   120.000000     0.577350     0.577350    -0.577350     0.000000     0.000000     0.000000
   43     1.000000   180.000000     0.000000    -0.707107     0.707107     0.000000     0.000000     0.000000
   44    -1.000000   180.000000     0.000000    -0.707107     0.707107     0.000000     0.000000     0.000000
   45     1.000000   180.000000     0.707107    -0.707107     0.000000     0.000000     0.000000     0.000000
   46    -1.000000   180.000000     0.707107    -0.707107     0.000000     0.000000     0.000000     0.000000
   47     1.000000   180.000000     0.707107     0.000000    -0.707107     0.000000     0.000000     0.000000
   48    -1.000000   180.000000     0.707107     0.000000    -0.707107     0.000000     0.000000     0.000000
 
 Subroutine IBZKPT returns following result:
 ===========================================
 
 Found     35 irreducible k-points:
 
 Following reciprocal coordinates:
            Coordinates               Weight
  0.050000  0.050000  0.050000      8.000000
  0.150000  0.050000  0.050000     24.000000
  0.250000  0.050000  0.050000     24.000000
  0.350000  0.050000  0.050000     24.000000
  0.450000  0.050000  0.050000     24.000000
  0.150000  0.150000  0.050000     24.000000
  0.250000  0.150000  0.050000     48.000000
  0.350000  0.150000  0.050000     48.000000
  0.450000  0.150000  0.050000     48.000000
  0.250000  0.250000  0.050000     24.000000
  0.350000  0.250000  0.050000     48.000000
  0.450000  0.250000  0.050000     48.000000
  0.350000  0.350000  0.050000     24.000000
  0.450000  0.350000  0.050000     48.000000
  0.450000  0.450000  0.050000     24.000000
  0.150000  0.150000  0.150000      8.000000
  0.250000  0.150000  0.150000     24.000000
  0.350000  0.150000  0.150000     24.000000
  0.450000  0.150000  0.150000     24.000000
  0.250000  0.250000  0.150000     24.000000
  0.350000  0.250000  0.150000     48.000000
  0.450000  0.250000  0.150000     48.000000
  0.350000  0.350000  0.150000     24.000000
  0.450000  0.350000  0.150000     48.000000
  0.450000  0.450000  0.150000     24.000000
  0.250000  0.250000  0.250000      8.000000
  0.350000  0.250000  0.250000     24.000000
  0.450000  0.250000  0.250000     24.000000
  0.350000  0.350000  0.250000     24.000000
  0.450000  0.350000  0.250000     48.000000
  0.450000  0.450000  0.250000     24.000000
  0.350000  0.350000  0.350000      8.000000
  0.450000  0.350000  0.350000     24.000000
  0.450000  0.450000  0.350000     24.000000
  0.450000  0.450000  0.450000      8.000000
 
 Following cartesian coordinates:
            Coordinates               Weight
  0.017605  0.017605  0.017605      8.000000
  0.052816  0.017605  0.017605     24.000000
  0.088027  0.017605  0.017605     24.000000
  0.123237  0.017605  0.017605     24.000000
  0.158448  0.017605  0.017605     24.000000
  0.052816  0.052816  0.017605     24.000000
  0.088027  0.052816  0.017605     48.000000
  0.123237  0.052816  0.017605     48.000000
  0.158448  0.052816  0.017605     48.000000
  0.088027  0.088027  0.017605     24.000000
  0.123237  0.088027  0.017605     48.000000
  0.158448  0.088027  0.017605     48.000000
  0.123237  0.123237  0.017605     24.000000
  0.158448  0.123237  0.017605     48.000000
  0.158448  0.158448  0.017605     24.000000
  0.052816  0.052816  0.052816      8.000000
  0.088027  0.052816  0.052816     24.000000
  0.123237  0.052816  0.052816     24.000000
  0.158448  0.052816  0.052816     24.000000
  0.088027  0.088027  0.052816     24.000000
  0.123237  0.088027  0.052816     48.000000
  0.158448  0.088027  0.052816     48.000000
  0.123237  0.123237  0.052816     24.000000
  0.158448  0.123237  0.052816     48.000000
  0.158448  0.158448  0.052816     24.000000
  0.088027  0.088027  0.088027      8.000000
  0.123237  0.088027  0.088027     24.000000
  0.158448  0.088027  0.088027     24.000000
  0.123237  0.123237  0.088027     24.000000
  0.158448  0.123237  0.088027     48.000000
  0.158448  0.158448  0.088027     24.000000
  0.123237  0.123237  0.123237      8.000000
  0.158448  0.123237  0.123237     24.000000
  0.158448  0.158448  0.123237     24.000000
  0.158448  0.158448  0.158448      8.000000
 
 TETIRR: Found    466 inequivalent tetrahedra from     6000


--------------------------------------------------------------------------------------------------------




 Dimension of arrays:
   k-points           NKPTS =     35   k-points in BZ     NKDIM =     35   number of bands    NBANDS=     24
   number of dos      NEDOS =    301   number of ions     NIONS =      2
   non local maximal  LDIM  =      6   non local SUM 2l+1 LMDIM =     18
   total plane-waves  NPLWV =  13824
   max r-space proj   IRMAX =   5917   max aug-charges    IRDMAX=  18070
   dimension x,y,z NGX =    24 NGY =   24 NGZ =   24
   dimension x,y,z NGXF=    48 NGYF=   48 NGZF=   48
   support grid    NGXF=    48 NGYF=   48 NGZF=   48
   ions per type =               2
   NGX,Y,Z   is equivalent  to a cutoff of  14.05, 14.05, 14.05 a.u.
   NGXF,Y,Z  is equivalent  to a cutoff of  28.10, 28.10, 28.10 a.u.

 SYSTEM =  unknown system                          
 POSCAR =  Fe2                                     

 Startparameter for this run:
   NWRITE =      2    write-flag & timer
   PREC   = accura    normal or accurate (medium, high low for compatibility)
   ISTART =      0    job   : 0-new  1-cont  2-samecut
   ICHARG =      2    charge: 1-file 2-atom 10-const
   ISPIN  =      2    spin polarized calculation?
   LNONCOLLINEAR =      F non collinear calculations
   LSORBIT =      F    spin-orbit coupling
   INIWAV =      1    electr: 0-lowe 1-rand  2-diag
   LASPH  =      F    aspherical Exc in radial PAW
   METAGGA=      F    non-selfconsistent MetaGGA calc.

 Electronic Relaxation 1
   ENCUT  =  620.0 eV  45.57 Ry    6.75 a.u.   5.77  5.77  5.77*2*pi/ulx,y,z
   ENINI  =  620.0     initial cutoff
   ENAUG  =  578.3 eV  augmentation charge cutoff
   NELM   =    100;   NELMIN=  2; NELMDL= -5     # of ELM steps 
   EDIFF  = 0.1E-06   stopping-criterion for ELM
   LREAL  =      T    real-space projection
   NLSPLINE    = F    spline interpolate recip. space projectors
   LCOMPAT=      F    compatible to vasp.4.4
   GGA_COMPAT  = T    GGA compatible to vasp.4.4-vasp.4.6
   LMAXPAW     = -100 max onsite density
   LMAXMIX     =    2 max onsite mixed and CHGCAR
   VOSKOWN=      0    Vosko Wilk Nusair interpolation
   ROPT   =   -0.00025
 Ionic relaxation
   EDIFFG = 0.1E-05   stopping-criterion for IOM
   NSW    =      0    number of steps for IOM
   NBLOCK =      1;   KBLOCK =      1    inner block; outer block 
   IBRION =     -1    ionic relax: 0-MD 1-quasi-New 2-CG
   NFREE  =      0    steps in history (QN), initial steepest desc. (CG)
   ISIF   =      3    stress and relaxation
   IWAVPR =     10    prediction:  0-non 1-charg 2-wave 3-comb
   ISYM   =      2    0-nonsym 1-usesym 2-fastsym
   LCORR  =      T    Harris-Foulkes like correction to forces

   POTIM  = 0.5000    time-step for ionic-motion
   TEIN   =    0.0    initial temperature
   TEBEG  =    0.0;   TEEND  =   0.0 temperature during run
   SMASS  =  -3.00    Nose mass-parameter (am)
   estimated Nose-frequenzy (Omega)   =  0.10E-29 period in steps =****** mass=  -0.184E-27a.u.
   SCALEE = 1.0000    scale energy and forces
   NPACO  =    256;   APACO  = 16.0  distance and # of slots for P.C.
   PSTRESS=    0.0 pullay stress

  Mass of Ions in am
   POMASS =  55.85
  Ionic Valenz
   ZVAL   =  14.00
  Atomic Wigner-Seitz radii
   RWIGS  =  -1.00
  virtual crystal weights 
   VCA    =   1.00
   NELECT =      28.0000    total number of electrons
   NUPDOWN=      -1.0000    fix difference up-down

 DOS related values:
   EMIN   =  10.00;   EMAX   =-10.00  energy-range for DOS
   EFERMI =   0.00
   ISMEAR =    -5;   SIGMA  =   0.05  broadening in eV -4-tet -1-fermi 0-gaus

 Electronic relaxation 2 (details)
   IALGO  =     38    algorithm
   LDIAG  =      T    sub-space diagonalisation (order eigenvalues)
   LSUBROT=      F    optimize rotation matrix (better conditioning)
   TURBO    =      0    0=normal 1=particle mesh
   IRESTART =      0    0=no restart 2=restart with 2 vectors
   NREBOOT  =      0    no. of reboots
   NMIN     =      0    reboot dimension
   EREF     =   0.00    reference energy to select bands
   IMIX   =      4    mixing-type and parameters
     AMIX     =   0.40;   BMIX     =  1.00
     AMIX_MAG =   1.60;   BMIX_MAG =  1.00
     AMIN     =   0.10
     WC   =   100.;   INIMIX=   1;  MIXPRE=   1;  MAXMIX= -45

 Intra band minimization:
   WEIMIN = 0.0000     energy-eigenvalue tresh-hold
   EBREAK =  0.10E-08  absolut break condition
   DEPER  =   0.30     relativ break condition  

   TIME   =   0.40     timestep for ELM

  volume/ion in A,a.u.               =      11.45        77.29
  Fermi-wavevector in a.u.,A,eV,Ry     =   1.750389  3.307755 41.686364  3.063861
  Thomas-Fermi vector in A             =   2.821117
 
 Write flags
   LWAVE        =      F    write WAVECAR
   LDOWNSAMPLE  =      F    k-point downsampling of WAVECAR
   LCHARG       =      F    write CHGCAR
   LVTOT        =      F    write LOCPOT, total local potential
   LVHAR        =      F    write LOCPOT, Hartree potential only
   LELF         =      F    write electronic localiz. function (ELF)
   LORBIT       =     11    0 simple, 1 ext, 2 COOP (PROOUT), +10 PAW based schemes


 Dipole corrections
   LMONO  =      F    monopole corrections only (constant potential shift)
   LDIPOL =      F    correct potential (dipole corrections)
   IDIPOL =      0    1-x, 2-y, 3-z, 4-all directions 
   EPSILON=  1.0000000 bulk dielectric constant

 Exchange correlation treatment:
   GGA     =    --    GGA type
   LEXCH   =     8    internal setting for exchange type
   VOSKOWN=      0    Vosko Wilk Nusair interpolation
   LHFCALC =     F    Hartree Fock is set to
   LHFONE  =     F    Hartree Fock one center treatment
   AEXX    =    0.0000 exact exchange contribution

 Linear response parameters
   LEPSILON=     F    determine dielectric tensor
   LRPA    =     F    only Hartree local field effects (RPA)
   LNABLA  =     F    use nabla operator in PAW spheres
   LVEL    =     F    velocity operator in full k-point grid
   LINTERFAST=   F  fast interpolation
   KINTER  =     0    interpolate to denser k-point grid
   CSHIFT  =0.1000    complex shift for real part using Kramers Kronig
   OMEGAMAX=  -1.0    maximum frequency
   DEG_THRESHOLD= 0.2000000E-02 threshold for treating states as degnerate
   RTIME   =   -0.100 relaxation time in fs
  (WPLASMAI=    0.000 imaginary part of plasma frequency in eV, 0.658/RTIME)
   DFIELD  = 0.0000000 0.0000000 0.0000000 field for delta impulse in time
 
 Orbital magnetization related:
   ORBITALMAG=     F  switch on orbital magnetization
   LCHIMAG   =     F  perturbation theory with respect to B field
   DQ        =  0.001000  dq finite difference perturbation B field
   LLRAUG    =     F  two centre corrections for induced B field



--------------------------------------------------------------------------------------------------------


 Static calculation
 charge density and potential will be updated during run
 spin polarized calculation
 Variant of blocked Davidson
 Davidson routine will perform the subspace rotation
 perform sub-space diagonalisation
    after iterative eigenvector-optimisation
 modified Broyden-mixing scheme, WC =      100.0
 initial mixing is a Kerker type mixing with AMIX =  0.4000 and BMIX =      1.0000
 Hartree-type preconditioning will be used
 using additional bands           10
 real space projection scheme for non local part
 use partial core corrections
 calculate Harris-corrections to forces 
   (improved forces if not selfconsistent)
 use gradient corrections 
 use of overlap-Matrix (Vanderbilt PP)
 Fermi weights with tetrahedron method with Bloechl corrections


--------------------------------------------------------------------------------------------------------


  energy-cutoff  :      620.00
  volume of cell :       22.91
      direct lattice vectors                 reciprocal lattice vectors
     2.840052000  0.000000000  0.000000000     0.352106229  0.000000000  0.000000000
     0.000000000  2.840052000  0.000000000     0.000000000  0.352106229  0.000000000
     0.000000000  0.000000000  2.840052000     0.000000000  0.000000000  0.352106229

  length of vectors
     2.840052000  2.840052000  2.840052000     0.352106229  0.352106229  0.352106229


 
 k-points in units of 2pi/SCALE and weight: pymatgen with grid density = 2166 / numb
   0.01760531  0.01760531  0.01760531       0.008
   0.05281593  0.01760531  0.01760531       0.024
   0.08802656  0.01760531  0.01760531       0.024
   0.12323718  0.01760531  0.01760531       0.024
   0.15844780  0.01760531  0.01760531       0.024
   0.05281593  0.05281593  0.01760531       0.024
   0.08802656  0.05281593  0.01760531       0.048
   0.12323718  0.05281593  0.01760531       0.048
   0.15844780  0.05281593  0.01760531       0.048
   0.08802656  0.08802656  0.01760531       0.024
   0.12323718  0.08802656  0.01760531       0.048
   0.15844780  0.08802656  0.01760531       0.048
   0.12323718  0.12323718  0.01760531       0.024
   0.15844780  0.12323718  0.01760531       0.048
   0.15844780  0.15844780  0.01760531       0.024
   0.05281593  0.05281593  0.05281593       0.008
   0.08802656  0.05281593  0.05281593       0.024
   0.12323718  0.05281593  0.05281593       0.024
   0.15844780  0.05281593  0.05281593       0.024
   0.08802656  0.08802656  0.05281593       0.024
   0.12323718  0.08802656  0.05281593       0.048
   0.15844780  0.08802656  0.05281593       0.048
   0.12323718  0.12323718  0.05281593       0.024
   0.15844780  0.12323718  0.05281593       0.048
   0.15844780  0.15844780  0.05281593       0.024
   0.08802656  0.08802656  0.08802656       0.008
   0.12323718  0.08802656  0.08802656       0.024
   0.15844780  0.08802656  0.08802656       0.024
   0.12323718  0.12323718  0.08802656       0.024
   0.15844780  0.12323718  0.08802656       0.048
   0.15844780  0.15844780  0.08802656       0.024
   0.12323718  0.12323718  0.12323718       0.008
   0.15844780  0.12323718  0.12323718       0.024
   0.15844780  0.15844780  0.12323718       0.024
   0.15844780  0.15844780  0.15844780       0.008
 
 k-points in reciprocal lattice and weights: pymatgen with grid density = 2166 / numb
   0.05000000  0.05000000  0.05000000       0.008
   0.15000000  0.05000000  0.05000000       0.024
   0.25000000  0.05000000  0.05000000       0.024
   0.35000000  0.05000000  0.05000000       0.024
   0.45000000  0.05000000  0.05000000       0.024
   0.15000000  0.15000000  0.05000000       0.024
   0.25000000  0.15000000  0.05000000       0.048
   0.35000000  0.15000000  0.05000000       0.048
   0.45000000  0.15000000  0.05000000       0.048
   0.25000000  0.25000000  0.05000000       0.024
   0.35000000  0.25000000  0.05000000       0.048
   0.45000000  0.25000000  0.05000000       0.048
   0.35000000  0.35000000  0.05000000       0.024
   0.45000000  0.35000000  0.05000000       0.048
   0.45000000  0.45000000  0.05000000       0.024
   0.15000000  0.15000000  0.15000000       0.008
   0.25000000  0.15000000  0.15000000       0.024
   0.35000000  0.15000000  0.15000000       0.024
   0.45000000  0.15000000  0.15000000       0.024
   0.25000000  0.25000000  0.15000000       0.024
   0.35000000  0.25000000  0.15000000       0.048
   0.45000000  0.25000000  0.15000000       0.048
   0.35000000  0.35000000  0.15000000       0.024
   0.45000000  0.35000000  0.15000000       0.048
   0.45000000  0.45000000  0.15000000       0.024
   0.25000000  0.25000000  0.25000000       0.008
   0.35000000  0.25000000  0.25000000       0.024
   0.45000000  0.25000000  0.25000000       0.024
   0.35000000  0.35000000  0.25000000       0.024
   0.45000000  0.35000000  0.25000000       0.048
   0.45000000  0.45000000  0.25000000       0.024
   0.35000000  0.35000000  0.35000000       0.008
   0.45000000  0.35000000  0.35000000       0.024
   0.45000000  0.45000000  0.35000000       0.024
   0.45000000  0.45000000  0.45000000       0.008
 
 position of ions in fractional coordinates (direct lattice) 
   0.00000000  0.00000000  0.00000000
   0.50000000  0.50000000  0.50000000
 
 position of ions in cartesian coordinates  (Angst):
   0.00000000  0.00000000  0.00000000
   1.42002600  1.42002600  1.42002600
 


--------------------------------------------------------------------------------------------------------


 k-point  1 :   0.0500 0.0500 0.0500  plane waves:     793
 k-point  2 :   0.1500 0.0500 0.0500  plane waves:     794
 k-point  3 :   0.2500 0.0500 0.0500  plane waves:     802
 k-point  4 :   0.3500 0.0500 0.0500  plane waves:     805
 k-point  5 :   0.4500 0.0500 0.0500  plane waves:     812
 k-point  6 :   0.1500 0.1500 0.0500  plane waves:     794
 k-point  7 :   0.2500 0.1500 0.0500  plane waves:     804
 k-point  8 :   0.3500 0.1500 0.0500  plane waves:     807
 k-point  9 :   0.4500 0.1500 0.0500  plane waves:     810
 k-point 10 :   0.2500 0.2500 0.0500  plane waves:     802
 k-point 11 :   0.3500 0.2500 0.0500  plane waves:     805
 k-point 12 :   0.4500 0.2500 0.0500  plane waves:     798
 k-point 13 :   0.3500 0.3500 0.0500  plane waves:     806
 k-point 14 :   0.4500 0.3500 0.0500  plane waves:     806
 k-point 15 :   0.4500 0.4500 0.0500  plane waves:     804
 k-point 16 :   0.1500 0.1500 0.1500  plane waves:     802
 k-point 17 :   0.2500 0.1500 0.1500  plane waves:     807
 k-point 18 :   0.3500 0.1500 0.1500  plane waves:     800
 k-point 19 :   0.4500 0.1500 0.1500  plane waves:     799
 k-point 20 :   0.2500 0.2500 0.1500  plane waves:     804
 k-point 21 :   0.3500 0.2500 0.1500  plane waves:     800
 k-point 22 :   0.4500 0.2500 0.1500  plane waves:     803
 k-point 23 :   0.3500 0.3500 0.1500  plane waves:     796
 k-point 24 :   0.4500 0.3500 0.1500  plane waves:     802
 k-point 25 :   0.4500 0.4500 0.1500  plane waves:     807
 k-point 26 :   0.2500 0.2500 0.2500  plane waves:     811
 k-point 27 :   0.3500 0.2500 0.2500  plane waves:     800
 k-point 28 :   0.4500 0.2500 0.2500  plane waves:     796
 k-point 29 :   0.3500 0.3500 0.2500  plane waves:     802
 k-point 30 :   0.4500 0.3500 0.2500  plane waves:     801
 k-point 31 :   0.4500 0.4500 0.2500  plane waves:     802
 k-point 32 :   0.3500 0.3500 0.3500  plane waves:     807
 k-point 33 :   0.4500 0.3500 0.3500  plane waves:     802
 k-point 34 :   0.4500 0.4500 0.3500  plane waves:     801
 k-point 35 :   0.4500 0.4500 0.4500  plane waves:     813

 maximum and minimum number of plane-waves per node :       215      183

 maximum number of plane-waves:       813
 maximum index in each direction: 
   IXMAX=    5   IYMAX=    5   IZMAX=    5
   IXMIN=   -6   IYMIN=   -6   IZMIN=   -6


 real space projection operators:
  total allocation   :       1601.72 KBytes
  max/ min on nodes  :        404.44        396.56


 parallel 3D FFT for wavefunctions:
    minimum data exchange during FFTs selected (reduces bandwidth)
 parallel 3D FFT for charge:
    minimum data exchange during FFTs selected (reduces bandwidth)


 total amount of memory used by VASP MPI-rank0    32606. kBytes
=======================================================================

   base      :      30000. kBytes
   nonlr-proj:        696. kBytes
   fftplans  :        262. kBytes
   grid      :        623. kBytes
   one-center:         31. kBytes
   wavefun   :        994. kBytes
 
     INWAV:  cpu time    0.0000: real time    0.0001
 Broyden mixing: mesh for mixing (old mesh)
   NGX = 11   NGY = 11   NGZ = 11
  (NGX  = 48   NGY  = 48   NGZ  = 48)
  gives a total of   1331 points

 initial charge density was supplied:
 charge density of overlapping atoms calculated
 number of electron      28.0000000 magnetization      10.0000000
 keeping initial charge density in first step


--------------------------------------------------------------------------------------------------------


 Maximum index for non-local projection operator         1437
 Maximum index for augmentation-charges          805 (set IRDMAX)


--------------------------------------------------------------------------------------------------------


 First call to EWALD:  gamma=   0.624
 Maximum number of real-space cells 3x 3x 3
 Maximum number of reciprocal cells 3x 3x 3

    FEWALD:  cpu time    0.0013: real time    0.0013


--------------------------------------- Iteration      1(   1)  ---------------------------------------


    POTLOK:  cpu time    0.0128: real time    0.0189
    SETDIJ:  cpu time    0.0073: real time    0.0073
     EDDAV:  cpu time    0.4423: real time    0.4465
 BZINTS: Fermi energy: 20.808862; 28.000000 electrons
         Band energy: -93.468226;  BLOECHL correction: -0.155944
       DOS:  cpu time    0.0341: real time    0.0342
    --------------------------------------------
      LOOP:  cpu time    0.4965: real time    0.5069

 eigenvalue-minimisations  :  3444
 total energy-change (2. order) : 0.2289522E+03  (-0.1952848E+04)
 number of electron      28.0000000 magnetization      10.0000000
 augmentation part       28.0000000 magnetization      10.0000000

 Free energy of the ion-electron system (eV)
  ---------------------------------------------------
  alpha Z        PSCENC =       218.87048721
  Ewald energy   TEWEN  =     -3616.56080017
  -Hartree energ DENC   =     -1162.86386254
  -exchange      EXHF   =         0.00000000
  -V(xc)+E(xc)   XCENC  =       147.54621923
  PAW double counting   =      3997.93860218    -4177.34792201
  entropy T*S    EENTRO =         0.00000000
  eigenvalues    EBANDS =       -93.46822606
  atomic energy  EATOM  =      4914.83769548
  Solvation  Ediel_sol  =         0.00000000
  ---------------------------------------------------
  free energy    TOTEN  =       228.95219332 eV

  energy without entropy =      228.95219332  energy(sigma->0) =      228.95219332


--------------------------------------------------------------------------------------------------------




--------------------------------------- Iteration      1(   2)  ---------------------------------------


     EDDAV:  cpu time    0.4403: real time    0.4414
 BZINTS: Fermi energy: 12.187406; 28.000000 electrons
         Band energy:-331.987120;  BLOECHL correction: -0.071445
       DOS:  cpu time    0.0345: real time    0.0346
    --------------------------------------------
      LOOP:  cpu time    0.4749: real time    0.4760

 eigenvalue-minimisations  :  3456
 total energy-change (2. order) :-0.2385189E+03  (-0.2288777E+03)
 number of electron      28.0000000 magnetization      10.0000000
 augmentation part       28.0000000 magnetization      10.0000000

 Free energy of the ion-electron system (eV)
  ---------------------------------------------------
  alpha Z        PSCENC =       218.87048721
  Ewald energy   TEWEN  =     -3616.56080017
  -Hartree energ DENC   =     -1162.86386254
  -exchange      EXHF   =         0.00000000
  -V(xc)+E(xc)   XCENC  =       147.54621923
  PAW double counting   =      3997.93860218    -4177.34792201
  entropy T*S    EENTRO =         0.00000000
  eigenvalues    EBANDS =      -331.98712029
  atomic energy  EATOM  =      4914.83769548
  Solvation  Ediel_sol  =         0.00000000
  ---------------------------------------------------
  free energy    TOTEN  =        -9.56670092 eV

  energy without entropy =       -9.56670092  energy(sigma->0) =       -9.56670092


--------------------------------------------------------------------------------------------------------




--------------------------------------- Iteration      1(   3)  ---------------------------------------


     EDDAV:  cpu time    0.4609: real time    0.4625
 BZINTS: Fermi energy: 12.037261; 28.000000 electrons
         Band energy:-338.638184;  BLOECHL correction: -0.071290
       DOS:  cpu time    0.0333: real time    0.0333
    --------------------------------------------
      LOOP:  cpu time    0.4941: real time    0.4958

 eigenvalue-minimisations  :  3720
 total energy-change (2. order) :-0.6651063E+01  (-0.6639796E+01)
 number of electron      28.0000000 magnetization      10.0000000
 augmentation part       28.0000000 magnetization      10.0000000

 Free energy of the ion-electron system (eV)
  ---------------------------------------------------
  alpha Z        PSCENC =       218.87048721
  Ewald energy   TEWEN  =     -3616.56080017
  -Hartree energ DENC   =     -1162.86386254
  -exchange      EXHF   =         0.00000000
  -V(xc)+E(xc)   XCENC  =       147.54621923
  PAW double counting   =      3997.93860218    -4177.34792201
  entropy T*S    EENTRO =         0.00000000
  eigenvalues    EBANDS =      -338.63818373
  atomic energy  EATOM  =      4914.83769548
  Solvation  Ediel_sol  =         0.00000000
  ---------------------------------------------------
  free energy    TOTEN  =       -16.21776435 eV

  energy without entropy =      -16.21776435  energy(sigma->0) =      -16.21776435


--------------------------------------------------------------------------------------------------------




--------------------------------------- Iteration      1(   4)  ---------------------------------------


     EDDAV:  cpu time    0.4740: real time    0.4752
 BZINTS: Fermi energy: 12.036854; 28.000000 electrons
         Band energy:-338.694012;  BLOECHL correction: -0.071279
       DOS:  cpu time    0.0333: real time    0.0334
    --------------------------------------------
      LOOP:  cpu time    0.5073: real time    0.5086

 eigenvalue-minimisations  :  3816
 total energy-change (2. order) :-0.5582794E-01  (-0.5583149E-01)
 number of electron      28.0000000 magnetization      10.0000000
 augmentation part       28.0000000 magnetization      10.0000000

 Free energy of the ion-electron system (eV)
  ---------------------------------------------------
  alpha Z        PSCENC =       218.87048721
  Ewald energy   TEWEN  =     -3616.56080017
  -Hartree energ DENC   =     -1162.86386254
  -exchange      EXHF   =         0.00000000
  -V(xc)+E(xc)   XCENC  =       147.54621923
  PAW double counting   =      3997.93860218    -4177.34792201
  entropy T*S    EENTRO =         0.00000000
  eigenvalues    EBANDS =      -338.69401167
  atomic energy  EATOM  =      4914.83769548
  Solvation  Ediel_sol  =         0.00000000
  ---------------------------------------------------
  free energy    TOTEN  =       -16.27359230 eV

  energy without entropy =      -16.27359230  energy(sigma->0) =      -16.27359230


--------------------------------------------------------------------------------------------------------




--------------------------------------- Iteration      1(   5)  ---------------------------------------


     EDDAV:  cpu time    0.4718: real time    0.4732
 BZINTS: Fermi energy: 12.036853; 28.000000 electrons
         Band energy:-338.695058;  BLOECHL correction: -0.071279
       DOS:  cpu time    0.0332: real time    0.0333
    CHARGE:  cpu time    0.0194: real time    0.0194
    MIXING:  cpu time    0.0005: real time    0.0006
    --------------------------------------------
      LOOP:  cpu time    0.5250: real time    0.5266

 eigenvalue-minimisations  :  3816
 total energy-change (2. order) :-0.1046718E-02  (-0.1046751E-02)
 number of electron      28.0000000 magnetization       4.3576148
 augmentation part       15.9044854 magnetization       2.8338272

 Broyden mixing:
  rms(total) = 0.24990E+01    rms(broyden)= 0.24990E+01
  rms(prec ) = 0.39513E+01
  weight for this iteration     100.00

 Free energy of the ion-electron system (eV)
  ---------------------------------------------------
  alpha Z        PSCENC =       218.87048721
  Ewald energy   TEWEN  =     -3616.56080017
  -Hartree energ DENC   =     -1162.86386254
  -exchange      EXHF   =         0.00000000
  -V(xc)+E(xc)   XCENC  =       147.54621923
  PAW double counting   =      3997.93860218    -4177.34792201
  entropy T*S    EENTRO =         0.00000000
  eigenvalues    EBANDS =      -338.69505839
  atomic energy  EATOM  =      4914.83769548
  Solvation  Ediel_sol  =         0.00000000
  ---------------------------------------------------
  free energy    TOTEN  =       -16.27463901 eV

  energy without entropy =      -16.27463901  energy(sigma->0) =      -16.27463901


--------------------------------------------------------------------------------------------------------




--------------------------------------- Iteration      1(   6)  ---------------------------------------


    POTLOK:  cpu time    0.0059: real time    0.0060
    SETDIJ:  cpu time    0.0051: real time    0.0051
     EDDAV:  cpu time    0.4329: real time    0.4339
 BZINTS: Fermi energy:  9.265948; 28.000000 electrons
         Band energy:-409.581405;  BLOECHL correction: -0.036191
       DOS:  cpu time    0.0348: real time    0.0348
    CHARGE:  cpu time    0.0141: real time    0.0142
    MIXING:  cpu time    0.0005: real time    0.0005
    --------------------------------------------
      LOOP:  cpu time    0.4933: real time    0.4946

 eigenvalue-minimisations  :  3420
 total energy-change (2. order) :-0.1814782E+00  (-0.7494065E+00)
 number of electron      27.9999999 magnetization       4.5319139
 augmentation part       17.0680153 magnetization       3.5500267

 Broyden mixing:
  rms(total) = 0.69096E+00    rms(broyden)= 0.69085E+00
  rms(prec ) = 0.86618E+00
  weight for this iteration     100.00

 eigenvalues of (default mixing * dielectric matrix)
  average eigenvalue GAMMA=   0.8371
  0.8371

 Free energy of the ion-electron system (eV)
  ---------------------------------------------------
  alpha Z        PSCENC =       218.87048721
  Ewald energy   TEWEN  =     -3616.56080017
  -Hartree energ DENC   =     -1089.08509048
  -exchange      EXHF   =         0.00000000
  -V(xc)+E(xc)   XCENC  =       140.63887787
  PAW double counting   =      4113.80750027    -4289.38338288
  entropy T*S    EENTRO =         0.00000000
  eigenvalues    EBANDS =      -409.58140451
  atomic energy  EATOM  =      4914.83769548
  Solvation  Ediel_sol  =         0.00000000
  ---------------------------------------------------
  free energy    TOTEN  =       -16.45611721 eV

  energy without entropy =      -16.45611721  energy(sigma->0) =      -16.45611721


--------------------------------------------------------------------------------------------------------




--------------------------------------- Iteration      1(   7)  ---------------------------------------


    POTLOK:  cpu time    0.0060: real time    0.0064
    SETDIJ:  cpu time    0.0051: real time    0.0051
     EDDAV:  cpu time    0.4220: real time    0.4231
 BZINTS: Fermi energy:  9.762649; 28.000000 electrons
         Band energy:-395.191315;  BLOECHL correction: -0.033720
       DOS:  cpu time    0.0303: real time    0.0304
    CHARGE:  cpu time    0.0139: real time    0.0139
    MIXING:  cpu time    0.0003: real time    0.0003
    --------------------------------------------
      LOOP:  cpu time    0.4776: real time    0.4792

 eigenvalue-minimisations  :  3408
 total energy-change (2. order) :-0.5649826E-01  (-0.6153515E-01)
 number of electron      27.9999999 magnetization       4.4436767
 augmentation part       16.7742575 magnetization       3.5268178

 Broyden mixing:
  rms(total) = 0.43068E+00    rms(broyden)= 0.43065E+00
  rms(prec ) = 0.52592E+00
  weight for this iteration     100.00

 eigenvalues of (default mixing * dielectric matrix)
  average eigenvalue GAMMA=   0.7674
  0.9882  0.5466

 Free energy of the ion-electron system (eV)
  ---------------------------------------------------
  alpha Z        PSCENC =       218.87048721
  Ewald energy   TEWEN  =     -3616.56080017
  -Hartree energ DENC   =     -1099.08137245
  -exchange      EXHF   =         0.00000000
  -V(xc)+E(xc)   XCENC  =       141.33128002
  PAW double counting   =      4219.82952263    -4400.54811274
  entropy T*S    EENTRO =         0.00000000
  eigenvalues    EBANDS =      -395.19131544
  atomic energy  EATOM  =      4914.83769548
  Solvation  Ediel_sol  =         0.00000000
  ---------------------------------------------------
  free energy    TOTEN  =       -16.51261547 eV

  energy without entropy =      -16.51261547  energy(sigma->0) =      -16.51261547


--------------------------------------------------------------------------------------------------------




--------------------------------------- Iteration      1(   8)  ---------------------------------------


    POTLOK:  cpu time    0.0059: real time    0.0060
    SETDIJ:  cpu time    0.0048: real time    0.0048
     EDDAV:  cpu time    0.4579: real time    0.4590
 BZINTS: Fermi energy:  9.688904; 28.000000 electrons
         Band energy:-397.461645;  BLOECHL correction: -0.033976
       DOS:  cpu time    0.0338: real time    0.0339
    CHARGE:  cpu time    0.0139: real time    0.0139
    MIXING:  cpu time    0.0003: real time    0.0003
    --------------------------------------------
      LOOP:  cpu time    0.5167: real time    0.5180

 eigenvalue-minimisations  :  3708
 total energy-change (2. order) :-0.1005239E-01  (-0.1513886E-02)
 number of electron      27.9999999 magnetization       4.3699786
 augmentation part       16.8104009 magnetization       3.4533039

 Broyden mixing:
  rms(total) = 0.13696E+00    rms(broyden)= 0.13695E+00
  rms(prec ) = 0.21431E+00
  weight for this iteration     100.00

 eigenvalues of (default mixing * dielectric matrix)
  average eigenvalue GAMMA=   1.0474
  1.6985  0.8569  0.5867

 Free energy of the ion-electron system (eV)
  ---------------------------------------------------
  alpha Z        PSCENC =       218.87048721
  Ewald energy   TEWEN  =     -3616.56080017
  -Hartree energ DENC   =     -1095.15978181
  -exchange      EXHF   =         0.00000000
  -V(xc)+E(xc)   XCENC  =       141.10713016
  PAW double counting   =      4267.87030399    -4450.02605726
  entropy T*S    EENTRO =         0.00000000
  eigenvalues    EBANDS =      -397.46164546
  atomic energy  EATOM  =      4914.83769548
  Solvation  Ediel_sol  =         0.00000000
  ---------------------------------------------------
  free energy    TOTEN  =       -16.52266786 eV

  energy without entropy =      -16.52266786  energy(sigma->0) =      -16.52266786


--------------------------------------------------------------------------------------------------------




--------------------------------------- Iteration      1(   9)  ---------------------------------------


    POTLOK:  cpu time    0.0060: real time    0.0061
    SETDIJ:  cpu time    0.0048: real time    0.0048
     EDDAV:  cpu time    0.4482: real time    0.4495
 BZINTS: Fermi energy:  9.610561; 28.000000 electrons
         Band energy:-399.757265;  BLOECHL correction: -0.034529
       DOS:  cpu time    0.0338: real time    0.0339
    CHARGE:  cpu time    0.0138: real time    0.0138
    MIXING:  cpu time    0.0003: real time    0.0003
    --------------------------------------------
      LOOP:  cpu time    0.5069: real time    0.5084

 eigenvalue-minimisations  :  3636
 total energy-change (2. order) : 0.8176679E-02  (-0.5184343E-03)
 number of electron      27.9999999 magnetization       4.4016844
 augmentation part       16.8466110 magnetization       3.4830584

 Broyden mixing:
  rms(total) = 0.33722E-01    rms(broyden)= 0.33717E-01
  rms(prec ) = 0.45947E-01
  weight for this iteration     100.00

 eigenvalues of (default mixing * dielectric matrix)
  average eigenvalue GAMMA=   1.1852
  2.3390  1.0616  0.6986  0.6417

 Free energy of the ion-electron system (eV)
  ---------------------------------------------------
  alpha Z        PSCENC =       218.87048721
  Ewald energy   TEWEN  =     -3616.56080017
  -Hartree energ DENC   =     -1090.24830350
  -exchange      EXHF   =         0.00000000
  -V(xc)+E(xc)   XCENC  =       140.86445946
  PAW double counting   =      4344.27859286    -4528.79935747
  entropy T*S    EENTRO =         0.00000000
  eigenvalues    EBANDS =      -399.75726505
  atomic energy  EATOM  =      4914.83769548
  Solvation  Ediel_sol  =         0.00000000
  ---------------------------------------------------
  free energy    TOTEN  =       -16.51449118 eV

  energy without entropy =      -16.51449118  energy(sigma->0) =      -16.51449118


--------------------------------------------------------------------------------------------------------




--------------------------------------- Iteration      1(  10)  ---------------------------------------


    POTLOK:  cpu time    0.0059: real time    0.0061
    SETDIJ:  cpu time    0.0048: real time    0.0048
     EDDAV:  cpu time    0.4268: real time    0.4278
 BZINTS: Fermi energy:  9.624881; 28.000000 electrons
         Band energy:-399.218805;  BLOECHL correction: -0.034687
       DOS:  cpu time    0.0338: real time    0.0339
    CHARGE:  cpu time    0.0137: real time    0.0138
    MIXING:  cpu time    0.0004: real time    0.0004
    --------------------------------------------
      LOOP:  cpu time    0.4854: real time    0.4867

 eigenvalue-minimisations  :  3444
 total energy-change (2. order) : 0.1703488E-03  (-0.2253645E-03)
 number of electron      27.9999999 magnetization       4.4065058
 augmentation part       16.8346379 magnetization       3.4851174

 Broyden mixing:
  rms(total) = 0.44266E-02    rms(broyden)= 0.44265E-02
  rms(prec ) = 0.54590E-02
  weight for this iteration     100.00

 eigenvalues of (default mixing * dielectric matrix)
  average eigenvalue GAMMA=   1.1291
  2.4320  1.0999  0.7827  0.6971  0.6338

 Free energy of the ion-electron system (eV)
  ---------------------------------------------------
  alpha Z        PSCENC =       218.87048721
  Ewald energy   TEWEN  =     -3616.56080017
  -Hartree energ DENC   =     -1089.85862420
  -exchange      EXHF   =         0.00000000
  -V(xc)+E(xc)   XCENC  =       140.87172482
  PAW double counting   =      4373.13170060    -4558.58769952
  entropy T*S    EENTRO =         0.00000000
  eigenvalues    EBANDS =      -399.21880505
  atomic energy  EATOM  =      4914.83769548
  Solvation  Ediel_sol  =         0.00000000
  ---------------------------------------------------
  free energy    TOTEN  =       -16.51432083 eV

  energy without entropy =      -16.51432083  energy(sigma->0) =      -16.51432083


--------------------------------------------------------------------------------------------------------




--------------------------------------- Iteration      1(  11)  ---------------------------------------


    POTLOK:  cpu time    0.0060: real time    0.0061
    SETDIJ:  cpu time    0.0048: real time    0.0048
     EDDAV:  cpu time    0.4450: real time    0.4462
 BZINTS: Fermi energy:  9.623326; 28.000000 electrons
         Band energy:-399.250772;  BLOECHL correction: -0.034704
       DOS:  cpu time    0.0338: real time    0.0339
    CHARGE:  cpu time    0.0137: real time    0.0137
    MIXING:  cpu time    0.0004: real time    0.0004
    --------------------------------------------
      LOOP:  cpu time    0.5037: real time    0.5051

 eigenvalue-minimisations  :  3588
 total energy-change (2. order) :-0.5926083E-04  (-0.4879514E-05)
 number of electron      27.9999999 magnetization       4.4059083
 augmentation part       16.8351818 magnetization       3.4847854

 Broyden mixing:
  rms(total) = 0.24289E-02    rms(broyden)= 0.24287E-02
  rms(prec ) = 0.32692E-02
  weight for this iteration     100.00

 eigenvalues of (default mixing * dielectric matrix)
  average eigenvalue GAMMA=   1.2928
  2.2983  2.2983  1.0747  0.6331  0.7547  0.6977

 Free energy of the ion-electron system (eV)
  ---------------------------------------------------
  alpha Z        PSCENC =       218.87048721
  Ewald energy   TEWEN  =     -3616.56080017
  -Hartree energ DENC   =     -1089.85115619
  -exchange      EXHF   =         0.00000000
  -V(xc)+E(xc)   XCENC  =       140.87414788
  PAW double counting   =      4374.35056981    -4559.78455222
  entropy T*S    EENTRO =         0.00000000
  eigenvalues    EBANDS =      -399.25077189
  atomic energy  EATOM  =      4914.83769548
  Solvation  Ediel_sol  =         0.00000000
  ---------------------------------------------------
  free energy    TOTEN  =       -16.51438009 eV

  energy without entropy =      -16.51438009  energy(sigma->0) =      -16.51438009


--------------------------------------------------------------------------------------------------------




--------------------------------------- Iteration      1(  12)  ---------------------------------------


    POTLOK:  cpu time    0.0060: real time    0.0061
    SETDIJ:  cpu time    0.0048: real time    0.0048
     EDDAV:  cpu time    0.4816: real time    0.4828
 BZINTS: Fermi energy:  9.621791; 28.000000 electrons
         Band energy:-399.285196;  BLOECHL correction: -0.034717
       DOS:  cpu time    0.0339: real time    0.0339
    CHARGE:  cpu time    0.0140: real time    0.0141
    MIXING:  cpu time    0.0005: real time    0.0005
    --------------------------------------------
      LOOP:  cpu time    0.5407: real time    0.5421

 eigenvalue-minimisations  :  3840
 total energy-change (2. order) :-0.8267343E-05  (-0.4982730E-06)
 number of electron      27.9999999 magnetization       4.4056345
 augmentation part       16.8358960 magnetization       3.4847753

 Broyden mixing:
  rms(total) = 0.95918E-03    rms(broyden)= 0.95914E-03
  rms(prec ) = 0.13604E-02
  weight for this iteration     100.00

 eigenvalues of (default mixing * dielectric matrix)
  average eigenvalue GAMMA=   1.2308
  2.3872  2.3872  1.0834  0.7889  0.7167  0.6260  0.6260

 Free energy of the ion-electron system (eV)
  ---------------------------------------------------
  alpha Z        PSCENC =       218.87048721
  Ewald energy   TEWEN  =     -3616.56080017
  -Hartree energ DENC   =     -1089.90259353
  -exchange      EXHF   =         0.00000000
  -V(xc)+E(xc)   XCENC  =       140.87681581
  PAW double counting   =      4375.40471542    -4560.75551270
  entropy T*S    EENTRO =         0.00000000
  eigenvalues    EBANDS =      -399.28519587
  atomic energy  EATOM  =      4914.83769548
  Solvation  Ediel_sol  =         0.00000000
  ---------------------------------------------------
  free energy    TOTEN  =       -16.51438836 eV

  energy without entropy =      -16.51438836  energy(sigma->0) =      -16.51438836


--------------------------------------------------------------------------------------------------------




--------------------------------------- Iteration      1(  13)  ---------------------------------------


    POTLOK:  cpu time    0.0061: real time    0.0064
    SETDIJ:  cpu time    0.0050: real time    0.0050
     EDDAV:  cpu time    0.4383: real time    0.4395
 BZINTS: Fermi energy:  9.622391; 28.000000 electrons
         Band energy:-399.272845;  BLOECHL correction: -0.034709
       DOS:  cpu time    0.0329: real time    0.0330
    CHARGE:  cpu time    0.0139: real time    0.0139
    MIXING:  cpu time    0.0004: real time    0.0004
    --------------------------------------------
      LOOP:  cpu time    0.4967: real time    0.4983

 eigenvalue-minimisations  :  3540
 total energy-change (2. order) : 0.6768361E-05  (-0.1348034E-06)
 number of electron      27.9999999 magnetization       4.4054310
 augmentation part       16.8355944 magnetization       3.4844624

 Broyden mixing:
  rms(total) = 0.25343E-03    rms(broyden)= 0.25339E-03
  rms(prec ) = 0.34629E-03
  weight for this iteration     100.00

 eigenvalues of (default mixing * dielectric matrix)
  average eigenvalue GAMMA=   1.2907
  2.5199  2.4559  1.4743  1.0637  0.8094  0.6260  0.6881  0.6881

 Free energy of the ion-electron system (eV)
  ---------------------------------------------------
  alpha Z        PSCENC =       218.87048721
  Ewald energy   TEWEN  =     -3616.56080017
  -Hartree energ DENC   =     -1089.90970868
  -exchange      EXHF   =         0.00000000
  -V(xc)+E(xc)   XCENC  =       140.87671941
  PAW double counting   =      4375.52893329    -4560.88486294
  entropy T*S    EENTRO =         0.00000000
  eigenvalues    EBANDS =      -399.27284519
  atomic energy  EATOM  =      4914.83769548
  Solvation  Ediel_sol  =         0.00000000
  ---------------------------------------------------
  free energy    TOTEN  =       -16.51438159 eV

  energy without entropy =      -16.51438159  energy(sigma->0) =      -16.51438159


--------------------------------------------------------------------------------------------------------




--------------------------------------- Iteration      1(  14)  ---------------------------------------


    POTLOK:  cpu time    0.0060: real time    0.0061
    SETDIJ:  cpu time    0.0048: real time    0.0048
     EDDAV:  cpu time    0.3752: real time    0.3761
 BZINTS: Fermi energy:  9.622636; 28.000000 electrons
         Band energy:-399.267932;  BLOECHL correction: -0.034707
       DOS:  cpu time    0.0347: real time    0.0347
    CHARGE:  cpu time    0.0139: real time    0.0139
    MIXING:  cpu time    0.0005: real time    0.0005
    --------------------------------------------
      LOOP:  cpu time    0.4349: real time    0.4360

 eigenvalue-minimisations  :  2772
 total energy-change (2. order) : 0.1610619E-05  (-0.1593841E-07)
 number of electron      27.9999999 magnetization       4.4054485
 augmentation part       16.8354786 magnetization       3.4844456

 Broyden mixing:
  rms(total) = 0.62306E-04    rms(broyden)= 0.62087E-04
  rms(prec ) = 0.81443E-04
  weight for this iteration     100.00

 eigenvalues of (default mixing * dielectric matrix)
  average eigenvalue GAMMA=   1.2119
  2.6066  2.4666  1.2880  1.0501  0.8270  0.6319  0.6663  0.6853  0.6853

 Free energy of the ion-electron system (eV)
  ---------------------------------------------------
  alpha Z        PSCENC =       218.87048721
  Ewald energy   TEWEN  =     -3616.56080017
  -Hartree energ DENC   =     -1089.91218910
  -exchange      EXHF   =         0.00000000
  -V(xc)+E(xc)   XCENC  =       140.87655200
  PAW double counting   =      4375.53108710    -4560.88928092
  entropy T*S    EENTRO =         0.00000000
  eigenvalues    EBANDS =      -399.26793158
  atomic energy  EATOM  =      4914.83769548
  Solvation  Ediel_sol  =         0.00000000
  ---------------------------------------------------
  free energy    TOTEN  =       -16.51437998 eV

  energy without entropy =      -16.51437998  energy(sigma->0) =      -16.51437998


--------------------------------------------------------------------------------------------------------




--------------------------------------- Iteration      1(  15)  ---------------------------------------


    POTLOK:  cpu time    0.0060: real time    0.0061
    SETDIJ:  cpu time    0.0048: real time    0.0048
     EDDAV:  cpu time    0.2816: real time    0.2822
 BZINTS: Fermi energy:  9.622604; 28.000000 electrons
         Band energy:-399.268787;  BLOECHL correction: -0.034707
       DOS:  cpu time    0.0338: real time    0.0339
    --------------------------------------------
      LOOP:  cpu time    0.3261: real time    0.3270

 eigenvalue-minimisations  :  1752
 total energy-change (2. order) : 0.1433636E-07  (-0.1170735E-08)
 number of electron      27.9999999 magnetization       4.4054485
 augmentation part       16.8354786 magnetization       3.4844456

 Free energy of the ion-electron system (eV)
  ---------------------------------------------------
  alpha Z        PSCENC =       218.87048721
  Ewald energy   TEWEN  =     -3616.56080017
  -Hartree energ DENC   =     -1089.91180162
  -exchange      EXHF   =         0.00000000
  -V(xc)+E(xc)   XCENC  =       140.87658242
  PAW double counting   =      4375.52674887    -4560.88450549
  entropy T*S    EENTRO =         0.00000000
  eigenvalues    EBANDS =      -399.26878665
  atomic energy  EATOM  =      4914.83769548
  Solvation  Ediel_sol  =         0.00000000
  ---------------------------------------------------
  free energy    TOTEN  =       -16.51437997 eV

  energy without entropy =      -16.51437997  energy(sigma->0) =      -16.51437997


--------------------------------------------------------------------------------------------------------




 average (electrostatic) potential at core
  the test charge radii are     0.9500
  (the norm of the test charge is              1.0000)
       1 -73.6653       2 -73.6653
 
 
 
 E-fermi :   9.6226     XC(G=0): -13.6244     alpha+bet :-17.4163


 spin component 1

 k-point     1 :       0.0500    0.0500    0.0500
  band No.  band energies     occupation 
      1     -44.5602      1.00000
      2     -44.5602      1.00000
      3     -44.5459      1.00000
      4     -44.2892      1.00000
      5     -44.2744      1.00000
      6     -44.2744      1.00000
      7       1.3979      1.00000
      8       4.9383      1.00000
      9       4.9383      1.00000
     10       7.3048      1.00000
     11       7.3048      1.00000
     12       7.4308      1.00000
     13       8.5804      1.00000
     14       8.5804      1.00000
     15       9.4947      1.00000
     16       9.6871      0.60073
     17       9.6871      0.00979
     18      19.1992      0.00000
     19      19.1992      0.00000
     20      19.4412      0.00000
     21      25.8098      0.00000
     22      25.8098      0.00000
     23      30.6975      0.00000
     24      33.3487      0.00000

 k-point     2 :       0.1500    0.0500    0.0500
  band No.  band energies     occupation 
      1     -44.5662      1.00000
      2     -44.5455      1.00000
      3     -44.5239      1.00000
      4     -44.3209      1.00000
      5     -44.2876      1.00000
      6     -44.2799      1.00000
      7       1.8015      1.00000
      8       5.1062      1.00000
      9       5.1084      1.00000
     10       7.2463      1.00000
     11       7.2946      1.00000
     12       7.5991      1.00000
     13       8.4142      1.00000
     14       8.6553      1.00000
     15       9.1040      1.00000
     16       9.3725      1.02104
     17       9.6656      0.13605
     18      17.0984      0.00000
     19      19.9182      0.00000
     20      20.0953      0.00000
     21      25.9614      0.00000
     22      27.1436      0.00000
     23      31.5524      0.00000
     24      32.1500      0.00000

 k-point     3 :       0.2500    0.0500    0.0500
  band No.  band energies     occupation 
      1     -44.5635      1.00000
      2     -44.5176      1.00000
      3     -44.4931      1.00000
      4     -44.3687      1.00000
      5     -44.3130      1.00000
      6     -44.3000      1.00000
      7       2.5670      1.00000
      8       5.3675      1.00000
      9       5.4274      1.00000
     10       7.2424      1.00000
     11       7.2874      1.00000
     12       7.8416      1.00000
     13       8.1078      1.00000
     14       8.6066      1.00000
     15       8.7946      1.00000
     16       8.8889      1.00000
     17       9.4858      1.03913
     18      14.5753      0.00000
     19      21.1873      0.00000
     20      21.3581      0.00000
     21      26.2941      0.00000
     22      27.9716      0.00000
     23      29.6285      0.00000
     24      31.2957      0.00000

 k-point     4 :       0.3500    0.0500    0.0500
  band No.  band energies     occupation 
      1     -44.5490      1.00000
      2     -44.4798      1.00000
      3     -44.4552      1.00000
      4     -44.4239      1.00000
      5     -44.3484      1.00000
      6     -44.3313      1.00000
      7       3.5891      1.00000
      8       5.5401      1.00000
      9       5.8725      1.00000
     10       7.2457      1.00000
     11       7.3213      1.00000
     12       7.7680      1.00000
     13       8.1303      1.00000
     14       8.1502      1.00000
     15       8.3928      1.00000
     16       9.0192      1.00000
     17       9.2003      1.03867
     18      12.2830      0.00000
     19      22.7941      0.00000
     20      23.0069      0.00000
     21      26.8750      0.00000
     22      27.8745      0.00000
     23      28.6103      0.00000
     24      29.1471      0.00000

 k-point     5 :       0.4500    0.0500    0.0500
  band No.  band energies     occupation 
      1     -44.5202      1.00000
      2     -44.4771      1.00000
      3     -44.4360      1.00000
      4     -44.4129      1.00000
      5     -44.3907      1.00000
      6     -44.3703      1.00000
      7       4.6409      1.00000
      8       5.3580      1.00000
      9       6.3946      1.00000
     10       6.9174      1.00000
     11       7.4991      1.00000
     12       7.7311      1.00000
     13       7.7625      1.00000
     14       7.9854      1.00000
     15       8.4990      1.00000
     16       8.8574      1.00000
     17       9.4832      0.98553
     18      10.5195      0.00000
     19      24.5319      0.00000
     20      24.9042      0.00000
     21      26.2263      0.00000
     22      26.9668      0.00000
     23      27.8208      0.00000
     24      29.2504      0.00000

 k-point     6 :       0.1500    0.1500    0.0500
  band No.  band energies     occupation 
      1     -44.5803      1.00000
      2     -44.5367      1.00000
      3     -44.4915      1.00000
      4     -44.3624      1.00000
      5     -44.2978      1.00000
      6     -44.2744      1.00000
      7       2.1894      1.00000
      8       5.2391      1.00000
      9       5.2979      1.00000
     10       7.0937      1.00000
     11       7.2374      1.00000
     12       7.8700      1.00000
     13       8.4386      1.00000
     14       8.6106      1.00000
     15       8.6246      1.00000
     16       9.1496      1.00691
     17       9.7347      0.03135
     18      17.1955      0.00000
     19      18.2807      0.00000
     20      20.6505      0.00000
     21      26.6280      0.00000
     22      28.5389      0.00000
     23      29.9217      0.00000
     24      31.9693      0.00000

 k-point     7 :       0.2500    0.1500    0.0500
  band No.  band energies     occupation 
      1     -44.5895      1.00000
      2     -44.5111      1.00000
      3     -44.4537      1.00000
      4     -44.4171      1.00000
      5     -44.3208      1.00000
      6     -44.2819      1.00000
      7       2.9157      1.00000
      8       5.4554      1.00000
      9       5.6206      1.00000
     10       6.9882      1.00000
     11       7.1824      1.00000
     12       8.1057      1.00000
     13       8.2001      1.00000
     14       8.2825      1.00000
     15       8.7216      1.00000
     16       8.7244      1.00000
     17       9.6885      0.28912
     18      14.9835      0.00000
     19      19.0117      0.00000
     20      21.7953      0.00000
     21      27.0196      0.00000
     22      27.7474      0.00000
     23      29.9236      0.00000
     24      30.6410      0.00000

 k-point     8 :       0.3500    0.1500    0.0500
  band No.  band energies     occupation 
      1     -44.5855      1.00000
      2     -44.4756      1.00000
      3     -44.4749      1.00000
      4     -44.4130      1.00000
      5     -44.3533      1.00000
      6     -44.3028      1.00000
      7       3.8579      1.00000
      8       5.5954      1.00000
      9       6.0116      1.00000
     10       6.9645      1.00000
     11       7.1189      1.00000
     12       7.6670      1.00000
     13       8.0931      1.00000
     14       8.3376      1.00000
     15       8.5642      1.00000
     16       8.9632      1.00000
     17       9.4968      0.92390
     18      12.6530      0.00000
     19      20.3758      0.00000
     20      23.3117      0.00000
     21      25.6601      0.00000
     22      27.5887      0.00000
     23      28.7788      0.00000
     24      30.9261      0.00000

 k-point     9 :       0.4500    0.1500    0.0500
  band No.  band energies     occupation 
      1     -44.5645      1.00000
      2     -44.5265      1.00000
      3     -44.4346      1.00000
      4     -44.3924      1.00000
      5     -44.3721      1.00000
      6     -44.3341      1.00000
      7       4.7816      1.00000
      8       5.4044      1.00000
      9       6.4367      1.00000
     10       6.8149      1.00000
     11       7.1497      1.00000
     12       7.3556      1.00000
     13       8.0549      1.00000
     14       8.1285      1.00000
     15       8.8893      1.00000
     16       9.2081      1.00000
     17       9.5411      0.77859
     18      10.7642      0.00000
     19      21.9645      0.00000
     20      23.7289      0.00000
     21      25.0469      0.00000
     22      26.8827      0.00000
     23      28.4943      0.00000
     24      29.8470      0.00000

 k-point    10 :       0.2500    0.2500    0.0500
  band No.  band energies     occupation 
      1     -44.6127      1.00000
      2     -44.4905      1.00000
      3     -44.4768      1.00000
      4     -44.4108      1.00000
      5     -44.3386      1.00000
      6     -44.2746      1.00000
      7       3.5386      1.00000
      8       5.5104      1.00000
      9       6.0141      1.00000
     10       6.7714      1.00000
     11       7.1537      1.00000
     12       7.5987      1.00000
     13       8.4263      1.00000
     14       8.4287      1.00000
     15       8.6230      1.00000
     16       8.6648      1.00000
     17       9.8079     -0.03395
     18      14.8627      0.00000
     19      17.4656      0.00000
     20      22.7544      0.00000
     21      25.3831      0.00000
     22      27.3659      0.00000
     23      30.0593      0.00000
     24      32.3848      0.00000

 k-point    11 :       0.3500    0.2500    0.0500
  band No.  band energies     occupation 
      1     -44.6220      1.00000
      2     -44.5350      1.00000
      3     -44.4617      1.00000
      4     -44.3693      1.00000
      5     -44.3640      1.00000
      6     -44.2818      1.00000
      7       4.2634      1.00000
      8       5.4677      1.00000
      9       6.4672      1.00000
     10       6.6639      1.00000
     11       7.1893      1.00000
     12       7.2435      1.00000
     13       8.2727      1.00000
     14       8.4046      1.00000
     15       8.8097      1.00000
     16       9.0698      1.02187
     17       9.7580      0.00395
     18      13.0479      0.00000
     19      18.1032      0.00000
     20      23.1675      0.00000
     21      24.0658      0.00000
     22      27.8478      0.00000
     23      28.7849      0.00000
     24      31.4415      0.00000

 k-point    12 :       0.4500    0.2500    0.0500
  band No.  band energies     occupation 
      1     -44.6123      1.00000
      2     -44.5823      1.00000
      3     -44.4285      1.00000
      4     -44.3948      1.00000
      5     -44.3320      1.00000
      6     -44.3018      1.00000
      7       4.8665      1.00000
      8       5.2596      1.00000
      9       6.6822      1.00000
     10       6.7708      1.00000
     11       7.0121      1.00000
     12       7.2241      1.00000
     13       8.3124      1.00000
     14       8.3953      1.00000
     15       9.1811      1.00000
     16       9.5468      0.95173
     17       9.7286      0.02982
     18      11.1092      0.00000
     19      19.4885      0.00000
     20      21.1928      0.00000
     21      25.5955      0.00000
     22      27.2065      0.00000
     23      28.6467      0.00000
     24      29.8688      0.00000

 k-point    13 :       0.3500    0.3500    0.0500
  band No.  band energies     occupation 
      1     -44.6451      1.00000
      2     -44.5895      1.00000
      3     -44.4423      1.00000
      4     -44.3795      1.00000
      5     -44.3309      1.00000
      6     -44.2747      1.00000
      7       4.6031      1.00000
      8       5.2500      1.00000
      9       6.4672      1.00000
     10       6.7900      1.00000
     11       7.0688      1.00000
     12       7.8003      1.00000
     13       8.3288      1.00000
     14       8.5819      1.00000
     15       8.7313      1.00000
     16       9.5045      0.96286
     17       9.8584     -0.00497
     18      12.6722      0.00000
     19      17.0751      0.00000
     20      20.9323      0.00000
     21      25.1098      0.00000
     22      28.2076      0.00000
     23      28.4078      0.00000
     24      30.7486      0.00000

 k-point    14 :       0.4500    0.3500    0.0500
  band No.  band energies     occupation 
      1     -44.6484      1.00000
      2     -44.6293      1.00000
      3     -44.4205      1.00000
      4     -44.3988      1.00000
      5     -44.3009      1.00000
      6     -44.2815      1.00000
      7       4.8276      1.00000
      8       5.0273      1.00000
      9       6.4159      1.00000
     10       6.5253      1.00000
     11       7.6334      1.00000
     12       8.0155      1.00000
     13       8.4770      1.00000
     14       8.6082      1.00000
     15       9.2343      1.00000
     16       9.7475      0.31697
     17      10.0489      0.00000
     18      11.2871      0.00000
     19      17.6520      0.00000
     20      19.0562      0.00000
     21      26.3158      0.00000
     22      27.4989      0.00000
     23      28.8181      0.00000
     24      29.7268      0.00000

 k-point    15 :       0.4500    0.4500    0.0500
  band No.  band energies     occupation 
      1     -44.6650      1.00000
      2     -44.6585      1.00000
      3     -44.4121      1.00000
      4     -44.4047      1.00000
      5     -44.2814      1.00000
      6     -44.2747      1.00000
      7       4.7954      1.00000
      8       4.8569      1.00000
      9       6.2866      1.00000
     10       6.3241      1.00000
     11       8.3604      1.00000
     12       8.5983      1.00000
     13       8.6193      1.00000
     14       8.7802      1.00000
     15       9.2761      1.00000
     16       9.7024      0.28334
     17      10.4350      0.00000
     18      10.9855      0.00000
     19      16.9427      0.00000
     20      17.5288      0.00000
     21      27.0342      0.00000
     22      27.4877      0.00000
     23      29.0845      0.00000
     24      29.4296      0.00000

 k-point    16 :       0.1500    0.1500    0.1500
  band No.  band energies     occupation 
      1     -44.5646      1.00000
      2     -44.5646      1.00000
      3     -44.4558      1.00000
      4     -44.3999      1.00000
      5     -44.2886      1.00000
      6     -44.2886      1.00000
      7       2.5666      1.00000
      8       5.4264      1.00000
      9       5.4264      1.00000
     10       7.0362      1.00000
     11       7.0362      1.00000
     12       8.0860      1.00000
     13       8.1861      1.00000
     14       8.5281      1.00000
     15       8.5281      1.00000
     16       9.4248      0.99979
     17       9.4248      1.11227
     18      17.8409      0.00000
     19      17.8409      0.00000
     20      19.2368      0.00000
     21      28.7871      0.00000
     22      28.7871      0.00000
     23      29.7383      0.00000
     24      29.7383      0.00000

 k-point    17 :       0.2500    0.1500    0.1500
  band No.  band energies     occupation 
      1     -44.5848      1.00000
      2     -44.5349      1.00000
      3     -44.4513      1.00000
      4     -44.4177      1.00000
      5     -44.3158      1.00000
      6     -44.2881      1.00000
      7       3.2654      1.00000
      8       5.6656      1.00000
      9       5.6997      1.00000
     10       6.9036      1.00000
     11       6.9349      1.00000
     12       7.5732      1.00000
     13       8.3823      1.00000
     14       8.5850      1.00000
     15       8.6827      1.00000
     16       8.9719      1.00000
     17       9.5063      0.95263
     18      15.4698      0.00000
     19      18.9547      0.00000
     20      19.8765      0.00000
     21      27.5253      0.00000
     22      28.5413      0.00000
     23      29.3027      0.00000
     24      30.5089      0.00000

 k-point    18 :       0.3500    0.1500    0.1500
  band No.  band energies     occupation 
      1     -44.5910      1.00000
      2     -44.5042      1.00000
      3     -44.4944      1.00000
      4     -44.3808      1.00000
      5     -44.3538      1.00000
      6     -44.2987      1.00000
      7       4.1485      1.00000
      8       5.8192      1.00000
      9       5.9788      1.00000
     10       6.7953      1.00000
     11       6.9294      1.00000
     12       7.2680      1.00000
     13       8.2261      1.00000
     14       8.5459      1.00000
     15       8.8082      1.00000
     16       9.1279      1.00000
     17       9.4067      0.92704
     18      13.1241      0.00000
     19      20.3544      0.00000
     20      21.0648      0.00000
     21      25.4920      0.00000
     22      26.4574      0.00000
     23      30.1150      0.00000
     24      31.4555      0.00000

 k-point    19 :       0.4500    0.1500    0.1500
  band No.  band energies     occupation 
      1     -44.5793      1.00000
      2     -44.5493      1.00000
      3     -44.4476      1.00000
      4     -44.3991      1.00000
      5     -44.3472      1.00000
      6     -44.3191      1.00000
      7       4.9802      1.00000
      8       5.5621      1.00000
[...]
     19      18.3219      0.00000
     20      20.7967      0.00000
     21      22.3833      0.00000
     22      24.8360      0.00000
     23      26.2501      0.00000
     24      30.1357      0.00000

 k-point    30 :       0.4500    0.3500    0.2500
  band No.  band energies     occupation 
      1     -42.0275      1.00000
      2     -42.0272      1.00000
      3     -41.8760      1.00000
      4     -41.8247      1.00000
      5     -41.7185      1.00000
      6     -41.7142      1.00000
      7       6.7327      1.00000
      8       7.0449      1.00000
      9       7.9675      1.00000
     10       7.9783      1.00000
     11       8.3644      1.00000
     12       8.4912      1.00000
     13      11.1842      0.00000
     14      11.2347      0.00000
     15      11.5150      0.00000
     16      11.5333      0.00000
     17      13.8172      0.00000
     18      14.8896      0.00000
     19      19.1259      0.00000
     20      20.5765      0.00000
     21      21.9125      0.00000
     22      23.4378      0.00000
     23      26.7656      0.00000
     24      28.2360      0.00000

 k-point    31 :       0.4500    0.4500    0.2500
  band No.  band energies     occupation 
      1     -42.0353      1.00000
      2     -42.0347      1.00000
      3     -41.8565      1.00000
      4     -41.8358      1.00000
      5     -41.7249      1.00000
      6     -41.7211      1.00000
      7       6.8529      1.00000
      8       6.9334      1.00000
      9       7.8847      1.00000
     10       7.8996      1.00000
     11       8.6611      1.00000
     12       8.7303      1.00000
     13      11.3009      0.00000
     14      11.3256      0.00000
     15      11.5264      0.00000
     16      11.5391      0.00000
     17      14.4939      0.00000
     18      15.0168      0.00000
     19      18.3894      0.00000
     20      19.0490      0.00000
     21      23.0059      0.00000
     22      24.1211      0.00000
     23      25.2325      0.00000
     24      26.3289      0.00000

 k-point    32 :       0.3500    0.3500    0.3500
  band No.  band energies     occupation 
      1     -42.0115      1.00000
      2     -41.9612      1.00000
      3     -41.9612      1.00000
      4     -41.7726      1.00000
      5     -41.7726      1.00000
      6     -41.7224      1.00000
      7       6.9262      1.00000
      8       7.5003      1.00000
      9       7.9276      1.00000
     10       7.9276      1.00000
     11       8.0741      1.00000
     12       8.0741      1.00000
     13      11.3764      0.00000
     14      11.3764      0.00000
     15      11.4152      0.00000
     16      11.4152      0.00000
     17      13.8655      0.00000
     18      17.4972      0.00000
     19      17.4972      0.00000
     20      19.8861      0.00000
     21      22.8234      0.00000
     22      22.8234      0.00000
     23      24.1455      0.00000
     24      28.0393      0.00000

 k-point    33 :       0.4500    0.3500    0.3500
  band No.  band energies     occupation 
      1     -42.0062      1.00000
      2     -41.9903      1.00000
      3     -41.8984      1.00000
      4     -41.8334      1.00000
      5     -41.7562      1.00000
      6     -41.7374      1.00000
      7       7.2798      1.00000
      8       7.3821      1.00000
      9       7.8722      1.00000
     10       7.9206      1.00000
     11       8.0467      1.00000
     12       8.2170      1.00000
     13      11.3597      0.00000
     14      11.3850      0.00000
     15      11.5028      0.00000
     16      11.5140      0.00000
     17      14.8062      0.00000
     18      16.0276      0.00000
     19      19.1306      0.00000
     20      20.4294      0.00000
     21      20.9113      0.00000
     22      21.6691      0.00000
     23      24.5505      0.00000
     24      26.0864      0.00000

 k-point    34 :       0.4500    0.4500    0.3500
  band No.  band energies     occupation 
      1     -41.9889      1.00000
      2     -41.9778      1.00000
      3     -41.8847      1.00000
      4     -41.8484      1.00000
      5     -41.7788      1.00000
      6     -41.7642      1.00000
      7       7.4283      1.00000
      8       7.4420      1.00000
      9       7.8024      1.00000
     10       7.8454      1.00000
     11       8.1729      1.00000
     12       8.2612      1.00000
     13      11.4437      0.00000
     14      11.4544      0.00000
     15      11.5333      0.00000
     16      11.5376      0.00000
     17      15.8060      0.00000
     18      16.5884      0.00000
     19      18.5406      0.00000
     20      19.5004      0.00000
     21      21.0122      0.00000
     22      22.1182      0.00000
     23      22.9689      0.00000
     24      24.1590      0.00000

 k-point    35 :       0.4500    0.4500    0.4500
  band No.  band energies     occupation 
      1     -41.9441      1.00000
      2     -41.9117      1.00000
      3     -41.9117      1.00000
      4     -41.8431      1.00000
      5     -41.8431      1.00000
      6     -41.8105      1.00000
      7       7.6625      1.00000
      8       7.8091      1.00000
      9       7.8091      1.00000
     10       7.9080      1.00000
     11       7.9532      1.00000
     12       7.9532      1.00000
     13      11.5393      0.00000
     14      11.5393      0.00000
     15      11.5423      0.00000
     16      11.5423      0.00000
     17      17.1203      0.00000
     18      18.3145      0.00000
     19      18.3145      0.00000
     20      20.0015      0.00000
     21      20.1673      0.00000
     22      20.1673      0.00000
     23      21.5175      0.00000
     24      22.3093      0.00000


--------------------------------------------------------------------------------------------------------


 soft charge-density along one line, spin component           1
         0         1         2         3         4         5         6         7         8         9
 total charge-density along one line
 
 soft charge-density along one line, spin component           2
         0         1         2         3         4         5         6         7         8         9
 total charge-density along one line
 
 pseudopotential strength for first ion, spin component:           1
-44.858   0.000   0.000   7.570  -0.000  -0.000  -0.000   0.000
  0.000 -44.858  -0.000  -0.000   7.570   0.000   0.000   0.000
  0.000  -0.000 -44.858  -0.000   0.000   7.570   0.000   0.000
  7.570  -0.000  -0.000   5.638  -0.000  -0.000   0.000  -0.000
 -0.000   7.570   0.000  -0.000   5.638   0.000  -0.000  -0.000
 -0.000   0.000   7.570  -0.000   0.000   5.638  -0.000  -0.000
 -0.000   0.000   0.000   0.000  -0.000  -0.000  -1.981  -0.000
  0.000   0.000   0.000  -0.000  -0.000  -0.000  -0.000  -1.981
 -0.000   0.000  -0.000   0.000  -0.000  -0.000  -0.000   0.000
  0.000  -0.000   0.000  -0.000   0.000  -0.000   0.000   0.000
 -0.000   0.000  -0.000   0.000  -0.000   0.000   0.000  -0.000
 -0.000   0.000   0.000   0.000  -0.000  -0.000  -2.496  -0.000
  0.000   0.000   0.000  -0.000  -0.000  -0.000  -0.000  -2.496
 -0.000   0.000   0.000   0.000  -0.000  -0.000  -0.000   0.000
  0.000  -0.000   0.000  -0.000   0.000  -0.000   0.000   0.000
 -0.000   0.000  -0.000   0.000  -0.000   0.000   0.000  -0.000
 -0.000  -0.000   0.000  -0.000  -0.000   0.000  -0.000  -0.000
 -0.000  -0.000   0.000  -0.000  -0.000   0.000  -0.000  -0.000
 pseudopotential strength for first ion, spin component:           2
-42.886   0.000   0.000   6.737  -0.000  -0.000  -0.000   0.000
  0.000 -42.886  -0.000  -0.000   6.737   0.000  -0.000   0.000
  0.000  -0.000 -42.886  -0.000   0.000   6.737   0.000  -0.000
  6.737  -0.000  -0.000   5.866  -0.000  -0.000  -0.000  -0.000
 -0.000   6.737   0.000  -0.000   5.866   0.000   0.000  -0.000
 -0.000   0.000   6.737  -0.000   0.000   5.866  -0.000   0.000
 -0.000  -0.000   0.000  -0.000   0.000  -0.000  -0.455  -0.000
  0.000   0.000  -0.000  -0.000  -0.000   0.000  -0.000  -0.455
 -0.000   0.000  -0.000   0.000  -0.000   0.000  -0.000   0.000
 -0.000   0.000   0.000   0.000   0.000  -0.000   0.000   0.000
 -0.000   0.000  -0.000   0.000  -0.000  -0.000   0.000  -0.000
  0.000  -0.000   0.000   0.000   0.000  -0.000  -0.995  -0.000
  0.000   0.000  -0.000  -0.000  -0.000   0.000  -0.000  -0.995
 -0.000   0.000  -0.000   0.000  -0.000   0.000  -0.000   0.000
 -0.000   0.000   0.000   0.000  -0.000  -0.000   0.000   0.000
 -0.000   0.000   0.000   0.000  -0.000  -0.000   0.000  -0.000
 -0.000  -0.000  -0.000  -0.000  -0.000  -0.000  -0.000  -0.000
 -0.000  -0.000  -0.000  -0.000  -0.000   0.000  -0.000  -0.000
 total augmentation occupancy for first ion, spin component:           1
  1.992   0.000   0.000  -0.027   0.000   0.000   0.000   0.000   0.000   0.000   0.000  -0.000   0.000  -0.000  -0.000   0.000
  0.000   1.992   0.000   0.000  -0.027  -0.000   0.000   0.000   0.000   0.000   0.000   0.000   0.000   0.000   0.000  -0.000
  0.000   0.000   1.992   0.000  -0.000  -0.027   0.000   0.000   0.000  -0.000   0.000   0.000   0.000   0.000   0.000   0.000
 -0.027  -0.000   0.000   0.201  -0.000  -0.000   0.000   0.000   0.000   0.000   0.000   0.000   0.000   0.000   0.000  -0.000
  0.000  -0.027   0.000  -0.000   0.201   0.000   0.000   0.000   0.000   0.000   0.000   0.000   0.000   0.000   0.000  -0.000
 -0.000  -0.000  -0.027  -0.000  -0.000   0.201   0.000   0.000   0.000   0.000   0.000   0.000   0.000   0.000   0.000   0.000
  0.000   0.000   0.000   0.000   0.000   0.000   2.170   0.000   0.000   0.000   0.000  -1.222   0.000  -0.000  -0.000   0.000
  0.000   0.000  -0.000   0.000   0.000   0.000  -0.000   2.170   0.000  -0.000   0.000  -0.000  -1.222  -0.000   0.000  -0.000
 -0.000   0.000  -0.000  -0.000   0.000   0.000   0.000   0.000   3.410   0.000   0.000  -0.000  -0.000  -2.185  -0.000  -0.000
 -0.000   0.000  -0.000   0.000   0.000   0.000   0.000  -0.000  -0.000   2.170  -0.000  -0.000  -0.000  -0.000  -1.222  -0.000
  0.000   0.000   0.000   0.000   0.000   0.000  -0.000   0.000  -0.000   0.000   3.410   0.000  -0.000   0.000   0.000  -2.185
 -0.000   0.000   0.000   0.000   0.000   0.000  -1.222  -0.000  -0.000   0.000   0.000   1.649  -0.000  -0.000   0.000  -0.000
  0.000   0.000   0.000   0.000   0.000   0.000  -0.000  -1.222  -0.000  -0.000  -0.000  -0.000   1.649  -0.000  -0.000  -0.000
  0.000   0.000   0.000   0.000   0.000   0.000  -0.000  -0.000  -2.185  -0.000   0.000  -0.000  -0.000   2.224   0.000   0.000
  0.000   0.000   0.000   0.000   0.000   0.000  -0.000   0.000   0.000  -1.222   0.000   0.000   0.000   0.000   1.649  -0.000
  0.000  -0.000  -0.000   0.000   0.000   0.000   0.000   0.000  -0.000  -0.000  -2.185   0.000  -0.000  -0.000  -0.000   2.224
 -0.000  -0.000  -0.000   0.000  -0.000  -0.000  -0.000  -0.000  -0.000  -0.000   0.000   0.000   0.000   0.000   0.000   0.000
 -0.000  -0.000  -0.000   0.000   0.000   0.000   0.000   0.000   0.000  -0.000  -0.000   0.000   0.000  -0.000  -0.000  -0.000
 total augmentation occupancy for first ion, spin component:           2
 -0.002   0.000   0.000  -0.009   0.000  -0.000   0.000   0.000  -0.000  -0.000   0.000   0.000   0.000  -0.000   0.000   0.000
  0.000  -0.002   0.000  -0.000  -0.009  -0.000   0.000   0.000   0.000   0.000   0.000  -0.000   0.000  -0.000   0.000  -0.000
  0.000   0.000  -0.002  -0.000   0.000  -0.009   0.000  -0.000   0.000  -0.000   0.000   0.000   0.000   0.000   0.000  -0.000
 -0.009  -0.000  -0.000  -0.020  -0.000   0.000   0.000   0.000   0.000   0.000   0.000   0.000   0.000  -0.000   0.000   0.000
 -0.000  -0.009   0.000   0.000  -0.020  -0.000   0.000   0.000   0.000   0.000   0.000   0.000   0.000   0.000   0.000   0.000
  0.000  -0.000  -0.009  -0.000   0.000  -0.020   0.000   0.000   0.000   0.000   0.000   0.000  -0.000  -0.000   0.000   0.000
  0.000  -0.000   0.000   0.000   0.000   0.000   1.761  -0.000   0.000  -0.000  -0.000  -0.663   0.000   0.000  -0.000   0.000
  0.000   0.000  -0.000   0.000   0.000   0.000   0.000   1.761   0.000  -0.000  -0.000  -0.000  -0.663   0.000   0.000  -0.000
  0.000   0.000   0.000   0.000   0.000   0.000   0.000   0.000   2.824   0.000   0.000  -0.000   0.000  -1.165  -0.000  -0.000
 -0.000   0.000  -0.000   0.000   0.000   0.000  -0.000  -0.000   0.000   1.761   0.000   0.000   0.000  -0.000  -0.663  -0.000
 -0.000   0.000   0.000   0.000   0.000   0.000   0.000   0.000  -0.000  -0.000   2.824   0.000  -0.000   0.000  -0.000  -1.165
  0.000   0.000   0.000   0.000   0.000   0.000  -0.663   0.000  -0.000   0.000   0.000  -0.005  -0.000  -0.000  -0.000  -0.000
  0.000   0.000   0.000   0.000   0.000   0.000   0.000  -0.663   0.000   0.000  -0.000   0.000  -0.005  -0.000   0.000   0.000
  0.000   0.000  -0.000  -0.000   0.000  -0.000  -0.000   0.000  -1.165   0.000  -0.000  -0.000   0.000   0.240  -0.000  -0.000
  0.000   0.000   0.000   0.000   0.000   0.000   0.000   0.000  -0.000  -0.663  -0.000  -0.000   0.000  -0.000  -0.005  -0.000
  0.000  -0.000  -0.000   0.000   0.000   0.000  -0.000  -0.000   0.000  -0.000  -1.165   0.000   0.000   0.000  -0.000   0.240
 -0.000   0.000   0.000   0.000   0.000   0.000  -0.000  -0.000  -0.000  -0.000  -0.000  -0.000   0.000   0.000   0.000  -0.000
  0.000   0.000   0.000   0.000   0.000   0.000   0.000   0.000   0.000  -0.000  -0.000  -0.000  -0.000   0.000  -0.000   0.000


------------------------ aborting loop because EDIFF is reached ----------------------------------------


 


 total charge     
 
# of ion       s       p       d       tot
------------------------------------------
    1        0.385   6.378   6.075  12.837
    2        0.385   6.378   6.075  12.837
--------------------------------------------------
tot          0.770  12.755  12.149  25.674
 


 magnetization (x)
 
# of ion       s       p       d       tot
------------------------------------------
    1       -0.008  -0.042   2.292   2.242
    2       -0.008  -0.042   2.292   2.242
--------------------------------------------------
tot         -0.016  -0.083   4.584   4.485
 
    CHARGE:  cpu time    0.0137: real time    0.0139
    FORLOC:  cpu time    0.0001: real time    0.0001
    FORNL :  cpu time    0.0754: real time    0.0756
    STRESS:  cpu time    0.2246: real time    0.2252
    FORCOR:  cpu time    0.0055: real time    0.0056
    FORHAR:  cpu time    0.0008: real time    0.0008
    MIXING:  cpu time    0.0005: real time    0.0005
    OFIELD:  cpu time    0.0000: real time    0.0000

  FORCE on cell =-STRESS in cart. coord.  units (eV):
  Direction    XX          YY          ZZ          XY          YZ          ZX
  --------------------------------------------------------------------------------------
  Alpha Z   218.87049   218.87049   218.87049
  Ewald   -1205.52018 -1205.52018 -1205.52018    -0.00000    -0.00000    -0.00000
  Hartree   363.30396   363.30396   363.30396    -0.00000    -0.00000    -0.00000
  E(xc)    -179.77986  -179.77986  -179.77986     0.00000     0.00000    -0.00000
  Local     289.64030   289.64030   289.64030     0.00000     0.00000     0.00000
  n-local   -60.15249   -54.15026   -50.54797     2.76577    -1.55718     0.58576
  augment   285.43644   285.43644   285.43644    -0.00000    -0.00000     0.00000
  Kinetic   283.95652   282.53012   281.80034     2.92466    -0.71807    -0.08238
  Fock        0.00000     0.00000     0.00000     0.00000     0.00000     0.00000
  -------------------------------------------------------------------------------------
  Total      -0.23676    -0.23676    -0.23676    -0.00000    -0.00000    -0.00000
  in kB     -16.55890   -16.55890   -16.55890    -0.00000    -0.00000    -0.00000
  external pressure =      -16.56 kB  Pullay stress =        0.00 kB


 VOLUME and BASIS-vectors are now :
 -----------------------------------------------------------------------------
  energy-cutoff  :      620.00
  volume of cell :       22.91
      direct lattice vectors                 reciprocal lattice vectors
     2.840052000  0.000000000  0.000000000     0.352106229  0.000000000  0.000000000
     0.000000000  2.840052000  0.000000000     0.000000000  0.352106229  0.000000000
     0.000000000  0.000000000  2.840052000     0.000000000  0.000000000  0.352106229

  length of vectors
     2.840052000  2.840052000  2.840052000     0.352106229  0.352106229  0.352106229


 FORCES acting on ions
    electron-ion (+dipol)            ewald-force                    non-local-force                 convergence-correction
 -----------------------------------------------------------------------------------------------
   0.523E-14 -.246E-13 -.656E-13   -.529E-15 -.103E-14 -.897E-14   0.000E+00 0.000E+00 0.000E+00   -.888E-14 -.164E-14 0.620E-14
   0.853E-12 0.135E-11 -.580E-11   0.472E-14 0.447E-14 0.926E-14   0.000E+00 0.000E+00 0.000E+00   -.310E-13 0.122E-13 -.137E-13
 -----------------------------------------------------------------------------------------------
   0.858E-12 0.133E-11 -.587E-11   0.419E-14 0.343E-14 0.284E-15   0.000E+00 0.000E+00 0.000E+00   -.399E-13 0.106E-13 -.750E-14
 
 
 POSITION                                       TOTAL-FORCE (eV/Angst)
 -----------------------------------------------------------------------------------
      0.00000      0.00000      0.00000        -0.000000     -0.000000     -0.000000
      1.42003      1.42003      1.42003         0.000000      0.000000      0.000000
 -----------------------------------------------------------------------------------
    total drift:                                0.000000      0.000000     -0.000000


--------------------------------------------------------------------------------------------------------



  FREE ENERGIE OF THE ION-ELECTRON SYSTEM (eV)
  ---------------------------------------------------
  free  energy   TOTEN  =       -16.51437997 eV

  energy  without entropy=      -16.51437997  energy(sigma->0) =      -16.51437997
 


--------------------------------------------------------------------------------------------------------


    POTLOK:  cpu time    0.0108: real time    0.0109


--------------------------------------------------------------------------------------------------------


     LOOP+:  cpu time    7.6256: real time    7.6583
    4ORBIT:  cpu time    0.0000: real time    0.0000
 


 total charge     
 
# of ion       s       p       d       tot
------------------------------------------
    1        0.385   6.378   6.075  12.837
    2        0.385   6.378   6.075  12.837
--------------------------------------------------
tot          0.770  12.755  12.149  25.674
 


 magnetization (x)
 
# of ion       s       p       d       tot
------------------------------------------
    1       -0.008  -0.042   2.292   2.242
    2       -0.008  -0.042   2.292   2.242
--------------------------------------------------
tot         -0.016  -0.083   4.584   4.485
 
 BZINTS: Fermi energy:  9.622604; 28.000000 electrons
         Band energy:-399.268787;  BLOECHL correction: -0.034707

 total amount of memory used by VASP MPI-rank0    32606. kBytes
=======================================================================

   base      :      30000. kBytes
   nonlr-proj:        696. kBytes
   fftplans  :        262. kBytes
   grid      :        623. kBytes
   one-center:         31. kBytes
   wavefun   :        994. kBytes
 
  
  
 General timing and accounting informations for this job:
 ========================================================
  
                  Total CPU time used (sec):        9.047
                            User time (sec):        8.836
                          System time (sec):        0.211
                         Elapsed time (sec):       10.857
  
                   Maximum memory used (kb):       53664.
                   Average memory used (kb):           0.
  
                          Minor page faults:        13050
                          Major page faults:            0
                 Voluntary context switches:         1488
