       N       E                     dE             d eps       ncg     rms          rms(c)
DAV:   1     0.507883557647E+04    0.50788E+04   -0.18410E+05 11496   0.258E+03
DAV:   2     0.652088149783E+03   -0.44267E+04   -0.40573E+04 11424   0.694E+02
DAV:   3    -0.224605849307E+03   -0.87669E+03   -0.75751E+03 11820   0.285E+02
DAV:   4    -0.293686732619E+03   -0.69081E+02   -0.68203E+02 12936   0.766E+01
DAV:   5    -0.294516910919E+03   -0.83018E+00   -0.82731E+00 12804   0.942E+00    0.809E+01
DAV:   6    -0.235281876204E+03    0.59235E+02   -0.25307E+02 14880   0.811E+01    0.912E+01
DAV:   7    -0.212030856561E+03    0.23251E+02   -0.11411E+02 12252   0.636E+01    0.437E+01
DAV:   8    -0.218327171756E+03   -0.62963E+01   -0.21446E+01 12132   0.173E+01    0.265E+01
DAV:   9    -0.222504458548E+03   -0.41773E+01   -0.81964E+00 12612   0.170E+01    0.270E+01
DAV:  10    -0.222171233193E+03    0.33323E+00   -0.24526E+00 12588   0.691E+00    0.186E+01
DAV:  11    -0.221609467173E+03    0.56177E+00   -0.22640E-01 14268   0.281E+00    0.122E+01
DAV:  12    -0.221406667380E+03    0.20280E+00   -0.19613E-01 15228   0.240E+00    0.842E+00
DAV:  13    -0.221406062472E+03    0.60491E-03   -0.11209E-01 13908   0.224E+00    0.467E+00
DAV:  14    -0.221450582787E+03   -0.44520E-01   -0.15241E-01 14988   0.200E+00    0.181E+00
DAV:  15    -0.221468589120E+03   -0.18006E-01   -0.62817E-02 12672   0.676E-01    0.143E+00
DAV:  16    -0.221463559830E+03    0.50293E-02   -0.89254E-03 14388   0.702E-01    0.382E-01
DAV:  17    -0.221464162141E+03   -0.60231E-03   -0.47942E-03 12468   0.182E-01    0.194E-01
DAV:  18    -0.221464398336E+03   -0.23619E-03   -0.25451E-04 14052   0.827E-02    0.861E-02
DAV:  19    -0.221464455276E+03   -0.56941E-04   -0.10195E-04 13656   0.427E-02    0.172E-02
DAV:  20    -0.221464463766E+03   -0.84895E-05   -0.21833E-05 12480   0.143E-02    0.890E-03
DAV:  21    -0.221464461757E+03    0.20089E-05   -0.23458E-06 12648   0.868E-03    0.113E-02
DAV:  22    -0.221464462857E+03   -0.11003E-05   -0.10186E-06 10752   0.531E-03    0.509E-03
DAV:  23    -0.221464462923E+03   -0.65324E-07   -0.29469E-07  9756   0.318E-03
   1 F= -.22146446E+03 E0= -.22146446E+03  d E =0.000000E+00  mag=    42.3369
