 vasp.5.4.4.18Apr17-6-g9f103f2a35 (build Apr 28 2018 00:24:27) complex          
  
 executed on             LinuxIFC date 2021.09.06  03:45:05
 running on   24 total cores
 distrk:  each k-point on   24 cores,    1 groups
 distr:  one band on NCORES_PER_BAND=   4 cores,    6 groups


--------------------------------------------------------------------------------------------------------


 INCAR:
 POTCAR:    PAW_PBE Fe_pv 02Aug2007               
 POTCAR:    PAW_PBE O 08Apr2002                   
 POTCAR:    PAW_PBE Fe_pv 02Aug2007               
   VRHFIN =Fe:  3pd7s1                                                          
   LEXCH  = PE                                                                  
   EATOM  =  2457.4239 eV,  180.6156 Ry                                         
                                                                                
   TITEL  = PAW_PBE Fe_pv 02Aug2007                                             
   LULTRA =        F    use ultrasoft PP ?                                      
   IUNSCR =        1    unscreen: 0-lin 1-nonlin 2-no                           
   RPACOR =    1.750    partial core radius                                     
   POMASS =   55.847; ZVAL   =   14.000    mass and valenz                      
   RCORE  =    2.200    outmost cutoff radius                                   
   RWIGS  =    2.200; RWIGS  =    1.164    wigner-seitz radius (au A)           
   ENMAX  =  293.238; ENMIN  =  219.928 eV                                      
   ICORE  =        3    local potential                                         
   LCOR   =        T    correct aug charges                                     
   LPAW   =        T    paw PP                                                  
   EAUG   =  578.342                                                            
   DEXC   =    0.000                                                            
   RMAX   =    2.249    core radius for proj-oper                               
   RAUG   =    1.300    factor for augmentation sphere                          
   RDEP   =    2.296    radius for radial grids                                 
   RDEPT  =    1.766    core radius for aug-charge                              
                                                                                
   Atomic configuration                                                         
    8 entries                                                                   
     n  l   j            E        occ.                                          
     1  0  0.50     -6993.8440   2.0000                                         
     2  0  0.50      -814.6047   2.0000                                         
     2  1  1.50      -693.3689   6.0000                                         
     3  0  0.50       -89.4732   2.0000                                         
     3  1  1.50       -55.6373   6.0000                                         
     3  2  2.50        -3.8151   7.0000                                         
     4  0  0.50        -4.2551   1.0000                                         
     4  3  2.50        -1.3606   0.0000                                         
   Description                                                                  
     l       E           TYP  RCUT    TYP  RCUT                                 
     1    -55.6372668     23  2.000                                             
     1     -5.4423304     23  2.000                                             
     2     -3.8151096     23  2.200                                             
     2     -5.1756922     23  2.200                                             
     0     -4.2550951     23  2.200                                             
     0     27.2116520     23  2.200                                             
     3     -1.3605826     23  2.200                                             
  local pseudopotential read in
  partial core-charges read in
  partial kinetic energy density read in
  atomic valenz-charges read in
  non local Contribution for L=           1  read in
    real space projection operators read in
  non local Contribution for L=           1  read in
    real space projection operators read in
  non local Contribution for L=           2  read in
    real space projection operators read in
  non local Contribution for L=           2  read in
    real space projection operators read in
  non local Contribution for L=           0  read in
    real space projection operators read in
  non local Contribution for L=           0  read in
    real space projection operators read in
    PAW grid and wavefunctions read in
 
   number of l-projection  operators is LMAX  =           6
   number of lm-projection operators is LMMAX =          18
 
 POTCAR:    PAW_PBE O 08Apr2002                   
   VRHFIN =O: s2p4                                                              
   LEXCH  = PE                                                                  
   EATOM  =   432.3788 eV,   31.7789 Ry                                         
                                                                                
   TITEL  = PAW_PBE O 08Apr2002                                                 
   LULTRA =        F    use ultrasoft PP ?                                      
   IUNSCR =        1    unscreen: 0-lin 1-nonlin 2-no                           
   RPACOR =    1.200    partial core radius                                     
   POMASS =   16.000; ZVAL   =    6.000    mass and valenz                      
   RCORE  =    1.520    outmost cutoff radius                                   
   RWIGS  =    1.550; RWIGS  =    0.820    wigner-seitz radius (au A)           
   ENMAX  =  400.000; ENMIN  =  300.000 eV                                      
   ICORE  =        2    local potential                                         
   LCOR   =        T    correct aug charges                                     
   LPAW   =        T    paw PP                                                  
   EAUG   =  605.392                                                            
   DEXC   =    0.000                                                            
   RMAX   =    1.553    core radius for proj-oper                               
   RAUG   =    1.300    factor for augmentation sphere                          
   RDEP   =    1.550    radius for radial grids                                 
   RDEPT  =    1.329    core radius for aug-charge                              
                                                                                
   Atomic configuration                                                         
    4 entries                                                                   
     n  l   j            E        occ.                                          
     1  0  0.50      -514.6923   2.0000                                         
     2  0  0.50       -23.9615   2.0000                                         
     2  1  0.50        -9.0305   4.0000                                         
     3  2  1.50        -9.5241   0.0000                                         
   Description                                                                  
     l       E           TYP  RCUT    TYP  RCUT                                 
     0    -23.9615318     23  1.200                                             
     0     -9.5240782     23  1.200                                             
     1     -9.0304911     23  1.520                                             
     1      8.1634956     23  1.520                                             
     2     -9.5240782      7  1.500                                             
  local pseudopotential read in
  partial core-charges read in
  partial kinetic energy density read in
  kinetic energy density of atom read in
  atomic valenz-charges read in
  non local Contribution for L=           0  read in
    real space projection operators read in
  non local Contribution for L=           0  read in
    real space projection operators read in
  non local Contribution for L=           1  read in
    real space projection operators read in
  non local Contribution for L=           1  read in
    real space projection operators read in
    PAW grid and wavefunctions read in
 
   number of l-projection  operators is LMAX  =           4
   number of lm-projection operators is LMMAX =           8
 
 Optimization of the real space projectors (new method)

 maximal supplied QI-value         = 17.01
 optimisation between [QCUT,QGAM] = [ 14.97, 29.93] = [ 62.73,250.91] Ry 
 Optimized for a Real-space Cutoff    1.27 Angstroem

   l    n(q)    QCUT    max X(q) W(low)/X(q) W(high)/X(q)  e(spline) 
   1     11    14.967     4.267    0.13E-03    0.88E-04    0.44E-06
   1     11    14.967     5.750    0.19E-03    0.12E-03    0.70E-06
   2     10    14.967    53.656    0.15E-03    0.16E-04    0.40E-06
   2     10    14.967    49.521    0.16E-03    0.16E-04    0.42E-06
   0     11    14.967    31.246    0.46E-04    0.22E-05    0.53E-06
   0     11    14.967    12.201    0.38E-04    0.18E-05    0.44E-06
 Optimization of the real space projectors (new method)

 maximal supplied QI-value         = 24.76
 optimisation between [QCUT,QGAM] = [ 14.85, 29.95] = [ 61.78,251.25] Ry 
 Optimized for a Real-space Cutoff    0.97 Angstroem

   l    n(q)    QCUT    max X(q) W(low)/X(q) W(high)/X(q)  e(spline) 
   0      9    14.853    20.381    0.15E-03    0.11E-03    0.15E-06
   0      9    14.853    15.268    0.17E-03    0.11E-03    0.17E-06
   1      8    14.853     5.964    0.24E-03    0.86E-04    0.12E-06
   1      8    14.853     5.382    0.21E-03    0.79E-04    0.11E-06
  PAW_PBE Fe_pv 02Aug2007               :
 energy of atom  1       EATOM=-2457.4239
 kinetic energy error for atom=    0.0011 (will be added to EATOM!!)
  PAW_PBE O 08Apr2002                   :
 energy of atom  2       EATOM= -432.3788
 kinetic energy error for atom=    0.0030 (will be added to EATOM!!)
 
 
 POSCAR: Fe12 O18                                
  positions in direct lattice
  No initial velocities read in
 exchange correlation table for  LEXCH =        8
   RHO(1)=    0.500       N(1)  =     2000
   RHO(2)=  100.500       N(2)  =     4000
 


--------------------------------------------------------------------------------------------------------


 ion  position               nearest neighbor table
   1  0.000  0.000  0.355-  17 1.94  23 1.94  28 1.94  25 2.12  19 2.12  13 2.12
   2  0.000  0.000  0.645-  16 1.94  22 1.94  29 1.94  26 2.12  20 2.12  14 2.12
   3  0.333  0.667  0.022-  30 1.94  24 1.94  18 1.94  27 2.12  21 2.12  15 2.12
   4  0.667  0.333  0.689-  14 1.94  20 1.94  26 1.94  22 2.12  29 2.12  16 2.12
   5  0.333  0.667  0.311-  13 1.94  19 1.94  25 1.94  23 2.12  28 2.12  17 2.12
   6  0.667  0.333  0.978-  27 1.94  21 1.94  15 1.94  30 2.12  24 2.12  18 2.12
   7  0.000  0.000  0.145-  24 1.94  18 1.94  30 1.94  25 2.12  19 2.12  13 2.12
   8  0.000  0.000  0.855-  21 1.94  15 1.94  27 1.94  26 2.12  20 2.12  14 2.12
   9  0.333  0.667  0.811-  20 1.94  14 1.94  26 1.94  27 2.12  21 2.12  15 2.12
  10  0.333  0.667  0.522-  29 1.94  16 1.94  22 1.94  23 2.12  28 2.12  17 2.12
  11  0.667  0.333  0.478-  28 1.94  17 1.94  23 1.94  22 2.12  29 2.12  16 2.12
  12  0.667  0.333  0.189-  19 1.94  13 1.94  25 1.94  30 2.12  24 2.12  18 2.12
  13  0.306  0.000  0.250-   5 1.94  12 1.94   7 2.12   1 2.12
  14  0.694  0.000  0.750-   4 1.94   9 1.94   8 2.12   2 2.12
  15  0.640  0.667  0.917-   6 1.94   8 1.94   9 2.12   3 2.12
  16  0.973  0.333  0.583-  10 1.94   2 1.94   4 2.12  11 2.12
  17  0.027  0.667  0.417-  11 1.94   1 1.94   5 2.12  10 2.12
  18  0.360  0.333  0.083-   3 1.94   7 1.94  12 2.12   6 2.12
  19  0.000  0.306  0.250-  12 1.94   5 1.94   7 2.12   1 2.12
  20  0.000  0.694  0.750-   9 1.94   4 1.94   8 2.12   2 2.12
  21  0.333  0.973  0.917-   6 1.94   8 1.94   9 2.12   3 2.12
  22  0.667  0.640  0.583-  10 1.94   2 1.94   4 2.12  11 2.12
  23  0.333  0.360  0.417-  11 1.94   1 1.94   5 2.12  10 2.12
  24  0.667  0.027  0.083-   3 1.94   7 1.94  12 2.12   6 2.12
  25  0.694  0.694  0.250-  12 1.94   5 1.94   7 2.12   1 2.12
  26  0.306  0.306  0.750-   9 1.94   4 1.94   8 2.12   2 2.12
  27  0.027  0.360  0.917-   6 1.94   8 1.94   9 2.12   3 2.12
  28  0.640  0.973  0.417-  11 1.94   1 1.94   5 2.12  10 2.12
  29  0.360  0.027  0.583-  10 1.94   2 1.94   4 2.12  11 2.12
  30  0.973  0.640  0.083-   3 1.94   7 1.94  12 2.12   6 2.12
 
  LATTYP: Found a hexagonal cell.
 ALAT       =     5.0350995578
 C/A-ratio  =     2.7324385232
  
  Lattice vectors:
  
 A1 = (   5.0351000000,   0.0000000000,   0.0000000000)
 A2 = (  -2.5175500000,   4.3605240000,   0.0000000000)
 A3 = (   0.0000000000,   0.0000000000,  13.7581000000)


Analysis of symmetry for initial positions (statically):
=====================================================================
 Subroutine PRICEL returns following result:
 
  LATTYP: Found a trigonal (rhomboedric) cell.
 ALAT       =     5.4297801492
 COS(alpha) =     0.5700456062
  
  Lattice vectors:
  
 A1 = (  -2.5175449649,  -1.4535109070,  -4.5860425054)
 A2 = (  -0.0000025175,   2.9070174535,  -4.5860287473)
 A3 = (   2.5175474825,  -1.4535065465,  -4.5860287473)
 
   3 primitive cells build up your supercell.
 

 Routine SETGRP: Setting up the symmetry group for a 
 hexagonal supercell.


 Subroutine GETGRP returns: Found 12 space group operations
 (whereof  6 operations were pure point group operations)
 out of a pool of 24 trial point group operations.


The static configuration has the point symmetry S_6 .
 The point group associated with its full space group is D_3d.


Analysis of symmetry for dynamics (positions and initial velocities):
=====================================================================
 Subroutine PRICEL returns following result:
 
  LATTYP: Found a trigonal (rhomboedric) cell.
 ALAT       =     5.4297801492
 COS(alpha) =     0.5700456062
  
  Lattice vectors:
  
 A1 = (  -2.5175449649,  -1.4535109070,  -4.5860425054)
 A2 = (  -0.0000025175,   2.9070174535,  -4.5860287473)
 A3 = (   2.5175474825,  -1.4535065465,  -4.5860287473)
 
   3 primitive cells build up your supercell.
 

 Routine SETGRP: Setting up the symmetry group for a 
 hexagonal supercell.


 Subroutine GETGRP returns: Found 12 space group operations
 (whereof  6 operations were pure point group operations)
 out of a pool of 24 trial point group operations.


The dynamic configuration has the point symmetry S_6 .
 The point group associated with its full space group is D_3d.


Analysis of structural, dynamic, and magnetic symmetry:
=====================================================================
 Subroutine PRICEL returns following result:
 
  LATTYP: Found a trigonal (rhomboedric) cell.
 ALAT       =     5.4297801492
 COS(alpha) =     0.5700456062
  
  Lattice vectors:
  
 A1 = (  -2.5175449649,  -1.4535109070,  -4.5860425054)
 A2 = (  -0.0000025175,   2.9070174535,  -4.5860287473)
 A3 = (   2.5175474825,  -1.4535065465,  -4.5860287473)
 
   3 primitive cells build up your supercell.
 

 Routine SETGRP: Setting up the symmetry group for a 
 hexagonal supercell.


 Subroutine GETGRP returns: Found 12 space group operations
 (whereof  6 operations were pure point group operations)
 out of a pool of 24 trial point group operations.


The magnetic configuration has the point symmetry S_6 .
 The point group associated with its full space group is D_3d.


 Subroutine INISYM returns: Found 12 space group operations
 (whereof  6 operations are pure point group operations),
 and found     3 'primitive' translations

 
 
 KPOINTS: pymatgen with grid density = 2464 / numb

Automatic generation of k-mesh.
Space group operators:
 irot       det(A)        alpha          n_x          n_y          n_z        tau_x        tau_y        tau_z
    1     1.000000     0.000000     1.000000     0.000000     0.000000     0.000000     0.000000     0.000000
    2    -1.000000     0.000000     1.000000     0.000000     0.000000     0.000000     0.000000     0.000000
    3     1.000000   120.000000     0.000000     0.000000    -1.000000     0.000000     0.000000     0.000000
    4    -1.000000   120.000000     0.000000     0.000000    -1.000000     0.000000     0.000000     0.000000
    5     1.000000   120.000000     0.000000     0.000000     1.000000     0.000000     0.000000     0.000000
    6    -1.000000   120.000000     0.000000     0.000000     1.000000     0.000000     0.000000     0.000000
    7     1.000000   180.000000     1.000000     0.000000     0.000000     0.000001    -0.000000    -0.500000
    8    -1.000000   180.000000     1.000000     0.000000     0.000000     0.000001    -0.000000    -0.500000
    9     1.000000   180.000000     0.500000    -0.866025     0.000000     0.000000     0.000000    -0.500000
   10    -1.000000   180.000000     0.500000    -0.866025     0.000000     0.000000     0.000000    -0.500000
   11     1.000000   180.000000    -0.500000    -0.866025     0.000000     0.000000     0.000000    -0.500000
   12    -1.000000   180.000000    -0.500000    -0.866025     0.000000     0.000000     0.000000    -0.500000
 
 Subroutine IBZKPT returns following result:
 ===========================================
 
 Found     14 irreducible k-points:
 
 Following reciprocal coordinates:
            Coordinates               Weight
  0.000000  0.000000  0.000000      1.000000
  0.166667  0.000000  0.000000      6.000000
  0.333333  0.000000  0.000000      6.000000
  0.500000  0.000000  0.000000      3.000000
  0.166667  0.166667  0.000000      6.000000
  0.333333  0.166667  0.000000     12.000000
  0.333333  0.333333  0.000000      2.000000
  0.000000  0.000000  0.500000      1.000000
  0.166667  0.000000  0.500000      6.000000
  0.333333  0.000000  0.500000      6.000000
  0.500000  0.000000  0.500000      3.000000
  0.166667  0.166667  0.500000      6.000000
  0.333333  0.166667  0.500000     12.000000
  0.333333  0.333333  0.500000      2.000000
 
 Following cartesian coordinates:
            Coordinates               Weight
  0.000000  0.000000  0.000000      1.000000
  0.033101  0.019111  0.000000      6.000000
  0.066202  0.038222  0.000000      6.000000
  0.099303  0.057333  0.000000      3.000000
  0.033101  0.057333  0.000000      6.000000
  0.066202  0.076443  0.000000     12.000000
  0.066202  0.114665  0.000000      2.000000
  0.000000  0.000000  0.036342      1.000000
  0.033101  0.019111  0.036342      6.000000
  0.066202  0.038222  0.036342      6.000000
  0.099303  0.057333  0.036342      3.000000
  0.033101  0.057333  0.036342      6.000000
  0.066202  0.076443  0.036342     12.000000
  0.066202  0.114665  0.036342      2.000000
 
 TETIRR: Found     71 inequivalent tetrahedra from      432


--------------------------------------------------------------------------------------------------------




 Dimension of arrays:
   k-points           NKPTS =     14   k-points in BZ     NKDIM =     14   number of bands    NBANDS=    204
   number of dos      NEDOS =    301   number of ions     NIONS =     30
   non local maximal  LDIM  =      6   non local SUM 2l+1 LMDIM =     18
   total plane-waves  NPLWV = 322560
   max r-space proj   IRMAX =   9111   max aug-charges    IRDMAX=  31822
   dimension x,y,z NGX =    48 NGY =   48 NGZ =  140
   dimension x,y,z NGXF=    96 NGYF=   96 NGZF=  280
   support grid    NGXF=    96 NGYF=   96 NGZF=  280
   ions per type =              12  18
   NGX,Y,Z   is equivalent  to a cutoff of  15.85, 15.85, 16.92 a.u.
   NGXF,Y,Z  is equivalent  to a cutoff of  31.70, 31.70, 33.83 a.u.

 SYSTEM =  unknown system                          
 POSCAR =  Fe12 O18                                

 Startparameter for this run:
   NWRITE =      2    write-flag & timer
   PREC   = accura    normal or accurate (medium, high low for compatibility)
   ISTART =      0    job   : 0-new  1-cont  2-samecut
   ICHARG =      2    charge: 1-file 2-atom 10-const
   ISPIN  =      2    spin polarized calculation?
   LNONCOLLINEAR =      F non collinear calculations
   LSORBIT =      F    spin-orbit coupling
   INIWAV =      1    electr: 0-lowe 1-rand  2-diag
   LASPH  =      F    aspherical Exc in radial PAW
   METAGGA=      F    non-selfconsistent MetaGGA calc.

 Electronic Relaxation 1
   ENCUT  =  860.0 eV  63.21 Ry    7.95 a.u.  12.04 12.04 32.90*2*pi/ulx,y,z
   ENINI  =  860.0     initial cutoff
   ENAUG  =  605.4 eV  augmentation charge cutoff
   NELM   =    100;   NELMIN=  2; NELMDL= -5     # of ELM steps 
   EDIFF  = 0.1E-06   stopping-criterion for ELM
   LREAL  =      T    real-space projection
   NLSPLINE    = F    spline interpolate recip. space projectors
   LCOMPAT=      F    compatible to vasp.4.4
   GGA_COMPAT  = T    GGA compatible to vasp.4.4-vasp.4.6
   LMAXPAW     = -100 max onsite density
   LMAXMIX     =    2 max onsite mixed and CHGCAR
   VOSKOWN=      0    Vosko Wilk Nusair interpolation
   ROPT   =   -0.00025  -0.00025
 Ionic relaxation
   EDIFFG = 0.1E-05   stopping-criterion for IOM
   NSW    =      0    number of steps for IOM
   NBLOCK =      1;   KBLOCK =      1    inner block; outer block 
   IBRION =     -1    ionic relax: 0-MD 1-quasi-New 2-CG
   NFREE  =      0    steps in history (QN), initial steepest desc. (CG)
   ISIF   =      3    stress and relaxation
   IWAVPR =     10    prediction:  0-non 1-charg 2-wave 3-comb
   ISYM   =      2    0-nonsym 1-usesym 2-fastsym
   LCORR  =      T    Harris-Foulkes like correction to forces

   POTIM  = 0.5000    time-step for ionic-motion
   TEIN   =    0.0    initial temperature
   TEBEG  =    0.0;   TEEND  =   0.0 temperature during run
   SMASS  =  -3.00    Nose mass-parameter (am)
   estimated Nose-frequenzy (Omega)   =  0.10E-29 period in steps =****** mass=  -0.579E-27a.u.
   SCALEE = 1.0000    scale energy and forces
   NPACO  =    256;   APACO  = 16.0  distance and # of slots for P.C.
   PSTRESS=    0.0 pullay stress

  Mass of Ions in am
   POMASS =  55.85 16.00
  Ionic Valenz
   ZVAL   =  14.00  6.00
  Atomic Wigner-Seitz radii
   RWIGS  =  -1.00 -1.00
  virtual crystal weights 
   VCA    =   1.00  1.00
   NELECT =     276.0000    total number of electrons
   NUPDOWN=      -1.0000    fix difference up-down

 DOS related values:
   EMIN   =  10.00;   EMAX   =-10.00  energy-range for DOS
   EFERMI =   0.00
   ISMEAR =    -5;   SIGMA  =   0.05  broadening in eV -4-tet -1-fermi 0-gaus

 Electronic relaxation 2 (details)
   IALGO  =     38    algorithm
   LDIAG  =      T    sub-space diagonalisation (order eigenvalues)
   LSUBROT=      F    optimize rotation matrix (better conditioning)
   TURBO    =      0    0=normal 1=particle mesh
   IRESTART =      0    0=no restart 2=restart with 2 vectors
   NREBOOT  =      0    no. of reboots
   NMIN     =      0    reboot dimension
   EREF     =   0.00    reference energy to select bands
   IMIX   =      4    mixing-type and parameters
     AMIX     =   0.40;   BMIX     =  1.00
     AMIX_MAG =   1.60;   BMIX_MAG =  1.00
     AMIN     =   0.10
     WC   =   100.;   INIMIX=   1;  MIXPRE=   1;  MAXMIX= -45

 Intra band minimization:
   WEIMIN = 0.0000     energy-eigenvalue tresh-hold
   EBREAK =  0.12E-09  absolut break condition
   DEPER  =   0.30     relativ break condition  

   TIME   =   0.40     timestep for ELM

  volume/ion in A,a.u.               =      10.07        67.95
  Fermi-wavevector in a.u.,A,eV,Ry     =   1.588581  3.001983 34.335534  2.523591
  Thomas-Fermi vector in A             =   2.687563
 
 Write flags
   LWAVE        =      F    write WAVECAR
   LDOWNSAMPLE  =      F    k-point downsampling of WAVECAR
   LCHARG       =      F    write CHGCAR
   LVTOT        =      F    write LOCPOT, total local potential
   LVHAR        =      F    write LOCPOT, Hartree potential only
   LELF         =      F    write electronic localiz. function (ELF)
   LORBIT       =     11    0 simple, 1 ext, 2 COOP (PROOUT), +10 PAW based schemes


 Dipole corrections
   LMONO  =      F    monopole corrections only (constant potential shift)
   LDIPOL =      F    correct potential (dipole corrections)
   IDIPOL =      0    1-x, 2-y, 3-z, 4-all directions 
   EPSILON=  1.0000000 bulk dielectric constant

 Exchange correlation treatment:
   GGA     =    --    GGA type
   LEXCH   =     8    internal setting for exchange type
   VOSKOWN=      0    Vosko Wilk Nusair interpolation
   LHFCALC =     F    Hartree Fock is set to
   LHFONE  =     F    Hartree Fock one center treatment
   AEXX    =    0.0000 exact exchange contribution

 Linear response parameters
   LEPSILON=     F    determine dielectric tensor
   LRPA    =     F    only Hartree local field effects (RPA)
   LNABLA  =     F    use nabla operator in PAW spheres
   LVEL    =     F    velocity operator in full k-point grid
   LINTERFAST=   F  fast interpolation
   KINTER  =     0    interpolate to denser k-point grid
   CSHIFT  =0.1000    complex shift for real part using Kramers Kronig
   OMEGAMAX=  -1.0    maximum frequency
   DEG_THRESHOLD= 0.2000000E-02 threshold for treating states as degnerate
   RTIME   =   -0.100 relaxation time in fs
  (WPLASMAI=    0.000 imaginary part of plasma frequency in eV, 0.658/RTIME)
   DFIELD  = 0.0000000 0.0000000 0.0000000 field for delta impulse in time
 
 Orbital magnetization related:
   ORBITALMAG=     F  switch on orbital magnetization
   LCHIMAG   =     F  perturbation theory with respect to B field
   DQ        =  0.001000  dq finite difference perturbation B field
   LLRAUG    =     F  two centre corrections for induced B field



--------------------------------------------------------------------------------------------------------


 Static calculation
 charge density and potential will be updated during run
 spin polarized calculation
 Variant of blocked Davidson
 Davidson routine will perform the subspace rotation
 perform sub-space diagonalisation
    after iterative eigenvector-optimisation
 modified Broyden-mixing scheme, WC =      100.0
 initial mixing is a Kerker type mixing with AMIX =  0.4000 and BMIX =      1.0000
 Hartree-type preconditioning will be used
 using additional bands           66
 real space projection scheme for non local part
 use partial core corrections
 calculate Harris-corrections to forces 
   (improved forces if not selfconsistent)
 use gradient corrections 
 use of overlap-Matrix (Vanderbilt PP)
 Fermi weights with tetrahedron method with Bloechl corrections


--------------------------------------------------------------------------------------------------------


  energy-cutoff  :      860.00
  volume of cell :      302.07
      direct lattice vectors                 reciprocal lattice vectors
     5.035100000  0.000000000  0.000000000     0.198605787  0.114665118  0.000000000
    -2.517550000  4.360524000  0.000000000     0.000000000  0.229330236  0.000000000
     0.000000000  0.000000000 13.758100000     0.000000000  0.000000000  0.072684455

  length of vectors
     5.035100000  5.035099558 13.758100000     0.229330216  0.229330236  0.072684455


 
 k-points in units of 2pi/SCALE and weight: pymatgen with grid density = 2464 / numb
   0.00000000  0.00000000  0.00000000       0.014
   0.03310096  0.01911085  0.00000000       0.083
   0.06620193  0.03822171  0.00000000       0.083
   0.09930289  0.05733256  0.00000000       0.042
   0.03310096  0.05733256  0.00000000       0.083
   0.06620193  0.07644341  0.00000000       0.167
   0.06620193  0.11466512  0.00000000       0.028
   0.00000000  0.00000000  0.03634223       0.014
   0.03310096  0.01911085  0.03634223       0.083
   0.06620193  0.03822171  0.03634223       0.083
   0.09930289  0.05733256  0.03634223       0.042
   0.03310096  0.05733256  0.03634223       0.083
   0.06620193  0.07644341  0.03634223       0.167
   0.06620193  0.11466512  0.03634223       0.028
 
 k-points in reciprocal lattice and weights: pymatgen with grid density = 2464 / numb
   0.00000000  0.00000000  0.00000000       0.014
   0.16666667  0.00000000  0.00000000       0.083
   0.33333333  0.00000000  0.00000000       0.083
   0.50000000  0.00000000  0.00000000       0.042
   0.16666667  0.16666667  0.00000000       0.083
   0.33333333  0.16666667  0.00000000       0.167
   0.33333333  0.33333333  0.00000000       0.028
   0.00000000  0.00000000  0.50000000       0.014
   0.16666667  0.00000000  0.50000000       0.083
   0.33333333  0.00000000  0.50000000       0.083
   0.50000000  0.00000000  0.50000000       0.042
   0.16666667  0.16666667  0.50000000       0.083
   0.33333333  0.16666667  0.50000000       0.167
   0.33333333  0.33333333  0.50000000       0.028
 
 position of ions in fractional coordinates (direct lattice) 
   0.00000000  0.00000000  0.35532000
   0.00000000  0.00000000  0.64468000
   0.33333300  0.66666700  0.02198700
   0.66666700  0.33333300  0.68865300
   0.33333300  0.66666700  0.31134700
   0.66666700  0.33333300  0.97801300
   0.00000000  0.00000000  0.14468000
   0.00000000  0.00000000  0.85532000
   0.33333300  0.66666700  0.81134700
   0.33333300  0.66666700  0.52198700
   0.66666700  0.33333300  0.47801300
   0.66666700  0.33333300  0.18865300
   0.30618000  0.00000000  0.25000000
   0.69382000  0.00000000  0.75000000
   0.63951300  0.66666700  0.91666700
   0.97284700  0.33333300  0.58333300
   0.02715300  0.66666700  0.41666700
   0.36048700  0.33333300  0.08333300
   0.00000000  0.30618000  0.25000000
   0.00000000  0.69382000  0.75000000
   0.33333300  0.97284700  0.91666700
   0.66666700  0.63951300  0.58333300
   0.33333300  0.36048700  0.41666700
   0.66666700  0.02715300  0.08333300
   0.69382000  0.69382000  0.25000000
   0.30618000  0.30618000  0.75000000
   0.02715300  0.36048700  0.91666700
   0.63951300  0.97284700  0.41666700
   0.36048700  0.02715300  0.58333300
   0.97284700  0.63951300  0.08333300
 
 position of ions in cartesian coordinates  (Angst):
   0.00000000  0.00000000  4.88852809
   0.00000000  0.00000000  8.86957191
  -0.00000252  2.90701745  0.30249934
   2.51755252  1.45350655  9.47455684
  -0.00000252  2.90701745  4.28354316
   2.51755252  1.45350655 13.45560066
   0.00000000  0.00000000  1.99052191
   0.00000000  0.00000000 11.76757809
  -0.00000252  2.90701745 11.16259316
  -0.00000252  2.90701745  7.18154934
   2.51755252  1.45350655  6.57655066
   2.51755252  1.45350655  2.59550684
   1.54164692  0.00000000  3.43952500
   3.49345308  0.00000000 10.31857500
   1.54164440  2.90701745 12.61159625
   4.05919944  1.45350655  8.02555375
  -1.54164944  2.90701745  5.73254625
   0.97590560  1.45350655  1.14650375
  -0.77082346  1.33510524  3.43952500
  -1.74672654  3.02541876 10.31857500
  -0.77082598  4.24212269 12.61159625
   1.74672906  2.78861178  8.02555375
   0.77082094  1.57191222  5.73254625
   3.28837598  0.11840131  1.14650375
   1.74672654  3.02541876  3.43952500
   0.77082346  1.33510524 10.31857500
  -0.77082598  1.57191222 12.61159625
   0.77082094  4.24212269  5.73254625
   1.74672906  0.11840131  8.02555375
   3.28837598  2.78861178  1.14650375
 


--------------------------------------------------------------------------------------------------------


 k-point  1 :   0.0000 0.0000 0.0000  plane waves:   17177
 k-point  2 :   0.1667 0.0000 0.0000  plane waves:   17255
 k-point  3 :   0.3333 0.0000 0.0000  plane waves:   17325
 k-point  4 :   0.5000 0.0000 0.0000  plane waves:   17308
 k-point  5 :   0.1667 0.1667 0.0000  plane waves:   17312
 k-point  6 :   0.3333 0.1667 0.0000  plane waves:   17320
 k-point  7 :   0.3333 0.3333 0.0000  plane waves:   17262
 k-point  8 :   0.0000 0.0000 0.5000  plane waves:   17250
 k-point  9 :   0.1667 0.0000 0.5000  plane waves:   17238
 k-point 10 :   0.3333 0.0000 0.5000  plane waves:   17294
 k-point 11 :   0.5000 0.0000 0.5000  plane waves:   17312
 k-point 12 :   0.1667 0.1667 0.5000  plane waves:   17314
 k-point 13 :   0.3333 0.1667 0.5000  plane waves:   17312
 k-point 14 :   0.3333 0.3333 0.5000  plane waves:   17376

 maximum and minimum number of plane-waves per node :      4353     4263

 maximum number of plane-waves:     17376
 maximum index in each direction: 
   IXMAX=   12   IYMAX=   12   IZMAX=   32
   IXMIN=  -12   IYMIN=  -12   IZMIN=  -33


 real space projection operators:
  total allocation   :      19285.31 KBytes
  max/ min on nodes  :       4848.56       4765.75


 parallel 3D FFT for wavefunctions:
    minimum data exchange during FFTs selected (reduces bandwidth)
 parallel 3D FFT for charge:
    minimum data exchange during FFTs selected (reduces bandwidth)


 total amount of memory used by VASP MPI-rank0   129792. kBytes
=======================================================================

   base      :      30000. kBytes
   nonlr-proj:      10599. kBytes
   fftplans  :       6013. kBytes
   grid      :      15120. kBytes
   one-center:        248. kBytes
   wavefun   :      67812. kBytes
 
     INWAV:  cpu time    0.0000: real time    0.0001
 Broyden mixing: mesh for mixing (old mesh)
   NGX = 25   NGY = 25   NGZ = 65
  (NGX  = 96   NGY  = 96   NGZ  =280)
  gives a total of  40625 points

 initial charge density was supplied:
 charge density of overlapping atoms calculated
 number of electron     276.0000000 magnetization      70.8000000
 keeping initial charge density in first step


--------------------------------------------------------------------------------------------------------


 Maximum index for non-local projection operator         2220
 Maximum index for augmentation-charges         1397 (set IRDMAX)


--------------------------------------------------------------------------------------------------------


 First call to EWALD:  gamma=   0.264
 Maximum number of real-space cells 4x 4x 2
 Maximum number of reciprocal cells 2x 2x 5

    FEWALD:  cpu time    0.0018: real time    0.0018


--------------------------------------- Iteration      1(   1)  ---------------------------------------


    POTLOK:  cpu time    0.1423: real time    0.1433
    SETDIJ:  cpu time    0.0160: real time    0.0160
     EDDAV:  cpu time   21.1298: real time   21.1865
 BZINTS: Fermi energy: 33.224422;276.000000 electrons
         Band energy:2062.174113;  BLOECHL correction: -0.096109
       DOS:  cpu time    0.0437: real time    0.0438
    --------------------------------------------
      LOOP:  cpu time   21.3318: real time   21.3897

 eigenvalue-minimisations  : 11496
 total energy-change (2. order) : 0.5078836E+04  (-0.1841010E+05)
 number of electron     276.0000000 magnetization      70.8000000
 augmentation part      276.0000000 magnetization      70.8000000

 Free energy of the ion-electron system (eV)
  ---------------------------------------------------
  alpha Z        PSCENC =      1362.55286497
  Ewald energy   TEWEN  =    -25513.06237826
  -Hartree energ DENC   =    -10371.14386019
  -exchange      EXHF   =         0.00000000
  -V(xc)+E(xc)   XCENC  =      1375.27778109
  PAW double counting   =     30224.59406688   -31333.39571732
  entropy T*S    EENTRO =         0.00000000
  eigenvalues    EBANDS =      2062.17411314
  atomic energy  EATOM  =     37271.83870617
  Solvation  Ediel_sol  =         0.00000000
  ---------------------------------------------------
  free energy    TOTEN  =      5078.83557647 eV

  energy without entropy =     5078.83557647  energy(sigma->0) =     5078.83557647


--------------------------------------------------------------------------------------------------------




--------------------------------------- Iteration      1(   2)  ---------------------------------------


     EDDAV:  cpu time   21.1227: real time   21.1762
 BZINTS: Fermi energy: 12.264324;276.000000 electrons
         Band energy:***********;  BLOECHL correction: -0.030326
       DOS:  cpu time    0.0474: real time    0.0475
    --------------------------------------------
      LOOP:  cpu time   21.1701: real time   21.2237

 eigenvalue-minimisations  : 11424
 total energy-change (2. order) :-0.4426747E+04  (-0.4057338E+04)
 number of electron     276.0000000 magnetization      70.8000000
 augmentation part      276.0000000 magnetization      70.8000000

 Free energy of the ion-electron system (eV)
  ---------------------------------------------------
  alpha Z        PSCENC =      1362.55286497
  Ewald energy   TEWEN  =    -25513.06237826
  -Hartree energ DENC   =    -10371.14386019
  -exchange      EXHF   =         0.00000000
  -V(xc)+E(xc)   XCENC  =      1375.27778109
  PAW double counting   =     30224.59406688   -31333.39571732
  entropy T*S    EENTRO =         0.00000000
  eigenvalues    EBANDS =     -2364.57331355
  atomic energy  EATOM  =     37271.83870617
  Solvation  Ediel_sol  =         0.00000000
  ---------------------------------------------------
  free energy    TOTEN  =       652.08814978 eV

  energy without entropy =      652.08814978  energy(sigma->0) =      652.08814978


--------------------------------------------------------------------------------------------------------




--------------------------------------- Iteration      1(   3)  ---------------------------------------


     EDDAV:  cpu time   21.6582: real time   21.7099
 BZINTS: Fermi energy:  8.861879;276.000000 electrons
         Band energy:***********;  BLOECHL correction:  0.000000
       DOS:  cpu time    0.0071: real time    0.0071
    --------------------------------------------
      LOOP:  cpu time   21.6652: real time   21.7170

 eigenvalue-minimisations  : 11820
 total energy-change (2. order) :-0.8766940E+03  (-0.7575104E+03)
 number of electron     276.0000000 magnetization      70.8000000
 augmentation part      276.0000000 magnetization      70.8000000

 Free energy of the ion-electron system (eV)
  ---------------------------------------------------
  alpha Z        PSCENC =      1362.55286497
  Ewald energy   TEWEN  =    -25513.06237826
  -Hartree energ DENC   =    -10371.14386019
  -exchange      EXHF   =         0.00000000
  -V(xc)+E(xc)   XCENC  =      1375.27778109
  PAW double counting   =     30224.59406688   -31333.39571732
  entropy T*S    EENTRO =         0.00000000
  eigenvalues    EBANDS =     -3241.26731264
  atomic energy  EATOM  =     37271.83870617
  Solvation  Ediel_sol  =         0.00000000
  ---------------------------------------------------
  free energy    TOTEN  =      -224.60584931 eV

  energy without entropy =     -224.60584931  energy(sigma->0) =     -224.60584931


--------------------------------------------------------------------------------------------------------




--------------------------------------- Iteration      1(   4)  ---------------------------------------


     EDDAV:  cpu time   23.2238: real time   23.2796
 BZINTS: Fermi energy:  8.263198;276.000000 electrons
         Band energy:***********;  BLOECHL correction:  0.000000
       DOS:  cpu time    0.0072: real time    0.0072
    --------------------------------------------
      LOOP:  cpu time   23.2310: real time   23.2868

 eigenvalue-minimisations  : 12936
 total energy-change (2. order) :-0.6908088E+02  (-0.6820288E+02)
 number of electron     276.0000000 magnetization      70.8000000
 augmentation part      276.0000000 magnetization      70.8000000

 Free energy of the ion-electron system (eV)
  ---------------------------------------------------
  alpha Z        PSCENC =      1362.55286497
  Ewald energy   TEWEN  =    -25513.06237826
  -Hartree energ DENC   =    -10371.14386019
  -exchange      EXHF   =         0.00000000
  -V(xc)+E(xc)   XCENC  =      1375.27778109
  PAW double counting   =     30224.59406688   -31333.39571732
  entropy T*S    EENTRO =         0.00000000
  eigenvalues    EBANDS =     -3310.34819595
  atomic energy  EATOM  =     37271.83870617
  Solvation  Ediel_sol  =         0.00000000
  ---------------------------------------------------
  free energy    TOTEN  =      -293.68673262 eV

  energy without entropy =     -293.68673262  energy(sigma->0) =     -293.68673262


--------------------------------------------------------------------------------------------------------




--------------------------------------- Iteration      1(   5)  ---------------------------------------


     EDDAV:  cpu time   23.0671: real time   23.1242
 BZINTS: Fermi energy:  8.203009;276.000000 electrons
         Band energy:***********;  BLOECHL correction:  0.000000
       DOS:  cpu time    0.0060: real time    0.0060
    CHARGE:  cpu time    0.8965: real time    0.8986
    MIXING:  cpu time    0.0034: real time    0.0034
    --------------------------------------------
      LOOP:  cpu time   23.9730: real time   24.0323

 eigenvalue-minimisations  : 12804
 total energy-change (2. order) :-0.8301783E+00  (-0.8273074E+00)
 number of electron     275.9999984 magnetization      67.8179403
 augmentation part      108.0146307 magnetization      47.0436154

 Broyden mixing:
  rms(total) = 0.80934E+01    rms(broyden)= 0.80934E+01
  rms(prec ) = 0.88394E+01
  weight for this iteration     100.00

 Free energy of the ion-electron system (eV)
  ---------------------------------------------------
  alpha Z        PSCENC =      1362.55286497
  Ewald energy   TEWEN  =    -25513.06237826
  -Hartree energ DENC   =    -10371.14386019
  -exchange      EXHF   =         0.00000000
  -V(xc)+E(xc)   XCENC  =      1375.27778109
  PAW double counting   =     30224.59406688   -31333.39571732
  entropy T*S    EENTRO =         0.00000000
  eigenvalues    EBANDS =     -3311.17837425
  atomic energy  EATOM  =     37271.83870617
  Solvation  Ediel_sol  =         0.00000000
  ---------------------------------------------------
  free energy    TOTEN  =      -294.51691092 eV

  energy without entropy =     -294.51691092  energy(sigma->0) =     -294.51691092


--------------------------------------------------------------------------------------------------------




--------------------------------------- Iteration      1(   6)  ---------------------------------------


    POTLOK:  cpu time    0.1347: real time    0.1358
    SETDIJ:  cpu time    0.0154: real time    0.0154
     EDDAV:  cpu time   25.8667: real time   25.9287
 BZINTS: Fermi energy:  5.534770;276.000000 electrons
         Band energy:***********;  BLOECHL correction: -0.054705
       DOS:  cpu time    0.0445: real time    0.0446
    CHARGE:  cpu time    0.9264: real time    0.9286
    MIXING:  cpu time    0.0034: real time    0.0034
    --------------------------------------------
      LOOP:  cpu time   26.9911: real time   27.0566

 eigenvalue-minimisations  : 14880
 total energy-change (2. order) : 0.5923503E+02  (-0.2530651E+02)
 number of electron     275.9999976 magnetization      62.9812330
 augmentation part      120.7034690 magnetization      54.4124558

 Broyden mixing:
  rms(total) = 0.91205E+01    rms(broyden)= 0.91205E+01
  rms(prec ) = 0.97690E+01
  weight for this iteration     100.00

 eigenvalues of (default mixing * dielectric matrix)
  average eigenvalue GAMMA=   0.3186
  0.3186

 Free energy of the ion-electron system (eV)
  ---------------------------------------------------
  alpha Z        PSCENC =      1362.55286497
  Ewald energy   TEWEN  =    -25513.06237826
  -Hartree energ DENC   =     -9965.68928974
  -exchange      EXHF   =         0.00000000
  -V(xc)+E(xc)   XCENC  =      1376.63710594
  PAW double counting   =     31436.74373309   -32503.64490212
  entropy T*S    EENTRO =         0.00000000
  eigenvalues    EBANDS =     -3700.65771625
  atomic energy  EATOM  =     37271.83870617
  Solvation  Ediel_sol  =         0.00000000
  ---------------------------------------------------
  free energy    TOTEN  =      -235.28187620 eV

  energy without entropy =     -235.28187620  energy(sigma->0) =     -235.28187620


--------------------------------------------------------------------------------------------------------




--------------------------------------- Iteration      1(   7)  ---------------------------------------


    POTLOK:  cpu time    0.1349: real time    0.1353
    SETDIJ:  cpu time    0.0156: real time    0.0156
     EDDAV:  cpu time   22.1991: real time   22.2513
 BZINTS: Fermi energy:  7.078939;276.000000 electrons
         Band energy:***********;  BLOECHL correction: -0.036402
       DOS:  cpu time    0.0495: real time    0.0496
    CHARGE:  cpu time    0.9115: real time    0.9136
    MIXING:  cpu time    0.0035: real time    0.0035
    --------------------------------------------
      LOOP:  cpu time   23.3140: real time   23.3690

 eigenvalue-minimisations  : 12252
 total energy-change (2. order) : 0.2325102E+02  (-0.1141095E+02)
 number of electron     275.9999982 magnetization      58.7877195
 augmentation part      109.3467522 magnetization      40.3304122

 Broyden mixing:
  rms(total) = 0.43703E+01    rms(broyden)= 0.43703E+01
  rms(prec ) = 0.45300E+01
  weight for this iteration     100.00

 eigenvalues of (default mixing * dielectric matrix)
  average eigenvalue GAMMA=   0.6787
  1.0270  0.3304

 Free energy of the ion-electron system (eV)
  ---------------------------------------------------
  alpha Z        PSCENC =      1362.55286497
  Ewald energy   TEWEN  =    -25513.06237826
  -Hartree energ DENC   =    -10207.44323141
  -exchange      EXHF   =         0.00000000
  -V(xc)+E(xc)   XCENC  =      1372.38753053
  PAW double counting   =     32869.36212375   -33997.79715626
  entropy T*S    EENTRO =         0.00000000
  eigenvalues    EBANDS =     -3369.86931605
  atomic energy  EATOM  =     37271.83870617
  Solvation  Ediel_sol  =         0.00000000
  ---------------------------------------------------
  free energy    TOTEN  =      -212.03085656 eV

  energy without entropy =     -212.03085656  energy(sigma->0) =     -212.03085656


--------------------------------------------------------------------------------------------------------




--------------------------------------- Iteration      1(   8)  ---------------------------------------


    POTLOK:  cpu time    0.1355: real time    0.1375
    SETDIJ:  cpu time    0.0157: real time    0.0157
     EDDAV:  cpu time   22.0484: real time   22.1004
 BZINTS: Fermi energy:  6.445291;276.000000 electrons
         Band energy:***********;  BLOECHL correction: -0.034153
       DOS:  cpu time    0.0447: real time    0.0448
    CHARGE:  cpu time    0.9130: real time    0.9152
    MIXING:  cpu time    0.0037: real time    0.0037
    --------------------------------------------
      LOOP:  cpu time   23.1610: real time   23.2173

 eigenvalue-minimisations  : 12132
 total energy-change (2. order) :-0.6296315E+01  (-0.2144624E+01)
 number of electron     275.9999982 magnetization      51.9557018
 augmentation part      111.2672177 magnetization      35.0366970

 Broyden mixing:
  rms(total) = 0.26528E+01    rms(broyden)= 0.26528E+01
  rms(prec ) = 0.27130E+01
  weight for this iteration     100.00

 eigenvalues of (default mixing * dielectric matrix)
  average eigenvalue GAMMA=   1.0718
  2.2522  0.5797  0.3835

 Free energy of the ion-electron system (eV)
  ---------------------------------------------------
  alpha Z        PSCENC =      1362.55286497
  Ewald energy   TEWEN  =    -25513.06237826
  -Hartree energ DENC   =    -10072.29319691
  -exchange      EXHF   =         0.00000000
  -V(xc)+E(xc)   XCENC  =      1366.37733403
  PAW double counting   =     34227.77617477   -35367.94437594
  entropy T*S    EENTRO =         0.00000000
  eigenvalues    EBANDS =     -3493.57230058
  atomic energy  EATOM  =     37271.83870617
  Solvation  Ediel_sol  =         0.00000000
  ---------------------------------------------------
  free energy    TOTEN  =      -218.32717176 eV

  energy without entropy =     -218.32717176  energy(sigma->0) =     -218.32717176


--------------------------------------------------------------------------------------------------------




--------------------------------------- Iteration      1(   9)  ---------------------------------------


    POTLOK:  cpu time    0.1346: real time    0.1351
    SETDIJ:  cpu time    0.0159: real time    0.0160
     EDDAV:  cpu time   22.7147: real time   22.7682
 BZINTS: Fermi energy:  5.881357;276.000000 electrons
         Band energy:***********;  BLOECHL correction: -0.038319
       DOS:  cpu time    0.0497: real time    0.0499
    CHARGE:  cpu time    0.9177: real time    0.9199
    MIXING:  cpu time    0.0037: real time    0.0037
    --------------------------------------------
      LOOP:  cpu time   23.8364: real time   23.8927

 eigenvalue-minimisations  : 12612
 total energy-change (2. order) :-0.4177287E+01  (-0.8196391E+00)
 number of electron     275.9999980 magnetization      50.9263404
 augmentation part      114.1264038 magnetization      37.7927045

 Broyden mixing:
  rms(total) = 0.27040E+01    rms(broyden)= 0.27040E+01
  rms(prec ) = 0.28333E+01
  weight for this iteration     100.00

 eigenvalues of (default mixing * dielectric matrix)
  average eigenvalue GAMMA=   1.1013
  2.8496  0.8033  0.3762  0.3762

 Free energy of the ion-electron system (eV)
  ---------------------------------------------------
  alpha Z        PSCENC =      1362.55286497
  Ewald energy   TEWEN  =    -25513.06237826
  -Hartree energ DENC   =     -9933.62461426
  -exchange      EXHF   =         0.00000000
  -V(xc)+E(xc)   XCENC  =      1362.36876623
  PAW double counting   =     36511.21359920   -37680.17985203
  entropy T*S    EENTRO =         0.00000000
  eigenvalues    EBANDS =     -3603.61155056
  atomic energy  EATOM  =     37271.83870617
  Solvation  Ediel_sol  =         0.00000000
  ---------------------------------------------------
  free energy    TOTEN  =      -222.50445855 eV

  energy without entropy =     -222.50445855  energy(sigma->0) =     -222.50445855


--------------------------------------------------------------------------------------------------------




--------------------------------------- Iteration      1(  10)  ---------------------------------------


    POTLOK:  cpu time    0.1350: real time    0.1360
    SETDIJ:  cpu time    0.0157: real time    0.0158
     EDDAV:  cpu time   22.6956: real time   22.7555
 BZINTS: Fermi energy:  5.958792;276.000000 electrons
         Band energy:***********;  BLOECHL correction: -0.037094
       DOS:  cpu time    0.0498: real time    0.0499
    CHARGE:  cpu time    0.9156: real time    0.9178
    MIXING:  cpu time    0.0040: real time    0.0040
    --------------------------------------------
      LOOP:  cpu time   23.8157: real time   23.8790

 eigenvalue-minimisations  : 12588
 total energy-change (2. order) : 0.3332254E+00  (-0.2452642E+00)
 number of electron     275.9999980 magnetization      50.6225135
 augmentation part      113.4166668 magnetization      37.3084323

 Broyden mixing:
  rms(total) = 0.18571E+01    rms(broyden)= 0.18571E+01
  rms(prec ) = 0.19675E+01
  weight for this iteration     100.00

 eigenvalues of (default mixing * dielectric matrix)
  average eigenvalue GAMMA=   1.0179
  2.6172  0.3741  0.7703  0.6640  0.6640

 Free energy of the ion-electron system (eV)
  ---------------------------------------------------
  alpha Z        PSCENC =      1362.55286497
  Ewald energy   TEWEN  =    -25513.06237826
  -Hartree energ DENC   =     -9949.16271290
  -exchange      EXHF   =         0.00000000
  -V(xc)+E(xc)   XCENC  =      1360.91939552
  PAW double counting   =     36549.21731639   -37721.56383601
  entropy T*S    EENTRO =         0.00000000
  eigenvalues    EBANDS =     -3582.91058908
  atomic energy  EATOM  =     37271.83870617
  Solvation  Ediel_sol  =         0.00000000
  ---------------------------------------------------
  free energy    TOTEN  =      -222.17123319 eV

  energy without entropy =     -222.17123319  energy(sigma->0) =     -222.17123319


--------------------------------------------------------------------------------------------------------




--------------------------------------- Iteration      1(  11)  ---------------------------------------


    POTLOK:  cpu time    0.1357: real time    0.1362
    SETDIJ:  cpu time    0.0156: real time    0.0156
     EDDAV:  cpu time   25.0100: real time   25.0773
 BZINTS: Fermi energy:  6.019824;276.000000 electrons
         Band energy:***********;  BLOECHL correction: -0.033980
       DOS:  cpu time    0.0497: real time    0.0498
    CHARGE:  cpu time    0.9127: real time    0.9149
    MIXING:  cpu time    0.0043: real time    0.0043
    --------------------------------------------
      LOOP:  cpu time   26.1280: real time   26.1980

 eigenvalue-minimisations  : 14268
 total energy-change (2. order) : 0.5617660E+00  (-0.2263974E-01)
 number of electron     275.9999980 magnetization      49.3123626
 augmentation part      112.9987072 magnetization      35.6149381

 Broyden mixing:
  rms(total) = 0.12176E+01    rms(broyden)= 0.12176E+01
  rms(prec ) = 0.12909E+01
  weight for this iteration     100.00

 eigenvalues of (default mixing * dielectric matrix)
  average eigenvalue GAMMA=   1.0452
  2.5820  0.9713  0.9713  0.3792  0.8000  0.5672

 Free energy of the ion-electron system (eV)
  ---------------------------------------------------
  alpha Z        PSCENC =      1362.55286497
  Ewald energy   TEWEN  =    -25513.06237826
  -Hartree energ DENC   =     -9960.24801968
  -exchange      EXHF   =         0.00000000
  -V(xc)+E(xc)   XCENC  =      1360.24924579
  PAW double counting   =     36380.36962426   -37550.72324160
  entropy T*S    EENTRO =         0.00000000
  eigenvalues    EBANDS =     -3572.58626882
  atomic energy  EATOM  =     37271.83870617
  Solvation  Ediel_sol  =         0.00000000
  ---------------------------------------------------
  free energy    TOTEN  =      -221.60946717 eV

  energy without entropy =     -221.60946717  energy(sigma->0) =     -221.60946717


--------------------------------------------------------------------------------------------------------




--------------------------------------- Iteration      1(  12)  ---------------------------------------


    POTLOK:  cpu time    0.1326: real time    0.1330
    SETDIJ:  cpu time    0.0161: real time    0.0162
     EDDAV:  cpu time   26.4717: real time   26.5340
 BZINTS: Fermi energy:  6.079506;276.000000 electrons
         Band energy:***********;  BLOECHL correction: -0.033296
       DOS:  cpu time    0.0500: real time    0.0501
    CHARGE:  cpu time    0.9124: real time    0.9145
    MIXING:  cpu time    0.0044: real time    0.0045
    --------------------------------------------
      LOOP:  cpu time   27.5873: real time   27.6523

 eigenvalue-minimisations  : 15228
 total energy-change (2. order) : 0.2027998E+00  (-0.1961295E-01)
 number of electron     275.9999981 magnetization      46.8817010
 augmentation part      112.6781385 magnetization      33.0813907

 Broyden mixing:
  rms(total) = 0.84209E+00    rms(broyden)= 0.84209E+00
  rms(prec ) = 0.88297E+00
  weight for this iteration     100.00

 eigenvalues of (default mixing * dielectric matrix)
  average eigenvalue GAMMA=   1.0969
  2.1486  1.6351  1.4929  0.3778  0.7522  0.6358  0.6358

 Free energy of the ion-electron system (eV)
  ---------------------------------------------------
  alpha Z        PSCENC =      1362.55286497
  Ewald energy   TEWEN  =    -25513.06237826
  -Hartree energ DENC   =     -9973.22381902
  -exchange      EXHF   =         0.00000000
  -V(xc)+E(xc)   XCENC  =      1359.60175165
  PAW double counting   =     36265.20017341   -37434.50115438
  entropy T*S    EENTRO =         0.00000000
  eigenvalues    EBANDS =     -3559.81281192
  atomic energy  EATOM  =     37271.83870617
  Solvation  Ediel_sol  =         0.00000000
  ---------------------------------------------------
  free energy    TOTEN  =      -221.40666738 eV

  energy without entropy =     -221.40666738  energy(sigma->0) =     -221.40666738


--------------------------------------------------------------------------------------------------------




--------------------------------------- Iteration      1(  13)  ---------------------------------------


    POTLOK:  cpu time    0.1303: real time    0.1311
    SETDIJ:  cpu time    0.0151: real time    0.0151
     EDDAV:  cpu time   24.5126: real time   24.5717
 BZINTS: Fermi energy:  6.138680;276.000000 electrons
         Band energy:***********;  BLOECHL correction: -0.034418
       DOS:  cpu time    0.0499: real time    0.0500
    CHARGE:  cpu time    0.9150: real time    0.9171
    MIXING:  cpu time    0.0044: real time    0.0045
    --------------------------------------------
      LOOP:  cpu time   25.6272: real time   25.6895

 eigenvalue-minimisations  : 13908
 total energy-change (2. order) : 0.6049072E-03  (-0.1120863E-01)
 number of electron     275.9999981 magnetization      43.9896856
 augmentation part      112.4088958 magnetization      30.4364279

 Broyden mixing:
  rms(total) = 0.46744E+00    rms(broyden)= 0.46744E+00
  rms(prec ) = 0.49070E+00
  weight for this iteration     100.00

 eigenvalues of (default mixing * dielectric matrix)
  average eigenvalue GAMMA=   1.3933
  3.4305  3.4305  0.3781  0.9286  0.9286  0.7250  0.7250  0.5998

 Free energy of the ion-electron system (eV)
  ---------------------------------------------------
  alpha Z        PSCENC =      1362.55286497
  Ewald energy   TEWEN  =    -25513.06237826
  -Hartree energ DENC   =     -9991.14595835
  -exchange      EXHF   =         0.00000000
  -V(xc)+E(xc)   XCENC  =      1358.78354665
  PAW double counting   =     36037.61774503   -37203.89939462
  entropy T*S    EENTRO =         0.00000000
  eigenvalues    EBANDS =     -3544.09119406
  atomic energy  EATOM  =     37271.83870617
  Solvation  Ediel_sol  =         0.00000000
  ---------------------------------------------------
  free energy    TOTEN  =      -221.40606247 eV

  energy without entropy =     -221.40606247  energy(sigma->0) =     -221.40606247


--------------------------------------------------------------------------------------------------------




--------------------------------------- Iteration      1(  14)  ---------------------------------------


    POTLOK:  cpu time    0.1344: real time    0.1353
    SETDIJ:  cpu time    0.0159: real time    0.0159
     EDDAV:  cpu time   26.0568: real time   26.1209
 BZINTS: Fermi energy:  6.171082;276.000000 electrons
         Band energy:***********;  BLOECHL correction: -0.032766
       DOS:  cpu time    0.0481: real time    0.0482
    CHARGE:  cpu time    0.9183: real time    0.9205
    MIXING:  cpu time    0.0051: real time    0.0051
    --------------------------------------------
      LOOP:  cpu time   27.1786: real time   27.2459

 eigenvalue-minimisations  : 14988
 total energy-change (2. order) :-0.4452031E-01  (-0.1524064E-01)
 number of electron     275.9999981 magnetization      43.0730901
 augmentation part      112.2250424 magnetization      29.9043312

 Broyden mixing:
  rms(total) = 0.18133E+00    rms(broyden)= 0.18133E+00
  rms(prec ) = 0.18897E+00
  weight for this iteration     100.00

 eigenvalues of (default mixing * dielectric matrix)
  average eigenvalue GAMMA=   1.5051
  5.3573  2.7804  1.2158  0.3781  0.8405  0.8405  0.8845  0.6246  0.6246

 Free energy of the ion-electron system (eV)
  ---------------------------------------------------
  alpha Z        PSCENC =      1362.55286497
  Ewald energy   TEWEN  =    -25513.06237826
  -Hartree energ DENC   =    -10003.82005506
  -exchange      EXHF   =         0.00000000
  -V(xc)+E(xc)   XCENC  =      1357.69399537
  PAW double counting   =     35837.16235991   -37000.41808847
  entropy T*S    EENTRO =         0.00000000
  eigenvalues    EBANDS =     -3533.39798741
  atomic energy  EATOM  =     37271.83870617
  Solvation  Ediel_sol  =         0.00000000
  ---------------------------------------------------
  free energy    TOTEN  =      -221.45058279 eV

  energy without entropy =     -221.45058279  energy(sigma->0) =     -221.45058279


--------------------------------------------------------------------------------------------------------




--------------------------------------- Iteration      1(  15)  ---------------------------------------


    POTLOK:  cpu time    0.1342: real time    0.1347
    SETDIJ:  cpu time    0.0159: real time    0.0159
     EDDAV:  cpu time   22.8213: real time   22.8753
 BZINTS: Fermi energy:  6.157199;276.000000 electrons
         Band energy:***********;  BLOECHL correction: -0.032954
       DOS:  cpu time    0.0462: real time    0.0463
    CHARGE:  cpu time    0.9020: real time    0.9041
    MIXING:  cpu time    0.0051: real time    0.0051
    --------------------------------------------
      LOOP:  cpu time   23.9248: real time   23.9815

 eigenvalue-minimisations  : 12672
 total energy-change (2. order) :-0.1800633E-01  (-0.6281666E-02)
 number of electron     275.9999981 magnetization      42.6362828
 augmentation part      112.2757490 magnetization      29.6418325

 Broyden mixing:
  rms(total) = 0.14343E+00    rms(broyden)= 0.14343E+00
  rms(prec ) = 0.15189E+00
  weight for this iteration     100.00

 eigenvalues of (default mixing * dielectric matrix)
  average eigenvalue GAMMA=   1.5470
  6.1315  2.8506  1.3594  1.0679  0.3781  0.8501  0.8501  0.6936  0.6936  0.5956

 Free energy of the ion-electron system (eV)
  ---------------------------------------------------
  alpha Z        PSCENC =      1362.55286497
  Ewald energy   TEWEN  =    -25513.06237826
  -Hartree energ DENC   =    -10002.55178082
  -exchange      EXHF   =         0.00000000
  -V(xc)+E(xc)   XCENC  =      1357.20007822
  PAW double counting   =     35823.44508751   -36986.32523145
  entropy T*S    EENTRO =         0.00000000
  eigenvalues    EBANDS =     -3534.56593546
  atomic energy  EATOM  =     37271.83870617
  Solvation  Ediel_sol  =         0.00000000
  ---------------------------------------------------
  free energy    TOTEN  =      -221.46858912 eV

  energy without entropy =     -221.46858912  energy(sigma->0) =     -221.46858912


--------------------------------------------------------------------------------------------------------




--------------------------------------- Iteration      1(  16)  ---------------------------------------


    POTLOK:  cpu time    0.1336: real time    0.1340
    SETDIJ:  cpu time    0.0155: real time    0.0155
     EDDAV:  cpu time   24.9849: real time   25.0437
 BZINTS: Fermi energy:  6.178326;276.000000 electrons
         Band energy:***********;  BLOECHL correction: -0.032840
       DOS:  cpu time    0.0473: real time    0.0474
    CHARGE:  cpu time    0.9040: real time    0.9061
    MIXING:  cpu time    0.0055: real time    0.0055
    --------------------------------------------
      LOOP:  cpu time   26.0908: real time   26.1523

 eigenvalue-minimisations  : 14388
 total energy-change (2. order) : 0.5029290E-02  (-0.8925355E-03)
 number of electron     275.9999981 magnetization      42.4948955
 augmentation part      112.1859326 magnetization      29.5013432

 Broyden mixing:
  rms(total) = 0.38153E-01    rms(broyden)= 0.38153E-01
  rms(prec ) = 0.39921E-01
  weight for this iteration     100.00

 eigenvalues of (default mixing * dielectric matrix)
  average eigenvalue GAMMA=   1.5375
  6.3162  2.7834  1.3182  1.3182  1.1155  0.3781  0.8100  0.8100  0.7270  0.7270
  0.6090

 Free energy of the ion-electron system (eV)
  ---------------------------------------------------
  alpha Z        PSCENC =      1362.55286497
  Ewald energy   TEWEN  =    -25513.06237826
  -Hartree energ DENC   =    -10007.17399544
  -exchange      EXHF   =         0.00000000
  -V(xc)+E(xc)   XCENC  =      1357.08898364
  PAW double counting   =     35781.55984439   -36944.33796718
  entropy T*S    EENTRO =         0.00000000
  eigenvalues    EBANDS =     -3529.92961813
  atomic energy  EATOM  =     37271.83870617
  Solvation  Ediel_sol  =         0.00000000
  ---------------------------------------------------
  free energy    TOTEN  =      -221.46355983 eV

  energy without entropy =     -221.46355983  energy(sigma->0) =     -221.46355983


--------------------------------------------------------------------------------------------------------




--------------------------------------- Iteration      1(  17)  ---------------------------------------


    POTLOK:  cpu time    0.1340: real time    0.1345
    SETDIJ:  cpu time    0.0156: real time    0.0156
     EDDAV:  cpu time   22.3020: real time   22.3558
 BZINTS: Fermi energy:  6.179591;276.000000 electrons
         Band energy:***********;  BLOECHL correction: -0.032785
       DOS:  cpu time    0.0485: real time    0.0486
    CHARGE:  cpu time    0.9048: real time    0.9072
    MIXING:  cpu time    0.0054: real time    0.0055
    --------------------------------------------
      LOOP:  cpu time   23.4102: real time   23.4672

 eigenvalue-minimisations  : 12468
 total energy-change (2. order) :-0.6023115E-03  (-0.4794194E-03)
 number of electron     275.9999981 magnetization      42.3957564
 augmentation part      112.1804606 magnetization      29.4153593

 Broyden mixing:
  rms(total) = 0.19434E-01    rms(broyden)= 0.19434E-01
  rms(prec ) = 0.20035E-01
  weight for this iteration     100.00

 eigenvalues of (default mixing * dielectric matrix)
  average eigenvalue GAMMA=   1.5618
  6.5227  2.7652  2.4514  1.0710  1.0710  0.3781  0.8915  0.8915  0.7207  0.7207
  0.6043  0.6531

 Free energy of the ion-electron system (eV)
  ---------------------------------------------------
  alpha Z        PSCENC =      1362.55286497
  Ewald energy   TEWEN  =    -25513.06237826
  -Hartree energ DENC   =    -10006.90848909
  -exchange      EXHF   =         0.00000000
  -V(xc)+E(xc)   XCENC  =      1357.02055835
  PAW double counting   =     35801.32391690   -36964.66185882
  entropy T*S    EENTRO =         0.00000000
  eigenvalues    EBANDS =     -3529.56748236
  atomic energy  EATOM  =     37271.83870617
  Solvation  Ediel_sol  =         0.00000000
  ---------------------------------------------------
  free energy    TOTEN  =      -221.46416214 eV

  energy without entropy =     -221.46416214  energy(sigma->0) =     -221.46416214


--------------------------------------------------------------------------------------------------------




--------------------------------------- Iteration      1(  18)  ---------------------------------------


    POTLOK:  cpu time    0.1337: real time    0.1342
    SETDIJ:  cpu time    0.0155: real time    0.0156
     EDDAV:  cpu time   24.4851: real time   24.5457
 BZINTS: Fermi energy:  6.180067;276.000000 electrons
         Band energy:***********;  BLOECHL correction: -0.032908
       DOS:  cpu time    0.0485: real time    0.0486
    CHARGE:  cpu time    0.9040: real time    0.9066
    MIXING:  cpu time    0.0057: real time    0.0057
    --------------------------------------------
      LOOP:  cpu time   25.5925: real time   25.6564

 eigenvalue-minimisations  : 14052
 total energy-change (2. order) :-0.2361943E-03  (-0.2545060E-04)
 number of electron     275.9999981 magnetization      42.3441146
 augmentation part      112.1755204 magnetization      29.3816400

 Broyden mixing:
  rms(total) = 0.86076E-02    rms(broyden)= 0.86075E-02
  rms(prec ) = 0.89553E-02
  weight for this iteration     100.00

 eigenvalues of (default mixing * dielectric matrix)
  average eigenvalue GAMMA=   1.5336
  6.6564  2.8432  2.4465  1.1484  1.1484  0.9585  0.9585  0.3781  0.7425  0.7425
  0.6868  0.6136  0.6136

 Free energy of the ion-electron system (eV)
  ---------------------------------------------------
  alpha Z        PSCENC =      1362.55286497
  Ewald energy   TEWEN  =    -25513.06237826
  -Hartree energ DENC   =    -10007.20740727
  -exchange      EXHF   =         0.00000000
  -V(xc)+E(xc)   XCENC  =      1356.97126377
  PAW double counting   =     35799.17796214   -36962.55923954
  entropy T*S    EENTRO =         0.00000000
  eigenvalues    EBANDS =     -3529.17617032
  atomic energy  EATOM  =     37271.83870617
  Solvation  Ediel_sol  =         0.00000000
  ---------------------------------------------------
  free energy    TOTEN  =      -221.46439834 eV

  energy without entropy =     -221.46439834  energy(sigma->0) =     -221.46439834


--------------------------------------------------------------------------------------------------------




--------------------------------------- Iteration      1(  19)  ---------------------------------------


    POTLOK:  cpu time    0.1342: real time    0.1347
    SETDIJ:  cpu time    0.0154: real time    0.0154
     EDDAV:  cpu time   23.9533: real time   24.0134
 BZINTS: Fermi energy:  6.181045;276.000000 electrons
         Band energy:***********;  BLOECHL correction: -0.032967
       DOS:  cpu time    0.0462: real time    0.0463
    CHARGE:  cpu time    0.9029: real time    0.9051
    MIXING:  cpu time    0.0066: real time    0.0066
    --------------------------------------------
      LOOP:  cpu time   25.0585: real time   25.1214

 eigenvalue-minimisations  : 13656
 total energy-change (2. order) :-0.5694087E-04  (-0.1019530E-04)
 number of electron     275.9999981 magnetization      42.3360342
 augmentation part      112.1713119 magnetization      29.3819970

 Broyden mixing:
  rms(total) = 0.17176E-02    rms(broyden)= 0.17175E-02
  rms(prec ) = 0.18304E-02
  weight for this iteration     100.00

 eigenvalues of (default mixing * dielectric matrix)
  average eigenvalue GAMMA=   1.5150
  6.7181  2.8541  2.4271  1.2968  1.2968  0.9874  0.9874  0.3781  0.7760  0.7760
  0.7417  0.7417  0.6149  0.6149

 Free energy of the ion-electron system (eV)
  ---------------------------------------------------
  alpha Z        PSCENC =      1362.55286497
  Ewald energy   TEWEN  =    -25513.06237826
  -Hartree energ DENC   =    -10007.55707175
  -exchange      EXHF   =         0.00000000
  -V(xc)+E(xc)   XCENC  =      1356.95107944
  PAW double counting   =     35794.65111575   -36957.97714334
  entropy T*S    EENTRO =         0.00000000
  eigenvalues    EBANDS =     -3528.86162824
  atomic energy  EATOM  =     37271.83870617
  Solvation  Ediel_sol  =         0.00000000
  ---------------------------------------------------
  free energy    TOTEN  =      -221.46445528 eV

  energy without entropy =     -221.46445528  energy(sigma->0) =     -221.46445528


--------------------------------------------------------------------------------------------------------




--------------------------------------- Iteration      1(  20)  ---------------------------------------


    POTLOK:  cpu time    0.1340: real time    0.1346
    SETDIJ:  cpu time    0.0156: real time    0.0156
     EDDAV:  cpu time   22.3178: real time   22.3706
 BZINTS: Fermi energy:  6.181405;276.000000 electrons
         Band energy:***********;  BLOECHL correction: -0.032974
       DOS:  cpu time    0.0473: real time    0.0474
    CHARGE:  cpu time    0.9041: real time    0.9062
    MIXING:  cpu time    0.0063: real time    0.0064
    --------------------------------------------
      LOOP:  cpu time   23.4251: real time   23.4808

 eigenvalue-minimisations  : 12480
 total energy-change (2. order) :-0.8489493E-05  (-0.2183327E-05)
 number of electron     275.9999981 magnetization      42.3324484
 augmentation part      112.1706491 magnetization      29.3798852

 Broyden mixing:
  rms(total) = 0.88977E-03    rms(broyden)= 0.88975E-03
  rms(prec ) = 0.91053E-03
  weight for this iteration     100.00

 eigenvalues of (default mixing * dielectric matrix)
  average eigenvalue GAMMA=   1.5137
  6.7510  2.9670  2.4054  1.8790  1.0866  1.0866  1.0062  1.0062  0.3781  0.7392
  0.7392  0.6049  0.7054  0.6750  0.6750

 Free energy of the ion-electron system (eV)
  ---------------------------------------------------
  alpha Z        PSCENC =      1362.55286497
  Ewald energy   TEWEN  =    -25513.06237826
  -Hartree energ DENC   =    -10007.63937424
  -exchange      EXHF   =         0.00000000
  -V(xc)+E(xc)   XCENC  =      1356.94811587
  PAW double counting   =     35794.56331249   -36957.89639368
  entropy T*S    EENTRO =         0.00000000
  eigenvalues    EBANDS =     -3528.76931709
  atomic energy  EATOM  =     37271.83870617
  Solvation  Ediel_sol  =         0.00000000
  ---------------------------------------------------
  free energy    TOTEN  =      -221.46446377 eV

  energy without entropy =     -221.46446377  energy(sigma->0) =     -221.46446377


--------------------------------------------------------------------------------------------------------




--------------------------------------- Iteration      1(  21)  ---------------------------------------


    POTLOK:  cpu time    0.1320: real time    0.1325
    SETDIJ:  cpu time    0.0156: real time    0.0156
     EDDAV:  cpu time   22.5512: real time   22.6052
 BZINTS: Fermi energy:  6.181775;276.000000 electrons
         Band energy:***********;  BLOECHL correction: -0.032972
       DOS:  cpu time    0.0450: real time    0.0451
    CHARGE:  cpu time    0.9056: real time    0.9078
    MIXING:  cpu time    0.0070: real time    0.0071
    --------------------------------------------
      LOOP:  cpu time   23.6566: real time   23.7132

 eigenvalue-minimisations  : 12648
 total energy-change (2. order) : 0.2008899E-05  (-0.2345784E-06)
 number of electron     275.9999981 magnetization      42.3344402
 augmentation part      112.1694163 magnetization      29.3816350

 Broyden mixing:
  rms(total) = 0.11278E-02    rms(broyden)= 0.11278E-02
  rms(prec ) = 0.11954E-02
  weight for this iteration     100.00

 eigenvalues of (default mixing * dielectric matrix)
  average eigenvalue GAMMA=   1.5050
  6.7515  3.0077  2.4495  2.1945  1.1931  1.1931  0.9933  0.9933  0.3781  0.7793
  0.7793  0.7327  0.7327  0.6698  0.6163  0.6163

 Free energy of the ion-electron system (eV)
  ---------------------------------------------------
  alpha Z        PSCENC =      1362.55286497
  Ewald energy   TEWEN  =    -25513.06237826
  -Hartree energ DENC   =    -10007.71378172
  -exchange      EXHF   =         0.00000000
  -V(xc)+E(xc)   XCENC  =      1356.94891269
  PAW double counting   =     35794.22694108   -36957.56997640
  entropy T*S    EENTRO =         0.00000000
  eigenvalues    EBANDS =     -3528.68575028
  atomic energy  EATOM  =     37271.83870617
  Solvation  Ediel_sol  =         0.00000000
  ---------------------------------------------------
  free energy    TOTEN  =      -221.46446176 eV

  energy without entropy =     -221.46446176  energy(sigma->0) =     -221.46446176


--------------------------------------------------------------------------------------------------------




--------------------------------------- Iteration      1(  22)  ---------------------------------------


    POTLOK:  cpu time    0.1345: real time    0.1349
    SETDIJ:  cpu time    0.0156: real time    0.0156
     EDDAV:  cpu time   19.9490: real time   19.9960
 BZINTS: Fermi energy:  6.181621;276.000000 electrons
         Band energy:***********;  BLOECHL correction: -0.032973
       DOS:  cpu time    0.0486: real time    0.0487
    CHARGE:  cpu time    0.9072: real time    0.9093
    MIXING:  cpu time    0.0072: real time    0.0072
    --------------------------------------------
      LOOP:  cpu time   21.0620: real time   21.1117

 eigenvalue-minimisations  : 10752
 total energy-change (2. order) :-0.1100314E-05  (-0.1018597E-06)
 number of electron     275.9999981 magnetization      42.3365690
 augmentation part      112.1700676 magnetization      29.3838342

 Broyden mixing:
  rms(total) = 0.50871E-03    rms(broyden)= 0.50871E-03
  rms(prec ) = 0.53812E-03
  weight for this iteration     100.00

 eigenvalues of (default mixing * dielectric matrix)
  average eigenvalue GAMMA=   1.4878
  6.7353  2.9799  2.6473  2.1430  1.3825  0.3781  1.0167  1.0167  1.0265  1.0265
  0.7910  0.7910  0.7474  0.7474  0.6086  0.6279  0.6279

 Free energy of the ion-electron system (eV)
  ---------------------------------------------------
  alpha Z        PSCENC =      1362.55286497
  Ewald energy   TEWEN  =    -25513.06237826
  -Hartree energ DENC   =    -10007.67901664
  -exchange      EXHF   =         0.00000000
  -V(xc)+E(xc)   XCENC  =      1356.94913759
  PAW double counting   =     35794.49656713   -36957.84222101
  entropy T*S    EENTRO =         0.00000000
  eigenvalues    EBANDS =     -3528.71812281
  atomic energy  EATOM  =     37271.83870617
  Solvation  Ediel_sol  =         0.00000000
  ---------------------------------------------------
  free energy    TOTEN  =      -221.46446286 eV

  energy without entropy =     -221.46446286  energy(sigma->0) =     -221.46446286


--------------------------------------------------------------------------------------------------------




--------------------------------------- Iteration      1(  23)  ---------------------------------------


    POTLOK:  cpu time    0.1336: real time    0.1349
    SETDIJ:  cpu time    0.0156: real time    0.0156
     EDDAV:  cpu time   18.6106: real time   18.6543
 BZINTS: Fermi energy:  6.181528;276.000000 electrons
         Band energy:***********;  BLOECHL correction: -0.032973
       DOS:  cpu time    0.0486: real time    0.0487
    --------------------------------------------
      LOOP:  cpu time   18.8083: real time   18.8535

 eigenvalue-minimisations  :  9756
 total energy-change (2. order) :-0.6532355E-07  (-0.2946919E-07)
 number of electron     275.9999981 magnetization      42.3365690
 augmentation part      112.1700676 magnetization      29.3838342

 Free energy of the ion-electron system (eV)
  ---------------------------------------------------
  alpha Z        PSCENC =      1362.55286497
  Ewald energy   TEWEN  =    -25513.06237826
  -Hartree energ DENC   =    -10007.65571830
  -exchange      EXHF   =         0.00000000
  -V(xc)+E(xc)   XCENC  =      1356.94975943
  PAW double counting   =     35794.69373508   -36958.04178521
  entropy T*S    EENTRO =         0.00000000
  eigenvalues    EBANDS =     -3528.73964681
  atomic energy  EATOM  =     37271.83870617
  Solvation  Ediel_sol  =         0.00000000
  ---------------------------------------------------
  free energy    TOTEN  =      -221.46446292 eV

  energy without entropy =     -221.46446292  energy(sigma->0) =     -221.46446292


--------------------------------------------------------------------------------------------------------




 average (electrostatic) potential at core
  the test charge radii are     0.9500  0.7215
  (the norm of the test charge is              1.0000)
       1 -78.6233       2 -78.6233       3 -78.6238       4 -78.6232       5 -78.6232
       6 -78.6238       7 -78.6233       8 -78.6233       9 -78.6232      10 -78.6238
      11 -78.6238      12 -78.6232      13 -69.7243      14 -69.7244      15 -69.7246
      16 -69.7247      17 -69.7248      18 -69.7246      19 -69.7243      20 -69.7243
      21 -69.7248      22 -69.7246      23 -69.7246      24 -69.7247      25 -69.7242
      26 -69.7242      27 -69.7247      28 -69.7247      29 -69.7247      30 -69.7247
 
 
 
 E-fermi :   6.1815     XC(G=0): -11.9045     alpha+bet :-12.3870


 spin component 1

 k-point     1 :       0.0000    0.0000    0.0000
  band No.  band energies     occupation 
      1     -49.9117      1.00000
      2     -49.9083      1.00000
      3     -49.9081      1.00000
      4     -49.9048      1.00000
      5     -49.9041      1.00000
      6     -49.9040      1.00000
      7     -49.8840      1.00000
      8     -49.8839      1.00000
      9     -49.8830      1.00000
     10     -49.8828      1.00000
     11     -49.8815      1.00000
     12     -49.8810      1.00000
     13     -49.8800      1.00000
     14     -49.8800      1.00000
     15     -49.8799      1.00000
     16     -49.8799      1.00000
     17     -49.8796      1.00000
     18     -49.8796      1.00000
     19     -49.8787      1.00000
     20     -49.8787      1.00000
[...]
 -0.000  -0.002   0.000   0.000  -0.001   0.000   0.000   0.000  -0.006  -0.000   0.000  -0.000   0.000   0.009   0.000  -0.000
 total augmentation occupancy for first ion, spin component:           2
 -0.003  -0.000   0.000  -0.010   0.000   0.000   0.002   0.001  -0.000   0.000   0.000  -0.003  -0.002   0.000  -0.000  -0.000
  0.000  -0.003   0.000  -0.000  -0.010   0.000   0.000  -0.000  -0.001  -0.000   0.000   0.000   0.000   0.002   0.000  -0.000
 -0.000   0.000  -0.003  -0.000   0.000  -0.010   0.000  -0.000   0.000   0.001  -0.002  -0.000   0.000  -0.000  -0.002   0.003
 -0.010  -0.000  -0.000   0.021  -0.000  -0.000  -0.085  -0.050  -0.000   0.002   0.013   0.049   0.032   0.000  -0.001  -0.008
 -0.000  -0.010   0.000  -0.000   0.017  -0.000   0.000   0.000   0.076  -0.000  -0.000  -0.000  -0.000  -0.043  -0.000   0.000
  0.000   0.000  -0.010   0.000   0.000   0.021   0.013  -0.002  -0.000  -0.050   0.085  -0.008   0.001   0.000   0.032  -0.049
  0.002   0.000   0.000  -0.085   0.000   0.013   4.295   0.577  -0.000  -0.179   0.000  -2.428  -0.471  -0.000   0.166   0.002
  0.001   0.000  -0.000  -0.050   0.000  -0.002   0.577   5.021   0.000  -0.000  -0.179  -0.469  -3.026  -0.000   0.003   0.166
 -0.000  -0.001   0.000  -0.000   0.076  -0.000  -0.000   0.000   4.388   0.000  -0.000   0.000  -0.000  -2.383  -0.000   0.000
  0.000   0.000   0.001   0.002  -0.000  -0.050  -0.179  -0.000   0.000   5.021  -0.577   0.166  -0.003  -0.000  -3.026   0.469
  0.000   0.000  -0.002   0.013  -0.000   0.085   0.000  -0.179  -0.000  -0.577   4.295  -0.002   0.166   0.000   0.471  -2.428
 -0.003   0.000  -0.000   0.049   0.000  -0.008  -2.428  -0.469   0.000   0.166  -0.002   1.294   0.332  -0.000  -0.129   0.000
 -0.002  -0.000   0.000   0.032  -0.000   0.001  -0.471  -3.026  -0.000  -0.003   0.166   0.332   1.751   0.000   0.000  -0.129
  0.000   0.002  -0.000   0.000  -0.043   0.000  -0.000  -0.000  -2.383  -0.000   0.000   0.000   0.000   1.231   0.000  -0.000
 -0.000  -0.000  -0.002  -0.001  -0.000   0.032   0.166   0.003  -0.000  -3.026   0.471  -0.129   0.000   0.000   1.751  -0.332
 -0.000  -0.000   0.003  -0.008   0.000  -0.049   0.002   0.166   0.000   0.469  -2.428   0.000  -0.129  -0.000  -0.332   1.294
  0.000   0.000  -0.000   0.000   0.001  -0.000   0.000  -0.000   0.044   0.000  -0.000   0.000  -0.000  -0.022  -0.000   0.000
  0.000   0.000  -0.000   0.000   0.001  -0.000   0.000  -0.000   0.007   0.000  -0.000   0.000   0.000  -0.005   0.000   0.000


------------------------ aborting loop because EDIFF is reached ----------------------------------------


 


 total charge     
 
# of ion       s       p       d       tot
------------------------------------------
    1        0.284   6.340   5.852  12.476
    2        0.284   6.340   5.854  12.478
    3        0.284   6.340   5.862  12.486
    4        0.284   6.340   5.852  12.475
    5        0.283   6.340   5.854  12.478
    6        0.284   6.340   5.865  12.489
    7        0.284   6.340   5.851  12.474
    8        0.284   6.340   5.853  12.477
    9        0.283   6.340   5.854  12.477
   10        0.283   6.340   5.868  12.492
   11        0.283   6.340   5.865  12.489
   12        0.283   6.340   5.857  12.480
   13        1.567   3.416   0.000   4.983
   14        1.567   3.416   0.000   4.983
   15        1.567   3.416   0.000   4.983
   16        1.567   3.417   0.000   4.984
   17        1.567   3.417   0.000   4.984
   18        1.567   3.416   0.000   4.983
   19        1.567   3.404   0.000   4.970
   20        1.567   3.403   0.000   4.970
   21        1.567   3.404   0.000   4.971
   22        1.567   3.404   0.000   4.971
   23        1.567   3.404   0.000   4.971
   24        1.567   3.404   0.000   4.971
   25        1.568   3.417   0.000   4.985
   26        1.568   3.416   0.000   4.985
   27        1.568   3.418   0.000   4.986
   28        1.568   3.419   0.000   4.988
   29        1.568   3.419   0.000   4.987
   30        1.568   3.419   0.000   4.987
--------------------------------------------------
tot         31.616 137.509  70.288 239.413
 


 magnetization (x)
 
# of ion       s       p       d       tot
------------------------------------------
    1        0.024   0.036   3.141   3.201
    2        0.024   0.036   3.138   3.198
    3        0.025   0.036   3.135   3.195
    4        0.025   0.036   3.140   3.201
    5        0.025   0.036   3.140   3.201
    6        0.025   0.036   3.132   3.193
    7        0.024   0.036   3.125   3.185
    8        0.024   0.036   3.122   3.183
    9        0.025   0.036   3.123   3.183
   10        0.025   0.036   3.116   3.177
   11        0.025   0.036   3.119   3.179
   12        0.025   0.036   3.123   3.183
   13        0.020   0.139   0.000   0.160
   14        0.020   0.139   0.000   0.159
   15        0.020   0.139   0.000   0.159
   16        0.020   0.140   0.000   0.160
   17        0.020   0.140   0.000   0.161
   18        0.020   0.139   0.000   0.160
   19        0.021   0.143   0.000   0.165
   20        0.021   0.143   0.000   0.164
   21        0.021   0.144   0.000   0.165
   22        0.021   0.144   0.000   0.165
   23        0.021   0.144   0.000   0.165
   24        0.021   0.144   0.000   0.166
   25        0.020   0.135   0.000   0.156
   26        0.020   0.135   0.000   0.155
   27        0.020   0.136   0.000   0.157
   28        0.020   0.137   0.000   0.158
   29        0.020   0.137   0.000   0.157
   30        0.020   0.137   0.000   0.157
--------------------------------------------------
tot          0.668   2.948  37.553  41.169
 
    CHARGE:  cpu time    0.9055: real time    0.9077
    FORLOC:  cpu time    0.0162: real time    0.0162
    FORNL :  cpu time    6.1261: real time    6.1406
    STRESS:  cpu time   18.4172: real time   18.4605
    FORCOR:  cpu time    0.1400: real time    0.1403
    FORHAR:  cpu time    0.0276: real time    0.0277
    MIXING:  cpu time    0.0074: real time    0.0074
    OFIELD:  cpu time    0.0001: real time    0.0001

  FORCE on cell =-STRESS in cart. coord.  units (eV):
  Direction    XX          YY          ZZ          XY          YZ          ZX
  --------------------------------------------------------------------------------------
  Alpha Z  1362.55286  1362.55286  1362.55286
  Ewald   -8201.75422 -8201.75360 -9109.63806     0.00000     0.00002    -0.00000
  Hartree  3503.88685  3503.88671  2999.88282    -0.00000     0.00001    -0.00000
  E(xc)   -1615.80378 -1615.80381 -1617.36751    -0.00003     0.00000    -0.00000
  Local    -165.16081  -165.16083  1230.67121    -0.00030    -0.00003     0.00000
  n-local  -743.01693  -741.90694  -744.47619    -4.16792     0.49351     0.11408
  augment  1844.62549  1844.62550  1846.55076     0.00028     0.00000    -0.00000
  Kinetic  4007.22696  4009.32211  4025.08508     7.65564    -1.98997    -5.04392
  Fock        0.00000     0.00000     0.00000     0.00000     0.00000     0.00000
  -------------------------------------------------------------------------------------
  Total      -5.84079    -5.84078    -6.73904     0.00000     0.00000    -0.00000
  in kB     -30.97966   -30.97965   -35.74401     0.00000     0.00000    -0.00000
  external pressure =      -32.57 kB  Pullay stress =        0.00 kB


 VOLUME and BASIS-vectors are now :
 -----------------------------------------------------------------------------
  energy-cutoff  :      860.00
  volume of cell :      302.07
      direct lattice vectors                 reciprocal lattice vectors
     5.035100000  0.000000000  0.000000000     0.198605787  0.114665118  0.000000000
    -2.517550000  4.360524000  0.000000000     0.000000000  0.229330236  0.000000000
     0.000000000  0.000000000 13.758100000     0.000000000  0.000000000  0.072684455

  length of vectors
     5.035100000  5.035099558 13.758100000     0.229330216  0.229330236  0.072684455


 FORCES acting on ions
    electron-ion (+dipol)            ewald-force                    non-local-force                 convergence-correction
 -----------------------------------------------------------------------------------------------
   0.156E-03 0.366E-03 -.126E+03   -.101E-02 0.523E-03 0.128E+03   -.997E-17 0.117E-16 -.289E+01   -.312E-07 0.164E-07 0.105E-03
   -.402E-03 0.580E-03 0.126E+03   0.101E-02 -.523E-03 -.128E+03   0.867E-18 0.347E-17 0.289E+01   0.512E-07 -.309E-07 -.105E-03
   -.135E-03 0.533E-03 -.126E+03   0.314E-02 -.187E-02 0.128E+03   -.121E-16 0.781E-17 -.289E+01   0.663E-06 -.387E-06 0.120E-03
   -.328E-03 0.645E-03 -.126E+03   -.220E-02 0.121E-02 0.128E+03   -.911E-17 0.390E-17 -.289E+01   -.602E-06 0.344E-06 0.126E-03
   0.816E-04 0.301E-03 0.126E+03   0.220E-02 -.121E-02 -.128E+03   0.260E-17 -.173E-17 0.289E+01   0.622E-06 -.358E-06 -.126E-03
   -.111E-03 0.412E-03 0.126E+03   -.314E-02 0.187E-02 -.128E+03   0.737E-17 0.000E+00 0.289E+01   -.643E-06 0.373E-06 -.120E-03
   0.566E-03 -.105E-02 0.126E+03   0.964E-03 -.523E-03 -.128E+03   0.369E-17 -.954E-17 0.289E+01   0.492E-07 -.249E-07 -.105E-03
   0.104E-02 -.127E-02 -.126E+03   -.964E-03 0.523E-03 0.128E+03   -.260E-17 -.130E-17 -.289E+01   -.349E-07 0.203E-07 0.105E-03
   0.105E-02 -.133E-02 0.126E+03   0.215E-02 -.121E-02 -.128E+03   0.997E-17 -.113E-16 0.289E+01   0.618E-06 -.356E-06 -.126E-03
   0.750E-03 -.110E-02 -.126E+03   0.319E-02 -.187E-02 0.128E+03   -.173E-17 -.130E-17 -.289E+01   0.662E-06 -.379E-06 0.120E-03
   0.856E-03 -.121E-02 0.126E+03   -.319E-02 0.187E-02 -.128E+03   0.802E-17 -.434E-17 0.289E+01   -.648E-06 0.375E-06 -.120E-03
   0.557E-03 -.989E-03 -.126E+03   -.215E-02 0.121E-02 0.128E+03   -.113E-16 -.867E-18 -.289E+01   -.604E-06 0.351E-06 0.126E-03
   -.424E+02 -.134E-02 0.216E-03   0.418E+02 0.106E-02 -.470E-03   0.677E+00 0.356E-17 0.108E-17   0.241E-03 0.152E-06 -.193E-07
   0.424E+02 -.869E-04 -.337E-03   -.418E+02 -.106E-02 0.470E-03   -.677E+00 -.103E-17 -.363E-17   -.241E-03 -.160E-06 0.863E-08
   -.424E+02 -.320E-02 -.584E-02   0.418E+02 0.570E-03 -.997E-03   0.677E+00 0.141E-17 0.108E-18   0.241E-03 -.137E-06 -.481E-05
   -.424E+02 0.240E-02 0.544E-02   0.418E+02 -.163E-02 0.147E-02   0.677E+00 0.976E-18 0.152E-17   0.241E-03 -.264E-07 0.481E-05
   0.424E+02 -.383E-02 -.556E-02   -.418E+02 0.163E-02 -.147E-02   -.677E+00 0.298E-18 -.401E-17   -.241E-03 0.176E-07 -.482E-05
   0.424E+02 0.177E-02 0.572E-02   -.418E+02 -.570E-03 0.997E-03   -.677E+00 -.488E-17 -.304E-17   -.241E-03 0.128E-06 0.480E-05
   0.212E+02 -.367E+02 -.308E-03   -.209E+02 0.362E+02 0.438E-03   -.338E+00 0.586E+00 -.867E-18   -.120E-03 0.209E-03 0.839E-08
   -.212E+02 0.367E+02 0.195E-03   0.209E+02 -.362E+02 -.438E-03   0.338E+00 -.586E+00 0.781E-17   0.120E-03 -.209E-03 -.191E-07
   0.212E+02 -.367E+02 -.553E-02   -.209E+02 0.362E+02 -.150E-02   -.338E+00 0.586E+00 0.694E-17   -.121E-03 0.209E-03 -.482E-05
   0.212E+02 -.367E+02 0.575E-02   -.209E+02 0.362E+02 0.964E-03   -.338E+00 0.586E+00 0.867E-18   -.121E-03 0.209E-03 0.480E-05
   -.212E+02 0.367E+02 -.586E-02   0.209E+02 -.362E+02 -.964E-03   0.338E+00 -.586E+00 0.607E-17   0.121E-03 -.209E-03 -.481E-05
   -.212E+02 0.367E+02 0.542E-02   0.209E+02 -.362E+02 0.150E-02   0.338E+00 -.586E+00 0.000E+00   0.121E-03 -.209E-03 0.481E-05
   0.212E+02 0.367E+02 0.939E-04   -.209E+02 -.362E+02 0.322E-04   -.338E+00 -.586E+00 -.867E-18   -.121E-03 -.209E-03 0.109E-07
   -.212E+02 -.367E+02 0.144E-03   0.209E+02 0.362E+02 -.322E-04   0.338E+00 0.586E+00 -.217E-17   0.121E-03 0.209E-03 0.104E-07
   0.212E+02 0.367E+02 -.408E-02   -.209E+02 -.362E+02 -.303E-02   -.338E+00 -.586E+00 -.390E-17   -.120E-03 -.209E-03 -.482E-05
   -.212E+02 -.367E+02 -.403E-02   0.209E+02 0.362E+02 -.310E-02   0.338E+00 0.586E+00 -.173E-17   0.121E-03 0.209E-03 -.482E-05
   0.212E+02 0.367E+02 0.427E-02   -.209E+02 -.362E+02 0.310E-02   -.338E+00 -.586E+00 -.390E-17   -.121E-03 -.209E-03 0.484E-05
   -.212E+02 -.367E+02 0.432E-02   0.209E+02 0.362E+02 0.303E-02   0.338E+00 0.586E+00 -.434E-18   0.120E-03 0.209E-03 0.484E-05
 -----------------------------------------------------------------------------------------------
   0.150E-01 -.165E-01 -.111E-04   -.995E-13 -.995E-13 -.192E-12   -.111E-15 0.111E-15 0.133E-14   0.122E-06 -.595E-07 -.171E-09
 
 
 POSITION                                       TOTAL-FORCE (eV/Angst)
 -----------------------------------------------------------------------------------
      0.00000      0.00000      4.88853        -0.000000      0.000000     -0.927114
      0.00000      0.00000      8.86957        -0.000000      0.000000      0.927114
     -0.00000      2.90702      0.30250        -0.000000      0.000000     -0.927114
      2.51755      1.45351      9.47456        -0.000000      0.000000     -0.927114
     -0.00000      2.90702      4.28354        -0.000000      0.000000      0.927114
      2.51755      1.45351     13.45560        -0.000000      0.000000      0.927114
      0.00000      0.00000      1.99052        -0.000000      0.000000      0.927114
      0.00000      0.00000     11.76758        -0.000000      0.000000     -0.927114
     -0.00000      2.90702     11.16259        -0.000000      0.000000      0.927114
     -0.00000      2.90702      7.18155        -0.000000      0.000000     -0.927114
      2.51755      1.45351      6.57655        -0.000000      0.000000      0.927114
      2.51755      1.45351      2.59551        -0.000000      0.000000     -0.927114
      1.54165      0.00000      3.43953         0.084739      0.000000      0.000000
      3.49345      0.00000     10.31858        -0.084739      0.000000      0.000000
      1.54164      2.90702     12.61160         0.084739      0.000000      0.000000
      4.05920      1.45351      8.02555         0.084739      0.000000      0.000000
     -1.54165      2.90702      5.73255        -0.084739      0.000000      0.000000
      0.97591      1.45351      1.14650        -0.084739      0.000000      0.000000
     -0.77082      1.33511      3.43953        -0.042369      0.073386      0.000000
     -1.74673      3.02542     10.31858         0.042369     -0.073386      0.000000
     -0.77083      4.24212     12.61160        -0.042369      0.073386      0.000000
      1.74673      2.78861      8.02555        -0.042369      0.073386      0.000000
      0.77082      1.57191      5.73255         0.042369     -0.073386      0.000000
      3.28838      0.11840      1.14650         0.042369     -0.073386      0.000000
      1.74673      3.02542      3.43953        -0.042369     -0.073386      0.000000
      0.77082      1.33511     10.31858         0.042369      0.073386      0.000000
     -0.77083      1.57191     12.61160        -0.042369     -0.073386      0.000000
      0.77082      4.24212      5.73255         0.042369      0.073386      0.000000
      1.74673      0.11840      8.02555        -0.042369     -0.073386      0.000000
      3.28838      2.78861      1.14650         0.042369      0.073386      0.000000
 -----------------------------------------------------------------------------------
    total drift:                                0.015001     -0.016539     -0.000011


--------------------------------------------------------------------------------------------------------



  FREE ENERGIE OF THE ION-ELECTRON SYSTEM (eV)
  ---------------------------------------------------
  free  energy   TOTEN  =      -221.46446292 eV

  energy  without entropy=     -221.46446292  energy(sigma->0) =     -221.46446292
 


--------------------------------------------------------------------------------------------------------


    POTLOK:  cpu time    0.1501: real time    0.1505


--------------------------------------------------------------------------------------------------------


     LOOP+:  cpu time  575.8810: real time  577.2916
    4ORBIT:  cpu time    0.0000: real time    0.0000
 


 total charge     
 
# of ion       s       p       d       tot
------------------------------------------
    1        0.284   6.340   5.852  12.476
    2        0.284   6.340   5.854  12.478
    3        0.284   6.340   5.862  12.486
    4        0.284   6.340   5.852  12.475
    5        0.283   6.340   5.854  12.478
    6        0.284   6.340   5.865  12.489
    7        0.284   6.340   5.851  12.474
    8        0.284   6.340   5.853  12.477
    9        0.283   6.340   5.854  12.477
   10        0.283   6.340   5.868  12.492
   11        0.283   6.340   5.865  12.489
   12        0.283   6.340   5.857  12.480
   13        1.567   3.416   0.000   4.983
   14        1.567   3.416   0.000   4.983
   15        1.567   3.416   0.000   4.983
   16        1.567   3.417   0.000   4.984
   17        1.567   3.417   0.000   4.984
   18        1.567   3.416   0.000   4.983
   19        1.567   3.404   0.000   4.970
   20        1.567   3.403   0.000   4.970
   21        1.567   3.404   0.000   4.971
   22        1.567   3.404   0.000   4.971
   23        1.567   3.404   0.000   4.971
   24        1.567   3.404   0.000   4.971
   25        1.568   3.417   0.000   4.985
   26        1.568   3.416   0.000   4.985
   27        1.568   3.418   0.000   4.986
   28        1.568   3.419   0.000   4.988
   29        1.568   3.419   0.000   4.987
   30        1.568   3.419   0.000   4.987
--------------------------------------------------
tot         31.616 137.509  70.288 239.413
 


 magnetization (x)
 
# of ion       s       p       d       tot
------------------------------------------
    1        0.024   0.036   3.141   3.201
    2        0.024   0.036   3.138   3.198
    3        0.025   0.036   3.135   3.195
    4        0.025   0.036   3.140   3.201
    5        0.025   0.036   3.140   3.201
    6        0.025   0.036   3.132   3.193
    7        0.024   0.036   3.125   3.185
    8        0.024   0.036   3.122   3.183
    9        0.025   0.036   3.123   3.183
   10        0.025   0.036   3.116   3.177
   11        0.025   0.036   3.119   3.179
   12        0.025   0.036   3.123   3.183
   13        0.020   0.139   0.000   0.160
   14        0.020   0.139   0.000   0.159
   15        0.020   0.139   0.000   0.159
   16        0.020   0.140   0.000   0.160
   17        0.020   0.140   0.000   0.161
   18        0.020   0.139   0.000   0.160
   19        0.021   0.143   0.000   0.165
   20        0.021   0.143   0.000   0.164
   21        0.021   0.144   0.000   0.165
   22        0.021   0.144   0.000   0.165
   23        0.021   0.144   0.000   0.165
   24        0.021   0.144   0.000   0.166
   25        0.020   0.135   0.000   0.156
   26        0.020   0.135   0.000   0.155
   27        0.020   0.136   0.000   0.157
   28        0.020   0.137   0.000   0.158
   29        0.020   0.137   0.000   0.157
   30        0.020   0.137   0.000   0.157
--------------------------------------------------
tot          0.668   2.948  37.553  41.169
 
 BZINTS: Fermi energy:  6.181528;276.000000 electrons
         Band energy:***********;  BLOECHL correction: -0.032973

 total amount of memory used by VASP MPI-rank0   129792. kBytes
=======================================================================

   base      :      30000. kBytes
   nonlr-proj:      10599. kBytes
   fftplans  :       6013. kBytes
   grid      :      15120. kBytes
   one-center:        248. kBytes
   wavefun   :      67812. kBytes
 
  
  
 General timing and accounting informations for this job:
 ========================================================
  
                  Total CPU time used (sec):      586.608
                            User time (sec):      585.008
                          System time (sec):        1.600
                         Elapsed time (sec):      588.114
  
                   Maximum memory used (kb):      185356.
                   Average memory used (kb):           0.
  
                          Minor page faults:        58232
                          Major page faults:            0
                 Voluntary context switches:          349
