       N       E                     dE             d eps       ncg     rms          rms(c)
DAV:   1     0.796212560277E+02    0.79621E+02   -0.78413E+03  4296   0.159E+03
DAV:   2    -0.140714143843E+02   -0.93693E+02   -0.87506E+02  4256   0.268E+02
DAV:   3    -0.161940812946E+02   -0.21227E+01   -0.20550E+01  4796   0.580E+01
DAV:   4    -0.162255893355E+02   -0.31508E-01   -0.31502E-01  6098   0.548E+00
DAV:   5    -0.162258932487E+02   -0.30391E-03   -0.30407E-03  4994   0.497E-01    0.144E+01
DAV:   6    -0.142618648232E+02    0.19640E+01   -0.16518E+01  4478   0.835E+01    0.796E+00
DAV:   7    -0.139286633432E+02    0.33320E+00   -0.23031E+00  4628   0.298E+01    0.482E+00
DAV:   8    -0.140782839803E+02   -0.14962E+00   -0.15131E-01  5774   0.635E+00    0.217E+00
DAV:   9    -0.140353734781E+02    0.42911E-01   -0.34577E-02  6144   0.279E+00    0.237E+00
DAV:  10    -0.140252005843E+02    0.10173E-01   -0.94880E-04  6052   0.445E-01    0.266E+00
DAV:  11    -0.140698604007E+02   -0.44660E-01   -0.32401E-02  5242   0.302E+00    0.424E-01
DAV:  12    -0.140703152297E+02   -0.45483E-03   -0.10128E-03  5998   0.385E-01    0.154E-01
DAV:  13    -0.140701094460E+02    0.20578E-03   -0.16832E-04  5656   0.211E-01    0.894E-03
DAV:  14    -0.140700984130E+02    0.11033E-04   -0.64781E-06  4652   0.285E-02    0.934E-03
DAV:  15    -0.140701068726E+02   -0.84596E-05   -0.33336E-07  4930   0.757E-03    0.496E-03
DAV:  16    -0.140701162569E+02   -0.93842E-05   -0.21133E-07  3120   0.687E-03    0.502E-04
DAV:  17    -0.140701155228E+02    0.73406E-06   -0.12563E-08  2296   0.152E-03    0.402E-04
DAV:  18    -0.140701164960E+02   -0.97316E-06   -0.30942E-09  2248   0.814E-04    0.653E-05
DAV:  19    -0.140701164878E+02    0.81479E-08   -0.89789E-10  2200   0.302E-04
   1 F= -.14070116E+02 E0= -.14070116E+02  d E =0.000000E+00  mag=     3.1561
