=========================================
SLURM_JOB_ID = 33322305
SLURM_JOB_NODELIST = lnode13
SLURM_GPUS = 
SLURM_CPUS_ON_NODE = 8
SLURM_JOB_PARTITION = lenovo
SLURM_TASK_PID = 1418509
CUDA_VISIBLE_DEVICES = 
==========================================
 running on    8 total cores
 distrk:  each k-point on    8 cores,    1 groups
 distr:  one band on    4 cores,    2 groups
 using from now: INCAR     
 vasp.5.4.4.18Apr17-6-g9f103f2a35 (build Apr 28 2018 00:24:27) complex          
  
 POSCAR found type information on POSCAR  Eu O 
 POSCAR found :  2 types and       8 ions
 scaLAPACK will be used

 ----------------------------------------------------------------------------- 
|                                                                             |
|  ADVICE TO THIS USER RUNNING 'VASP/VAMP'   (HEAR YOUR MASTER'S VOICE ...):  |
|                                                                             |
|      You have a (more or less) 'small supercell' and for smaller cells      |
|      it is recommended  to use the reciprocal-space projection scheme!      |
|      The real space optimization is not  efficient for small cells and it   |
|      is also less accurate ...                                              |
|      Therefore set LREAL=.FALSE. in the  INCAR file                         |
|                                                                             |
 ----------------------------------------------------------------------------- 

 LDA part: xc-table for Pade appr. of Perdew
 POSCAR, INCAR and KPOINTS ok, starting setup
 FFT: planning ...
 WAVECAR not read
 WARNING: random wavefunctions but no delay for mixing, default for NELMDL
 entering main loop
       N       E                     dE             d eps       ncg     rms          rms(c)
DAV:   1     0.125321752748E+04    0.12532E+04   -0.31396E+04 57568   0.357E+03
DAV:   2     0.325941206147E+03   -0.92728E+03   -0.84327E+03 66344   0.689E+02
DAV:   3    -0.647619100885E+01   -0.33242E+03   -0.32184E+03 70264   0.351E+02
DAV:   4    -0.799555810862E+02   -0.73479E+02   -0.71454E+02 93240   0.144E+02
DAV:   5    -0.890938971325E+02   -0.91383E+01   -0.84287E+01 92864   0.571E+01    0.384E+01
DAV:   6    -0.153476038017E+03   -0.64382E+02   -0.83369E+02 81744   0.224E+02    0.160E+02
DAV:   7    -0.508531771257E+02    0.10262E+03   -0.85213E+02 75688   0.123E+02    0.592E+01
DAV:   8    -0.805583250526E+02   -0.29705E+02   -0.28024E+02 85880   0.725E+01    0.336E+01
DAV:   9    -0.824248292512E+02   -0.18665E+01   -0.29815E+01 76248   0.323E+01    0.182E+01
DAV:  10    -0.834965721250E+02   -0.10717E+01   -0.35664E+00 96688   0.128E+01    0.158E+01
DAV:  11    -0.832994847135E+02    0.19709E+00   -0.52989E-01 88040   0.674E+00    0.143E+01
DAV:  12    -0.831564507851E+02    0.14303E+00   -0.25466E-01 83128   0.528E+00    0.126E+01
DAV:  13    -0.833217121868E+02   -0.16526E+00   -0.66265E-01 86304   0.685E+00    0.885E+00
DAV:  14    -0.833784341824E+02   -0.56722E-01   -0.18544E-01 92472   0.273E+00    0.785E+00
DAV:  15    -0.834020647149E+02   -0.23631E-01   -0.28710E-02 88376   0.159E+00    0.727E+00
DAV:  16    -0.834542523224E+02   -0.52188E-01   -0.12659E-01 81496   0.347E+00    0.537E+00
DAV:  17    -0.834195348694E+02    0.34717E-01   -0.80574E-02 89968   0.222E+00    0.548E+00
DAV:  18    -0.833511335645E+02    0.68401E-01   -0.53754E-02 88064   0.152E+00    0.503E+00
DAV:  19    -0.833543411145E+02   -0.32076E-02   -0.11818E-01 87416   0.250E+00    0.281E+00
DAV:  20    -0.833583120542E+02   -0.39709E-02   -0.60839E-02 91624   0.159E+00    0.169E+00
DAV:  21    -0.833633534836E+02   -0.50414E-02   -0.13862E-02 92448   0.906E-01    0.833E-01
DAV:  22    -0.833646013390E+02   -0.12479E-02   -0.49651E-03 93528   0.538E-01    0.427E-01
DAV:  23    -0.833650823253E+02   -0.48099E-03   -0.14027E-03 89424   0.292E-01    0.147E-01
DAV:  24    -0.833651591194E+02   -0.76794E-04   -0.39026E-04 94088   0.146E-01    0.509E-02
DAV:  25    -0.833651604497E+02   -0.13304E-05   -0.76205E-05 87272   0.767E-02    0.368E-02
DAV:  26    -0.833651621263E+02   -0.16765E-05   -0.19222E-05 69656   0.380E-02    0.275E-02
DAV:  27    -0.833651565938E+02    0.55325E-05   -0.10788E-05 66160   0.372E-02    0.228E-02
DAV:  28    -0.833651580897E+02   -0.14960E-05   -0.46672E-06 48584   0.255E-02    0.194E-02
DAV:  29    -0.833651568031E+02    0.12867E-05   -0.40996E-06 41080   0.235E-02    0.151E-02
DAV:  30    -0.833651567551E+02    0.47990E-07   -0.27757E-06 35864   0.173E-02
   1 F= -.83365157E+02 E0= -.83365157E+02  d E =0.000000E+00  mag=    -0.0002
