 vasp.5.4.4.18Apr17-6-g9f103f2a35 (build Apr 28 2018 00:24:27) complex          
  
 executed on             LinuxIFC date 2021.03.31  13:47:44
 running on    8 total cores
 distrk:  each k-point on    8 cores,    1 groups
 distr:  one band on NCORES_PER_BAND=   4 cores,    2 groups


--------------------------------------------------------------------------------------------------------


 INCAR:
 POTCAR:    PAW_PBE Eu 23Dec2003                  
 POTCAR:    PAW_PBE O 08Apr2002                   
 POTCAR:    PAW_PBE Eu 23Dec2003                  
   VRHFIN =Eu : [core=Kr4d]                                                     
   LEXCH  = PE                                                                  
   EATOM  =  2619.8085 eV,  192.5505 Ry                                         
                                                                                
   TITEL  = PAW_PBE Eu 23Dec2003                                                
   LULTRA =        F    use ultrasoft PP ?                                      
   IUNSCR =        1    unscreen: 0-lin 1-nonlin 2-no                           
   RPACOR =    2.300    partial core radius                                     
   POMASS =  151.965; ZVAL   =   17.000    mass and valenz                      
   RCORE  =    2.800    outmost cutoff radius                                   
   RWIGS  =    2.800; RWIGS  =    1.482    wigner-seitz radius (au A)           
   ENMAX  =  249.668; ENMIN  =  187.251 eV                                      
   RCLOC  =    2.308    cutoff for local pot                                    
   LCOR   =        T    correct aug charges                                     
   LPAW   =        T    paw PP                                                  
   EAUG   =  549.628                                                            
   DEXC   =    0.000                                                            
   RMAX   =    2.870    core radius for proj-oper                               
   RAUG   =    1.300    factor for augmentation sphere                          
   RDEP   =    2.887    radius for radial grids                                 
   RDEPT  =    2.221    core radius for aug-charge                              
                                                                                
   Atomic configuration                                                         
   14 entries                                                                   
     n  l   j            E        occ.                                          
     1  0  0.50    -48354.7667   2.0000                                         
     2  0  0.50     -7939.6472   2.0000                                         
     2  1  1.50     -7072.6637   6.0000                                         
     3  0  0.50     -1747.1875   2.0000                                         
     3  1  1.50     -1477.5221   6.0000                                         
     3  2  2.50     -1117.4686  10.0000                                         
     4  0  0.50      -346.8682   2.0000                                         
     4  1  1.50      -258.1962   6.0000                                         
     4  2  2.50      -134.7724  10.0000                                         
     5  0  0.50       -44.6510   2.0000                                         
     6  0  0.50        -3.6227   2.0000                                         
     5  1  1.50       -23.7639   6.0000                                         
     5  2  2.50        -1.3130   0.0000                                         
     4  3  2.50        -2.7310   7.0000                                         
   Description                                                                  
     l       E           TYP  RCUT    TYP  RCUT                                 
     0    -44.6510453     23  2.400                                             
     0     -3.6226685     23  2.400                                             
     1    -23.7638687     23  2.400                                             
     1     27.2116520     23  2.400                                             
     2     -1.3129622     23  2.500                                             
     2     13.6058260     23  2.500                                             
     3     -2.7309948     23  2.800                                             
     3     -3.4014565     23  2.800                                             
  local pseudopotential read in
  partial core-charges read in
  partial kinetic energy density read in
  atomic valenz-charges read in
  non local Contribution for L=           0  read in
    real space projection operators read in
  non local Contribution for L=           0  read in
    real space projection operators read in
  non local Contribution for L=           1  read in
    real space projection operators read in
  non local Contribution for L=           1  read in
    real space projection operators read in
  non local Contribution for L=           2  read in
    real space projection operators read in
  non local Contribution for L=           2  read in
    real space projection operators read in
  non local Contribution for L=           3  read in
    real space projection operators read in
  non local Contribution for L=           3  read in
    real space projection operators read in
    PAW grid and wavefunctions read in
 
   number of l-projection  operators is LMAX  =           8
   number of lm-projection operators is LMMAX =          32
 
 POTCAR:    PAW_PBE O 08Apr2002                   
   VRHFIN =O: s2p4                                                              
   LEXCH  = PE                                                                  
   EATOM  =   432.3788 eV,   31.7789 Ry                                         
                                                                                
   TITEL  = PAW_PBE O 08Apr2002                                                 
   LULTRA =        F    use ultrasoft PP ?                                      
   IUNSCR =        1    unscreen: 0-lin 1-nonlin 2-no                           
   RPACOR =    1.200    partial core radius                                     
   POMASS =   16.000; ZVAL   =    6.000    mass and valenz                      
   RCORE  =    1.520    outmost cutoff radius                                   
   RWIGS  =    1.550; RWIGS  =    0.820    wigner-seitz radius (au A)           
   ENMAX  =  400.000; ENMIN  =  300.000 eV                                      
   ICORE  =        2    local potential                                         
   LCOR   =        T    correct aug charges                                     
   LPAW   =        T    paw PP                                                  
   EAUG   =  605.392                                                            
   DEXC   =    0.000                                                            
   RMAX   =    1.553    core radius for proj-oper                               
   RAUG   =    1.300    factor for augmentation sphere                          
   RDEP   =    1.550    radius for radial grids                                 
   RDEPT  =    1.329    core radius for aug-charge                              
                                                                                
   Atomic configuration                                                         
    4 entries                                                                   
     n  l   j            E        occ.                                          
     1  0  0.50      -514.6923   2.0000                                         
     2  0  0.50       -23.9615   2.0000                                         
     2  1  0.50        -9.0305   4.0000                                         
     3  2  1.50        -9.5241   0.0000                                         
   Description                                                                  
     l       E           TYP  RCUT    TYP  RCUT                                 
     0    -23.9615318     23  1.200                                             
     0     -9.5240782     23  1.200                                             
     1     -9.0304911     23  1.520                                             
     1      8.1634956     23  1.520                                             
     2     -9.5240782      7  1.500                                             
  local pseudopotential read in
  partial core-charges read in
  partial kinetic energy density read in
  kinetic energy density of atom read in
  atomic valenz-charges read in
  non local Contribution for L=           0  read in
    real space projection operators read in
  non local Contribution for L=           0  read in
    real space projection operators read in
  non local Contribution for L=           1  read in
    real space projection operators read in
  non local Contribution for L=           1  read in
    real space projection operators read in
    PAW grid and wavefunctions read in
 
   number of l-projection  operators is LMAX  =           4
   number of lm-projection operators is LMMAX =           8
 

 ----------------------------------------------------------------------------- 
|                                                                             |
|  ADVICE TO THIS USER RUNNING 'VASP/VAMP'   (HEAR YOUR MASTER'S VOICE ...):  |
|                                                                             |
|      You have a (more or less) 'small supercell' and for smaller cells      |
|      it is recommended  to use the reciprocal-space projection scheme!      |
|      The real space optimization is not  efficient for small cells and it   |
|      is also less accurate ...                                              |
|      Therefore set LREAL=.FALSE. in the  INCAR file                         |
|                                                                             |
 ----------------------------------------------------------------------------- 

 Optimization of the real space projectors (new method)

 maximal supplied QI-value         = 13.42
 optimisation between [QCUT,QGAM] = [ 11.67, 23.35] = [ 38.16,152.62] Ry 
 Optimized for a Real-space Cutoff    1.63 Angstroem

   l    n(q)    QCUT    max X(q) W(low)/X(q) W(high)/X(q)  e(spline) 
   0     11    11.673    10.400    0.14E-04    0.18E-05    0.24E-07
   0     11    11.673    10.768    0.21E-04    0.32E-05    0.49E-07
   1     11    11.673     4.094    0.40E-05    0.13E-04    0.93E-07
   1     11    11.673     4.009    0.11E-04    0.46E-04    0.33E-06
   2     10    11.673    29.030    0.79E-04    0.60E-04    0.70E-06
   2     10    11.673    19.941    0.80E-04    0.60E-04    0.71E-06
   3     10    11.673    88.889    0.23E-03    0.29E-03    0.30E-06
   3     10    11.673    76.102    0.23E-03    0.30E-03    0.30E-06
 Optimization of the real space projectors (new method)

 maximal supplied QI-value         = 24.76
 optimisation between [QCUT,QGAM] = [ 11.64, 23.27] = [ 37.91,151.63] Ry 
 Optimized for a Real-space Cutoff    1.14 Angstroem

   l    n(q)    QCUT    max X(q) W(low)/X(q) W(high)/X(q)  e(spline) 
   0      8    11.635    20.381    0.10E-03    0.33E-03    0.24E-06
   0      8    11.635    15.268    0.11E-03    0.35E-03    0.26E-06
   1      7    11.635     5.964    0.24E-03    0.31E-03    0.30E-06
   1      7    11.635     5.382    0.22E-03    0.25E-03    0.26E-06
  PAW_PBE Eu 23Dec2003                  :
 energy of atom  1       EATOM=-2619.8085
 kinetic energy error for atom=    0.0015 (will be added to EATOM!!)
  PAW_PBE O 08Apr2002                   :
 energy of atom  2       EATOM= -432.3788
 kinetic energy error for atom=    0.0208 (will be added to EATOM!!)
 
 
 POSCAR: Eu4 O4                                  
  positions in direct lattice
  velocities in cartesian coordinates
 exchange correlation table for  LEXCH =        8
   RHO(1)=    0.500       N(1)  =     2000
   RHO(2)=  100.500       N(2)  =     4000
 


--------------------------------------------------------------------------------------------------------


 ion  position               nearest neighbor table
   1  0.500  0.749  0.250-   6 2.54   6 2.54   6 2.54   5 2.54   5 2.54   5 2.54
   2  1.000  0.501  0.500-   6 2.54   6 2.54   6 2.54   7 2.54   7 2.54   7 2.54
   3  0.500  0.249  0.750-   8 2.54   8 2.54   8 2.54   7 2.54   7 2.54   7 2.54
   4  1.000  0.001  0.000-   8 2.54   8 2.54   8 2.54   5 2.54   5 2.54   5 2.54
   5  0.750  0.875  0.625-   4 2.54   1 2.54   4 2.54   1 2.54   4 2.54   1 2.54
   6  0.250  0.625  0.875-   2 2.54   1 2.54   2 2.54   1 2.54   1 2.54   2 2.54
   7  0.750  0.375  0.125-   3 2.54   2 2.54   3 2.54   2 2.54   3 2.54   2 2.54
   8  0.250  0.125  0.375-   4 2.54   3 2.54   4 2.54   3 2.54   3 2.54   4 2.54
 
  LATTYP: Found a triclinic cell.
 ALAT       =     3.5846389483
 B/A-ratio  =     1.0001491005
 C/A-ratio  =     4.0170980364
 COS(alpha) =     0.0000243951
 COS(beta)  =     0.4978465327
 COS(gamma) =     0.4999075366
  
  Lattice vectors:
  
 A1 = (   1.7923825260,   3.1043519872,  -0.0000961562)
 A2 = (  -1.7928551065,   3.1046962695,   0.0002999893)
 A3 = (   7.1690644197,   4.1391548266,  11.7825073648)


Analysis of symmetry for initial positions (statically):
=====================================================================
 Subroutine PRICEL returns:
 Original cell was already a primitive cell.
 

 Routine SETGRP: Setting up the symmetry group for a 
 triclinic supercell.


 Subroutine GETGRP returns: Found  2 space group operations
 (whereof  1 operations were pure point group operations)
 out of a pool of  2 trial point group operations.


The static configuration has the point symmetry C_1 .
 The point group associated with its full space group is S_2 .


Analysis of symmetry for dynamics (positions and initial velocities):
=====================================================================
 Subroutine PRICEL returns:
 Original cell was already a primitive cell.
 

 Routine SETGRP: Setting up the symmetry group for a 
 triclinic supercell.


 Subroutine GETGRP returns: Found  2 space group operations
 (whereof  1 operations were pure point group operations)
 out of a pool of  2 trial point group operations.


The dynamic configuration has the point symmetry C_1 .
 The point group associated with its full space group is S_2 .


Analysis of structural, dynamic, and magnetic symmetry:
=====================================================================
 Subroutine PRICEL returns:
 Original cell was already a primitive cell.
 

 Routine SETGRP: Setting up the symmetry group for a 
 triclinic supercell.


 Subroutine GETGRP returns: Found  2 space group operations
 (whereof  1 operations were pure point group operations)
 out of a pool of  2 trial point group operations.


The magnetic configuration has the point symmetry C_1 .
 The point group associated with its full space group is S_2 .


 Subroutine INISYM returns: Found  2 space group operations
 (whereof  1 operations are pure point group operations),
 and found     1 'primitive' translations

 
 
 KPOINTS: pymatgen v2019.10.16 with grid density =

Automatic generation of k-mesh.
Space group operators:
 irot       det(A)        alpha          n_x          n_y          n_z        tau_x        tau_y        tau_z
    1     1.000000     0.000001     1.000000     0.000000     0.000000     0.000000     0.000000     0.000000
    2    -1.000000     0.000001     1.000000     0.000000     0.000000    -0.500000     0.250000     0.750000
 
 Subroutine IBZKPT returns following result:
 ===========================================
 
 Found    218 irreducible k-points:
 
 Following reciprocal coordinates:
            Coordinates               Weight
  0.000000  0.000000  0.000000      1.000000
  0.083333  0.000000 -0.000000      2.000000
  0.166667  0.000000 -0.000000      2.000000
  0.250000  0.000000 -0.000000      2.000000
  0.333333 -0.000000 -0.000000      2.000000
  0.416667  0.000000 -0.000000      2.000000
  0.500000  0.000000 -0.000000      1.000000
  0.000000  0.333333  0.000000      2.000000
  0.083333  0.333333 -0.000000      2.000000
  0.166667  0.333333 -0.000000      2.000000
  0.250000  0.333333  0.000000      2.000000
  0.333333  0.333333 -0.000000      2.000000
  0.416667  0.333333 -0.000000      2.000000
  0.500000  0.333333 -0.000000      2.000000
 -0.416667  0.333333  0.000000      2.000000
 -0.333333  0.333333  0.000000      2.000000
 -0.250000  0.333333  0.000000      2.000000
 -0.166667  0.333333  0.000000      2.000000
 -0.083333  0.333333  0.000000      2.000000
 -0.000000  0.000000  0.083333      2.000000
  0.083333  0.000000  0.083333      2.000000
  0.166667  0.000000  0.083333      2.000000
  0.250000  0.000000  0.083333      2.000000
  0.333333  0.000000  0.083333      2.000000
  0.416667  0.000000  0.083333      2.000000
  0.500000  0.000000  0.083333      2.000000
 -0.416667 -0.000000  0.083333      2.000000
 -0.333333  0.000000  0.083333      2.000000
 -0.250000  0.000000  0.083333      2.000000
 -0.166667  0.000000  0.083333      2.000000
 -0.083333  0.000000  0.083333      2.000000
 -0.000000  0.333333  0.083333      2.000000
  0.083333  0.333333  0.083333      2.000000
  0.166667  0.333333  0.083333      2.000000
  0.250000  0.333333  0.083333      2.000000
  0.333333  0.333333  0.083333      2.000000
  0.416667  0.333333  0.083333      2.000000
  0.500000  0.333333  0.083333      2.000000
 -0.416667  0.333333  0.083333      2.000000
 -0.333333  0.333333  0.083333      2.000000
 -0.250000  0.333333  0.083333      2.000000
 -0.166667  0.333333  0.083333      2.000000
 -0.083333  0.333333  0.083333      2.000000
 -0.000000 -0.333333  0.083333      2.000000
  0.083333 -0.333333  0.083333      2.000000
  0.166667 -0.333333  0.083333      2.000000
  0.250000 -0.333333  0.083333      2.000000
  0.333333 -0.333333  0.083333      2.000000
  0.416667 -0.333333  0.083333      2.000000
  0.500000 -0.333333  0.083333      2.000000
 -0.416667 -0.333333  0.083333      2.000000
 -0.333333 -0.333333  0.083333      2.000000
 -0.250000 -0.333333  0.083333      2.000000
 -0.166667 -0.333333  0.083333      2.000000
 -0.083333 -0.333333  0.083333      2.000000
 -0.000000  0.000000  0.166667      2.000000
  0.083333 -0.000000  0.166667      2.000000
  0.166667 -0.000000  0.166667      2.000000
  0.250000  0.000000  0.166667      2.000000
  0.333333  0.000000  0.166667      2.000000
  0.416667  0.000000  0.166667      2.000000
  0.500000  0.000000  0.166667      2.000000
 -0.416667 -0.000000  0.166667      2.000000
 -0.333333  0.000000  0.166667      2.000000
 -0.250000  0.000000  0.166667      2.000000
 -0.166667  0.000000  0.166667      2.000000
 -0.083333 -0.000000  0.166667      2.000000
 -0.000000  0.333333  0.166667      2.000000
  0.083333  0.333333  0.166667      2.000000
  0.166667  0.333333  0.166667      2.000000
  0.250000  0.333333  0.166667      2.000000
  0.333333  0.333333  0.166667      2.000000
  0.416667  0.333333  0.166667      2.000000
  0.500000  0.333333  0.166667      2.000000
 -0.416667  0.333333  0.166667      2.000000
 -0.333333  0.333333  0.166667      2.000000
 -0.250000  0.333333  0.166667      2.000000
 -0.166667  0.333333  0.166667      2.000000
 -0.083333  0.333333  0.166667      2.000000
 -0.000000 -0.333333  0.166667      2.000000
  0.083333 -0.333333  0.166667      2.000000
  0.166667 -0.333333  0.166667      2.000000
  0.250000 -0.333333  0.166667      2.000000
  0.333333 -0.333333  0.166667      2.000000
  0.416667 -0.333333  0.166667      2.000000
  0.500000 -0.333333  0.166667      2.000000
 -0.416667 -0.333333  0.166667      2.000000
 -0.333333 -0.333333  0.166667      2.000000
 -0.250000 -0.333333  0.166667      2.000000
 -0.166667 -0.333333  0.166667      2.000000
 -0.083333 -0.333333  0.166667      2.000000
 -0.000000  0.000000  0.250000      2.000000
  0.083333  0.000000  0.250000      2.000000
  0.166667 -0.000000  0.250000      2.000000
  0.250000  0.000000  0.250000      2.000000
  0.333333  0.000000  0.250000      2.000000
  0.416667  0.000000  0.250000      2.000000
  0.500000  0.000000  0.250000      2.000000
 -0.416667 -0.000000  0.250000      2.000000
 -0.333333  0.000000  0.250000      2.000000
 -0.250000  0.000000  0.250000      2.000000
 -0.166667  0.000000  0.250000      2.000000
 -0.083333  0.000000  0.250000      2.000000
 -0.000000  0.333333  0.250000      2.000000
  0.083333  0.333333  0.250000      2.000000
  0.166667  0.333333  0.250000      2.000000
  0.250000  0.333333  0.250000      2.000000
  0.333333  0.333333  0.250000      2.000000
  0.416667  0.333333  0.250000      2.000000
  0.500000  0.333333  0.250000      2.000000
 -0.416667  0.333333  0.250000      2.000000
 -0.333333  0.333333  0.250000      2.000000
 -0.250000  0.333333  0.250000      2.000000
 -0.166667  0.333333  0.250000      2.000000
 -0.083333  0.333333  0.250000      2.000000
 -0.000000 -0.333333  0.250000      2.000000
  0.083333 -0.333333  0.250000      2.000000
  0.166667 -0.333333  0.250000      2.000000
  0.250000 -0.333333  0.250000      2.000000
  0.333333 -0.333333  0.250000      2.000000
  0.416667 -0.333333  0.250000      2.000000
  0.500000 -0.333333  0.250000      2.000000
 -0.416667 -0.333333  0.250000      2.000000
 -0.333333 -0.333333  0.250000      2.000000
 -0.250000 -0.333333  0.250000      2.000000
 -0.166667 -0.333333  0.250000      2.000000
 -0.083333 -0.333333  0.250000      2.000000
 -0.000000  0.000000  0.333333      2.000000
  0.083333 -0.000000  0.333333      2.000000
  0.166667  0.000000  0.333333      2.000000
  0.250000 -0.000000  0.333333      2.000000
  0.333333 -0.000000  0.333333      2.000000
  0.416667  0.000000  0.333333      2.000000
  0.500000 -0.000000  0.333333      2.000000
 -0.416667  0.000000  0.333333      2.000000
 -0.333333 -0.000000  0.333333      2.000000
 -0.250000  0.000000  0.333333      2.000000
 -0.166667 -0.000000  0.333333      2.000000
 -0.083333  0.000000  0.333333      2.000000
 -0.000000  0.333333  0.333333      2.000000
  0.083333  0.333333  0.333333      2.000000
  0.166667  0.333333  0.333333      2.000000
  0.250000  0.333333  0.333333      2.000000
  0.333333  0.333333  0.333333      2.000000
  0.416667  0.333333  0.333333      2.000000
  0.500000  0.333333  0.333333      2.000000
 -0.416667  0.333333  0.333333      2.000000
 -0.333333  0.333333  0.333333      2.000000
 -0.250000  0.333333  0.333333      2.000000
 -0.166667  0.333333  0.333333      2.000000
 -0.083333  0.333333  0.333333      2.000000
 -0.000000 -0.333333  0.333333      2.000000
  0.083333 -0.333333  0.333333      2.000000
  0.166667 -0.333333  0.333333      2.000000
  0.250000 -0.333333  0.333333      2.000000
  0.333333 -0.333333  0.333333      2.000000
  0.416667 -0.333333  0.333333      2.000000
  0.500000 -0.333333  0.333333      2.000000
 -0.416667 -0.333333  0.333333      2.000000
 -0.333333 -0.333333  0.333333      2.000000
 -0.250000 -0.333333  0.333333      2.000000
 -0.166667 -0.333333  0.333333      2.000000
 -0.083333 -0.333333  0.333333      2.000000
 -0.000000  0.000000  0.416667      2.000000
  0.083333  0.000000  0.416667      2.000000
  0.166667  0.000000  0.416667      2.000000
  0.250000 -0.000000  0.416667      2.000000
  0.333333 -0.000000  0.416667      2.000000
  0.416667  0.000000  0.416667      2.000000
  0.500000  0.000000  0.416667      2.000000
 -0.416667  0.000000  0.416667      2.000000
 -0.333333  0.000000  0.416667      2.000000
 -0.250000  0.000000  0.416667      2.000000
 -0.166667  0.000000  0.416667      2.000000
 -0.083333  0.000000  0.416667      2.000000
 -0.000000  0.333333  0.416667      2.000000
  0.083333  0.333333  0.416667      2.000000
  0.166667  0.333333  0.416667      2.000000
  0.250000  0.333333  0.416667      2.000000
  0.333333  0.333333  0.416667      2.000000
  0.416667  0.333333  0.416667      2.000000
  0.500000  0.333333  0.416667      2.000000
 -0.416667  0.333333  0.416667      2.000000
 -0.333333  0.333333  0.416667      2.000000
 -0.250000  0.333333  0.416667      2.000000
 -0.166667  0.333333  0.416667      2.000000
 -0.083333  0.333333  0.416667      2.000000
  0.000000 -0.333333  0.416667      2.000000
  0.083333 -0.333333  0.416667      2.000000
  0.166667 -0.333333  0.416667      2.000000
  0.250000 -0.333333  0.416667      2.000000
  0.333333 -0.333333  0.416667      2.000000
  0.416667 -0.333333  0.416667      2.000000
  0.500000 -0.333333  0.416667      2.000000
 -0.416667 -0.333333  0.416667      2.000000
 -0.333333 -0.333333  0.416667      2.000000
 -0.250000 -0.333333  0.416667      2.000000
 -0.166667 -0.333333  0.416667      2.000000
 -0.083333 -0.333333  0.416667      2.000000
 -0.000000  0.000000  0.500000      1.000000
  0.083333  0.000000  0.500000      2.000000
  0.166667 -0.000000  0.500000      2.000000
  0.250000  0.000000  0.500000      2.000000
  0.333333 -0.000000  0.500000      2.000000
  0.416667  0.000000  0.500000      2.000000
  0.500000  0.000000  0.500000      1.000000
 -0.000000  0.333333  0.500000      2.000000
  0.083333  0.333333  0.500000      2.000000
  0.166667  0.333333  0.500000      2.000000
  0.250000  0.333333  0.500000      2.000000
  0.333333  0.333333  0.500000      2.000000
  0.416667  0.333333  0.500000      2.000000
  0.500000  0.333333  0.500000      2.000000
 -0.416667  0.333333  0.500000      2.000000
 -0.333333  0.333333  0.500000      2.000000
 -0.250000  0.333333  0.500000      2.000000
 -0.166667  0.333333  0.500000      2.000000
 -0.083333  0.333333  0.500000      2.000000
 
 Following cartesian coordinates:
            Coordinates               Weight
  0.000000  0.000000  0.000000      1.000000
 -0.023243  0.013420 -0.004718      2.000000
 -0.046485  0.026839 -0.009435      2.000000
 -0.069728  0.040259 -0.014153      2.000000
 -0.092971  0.053679 -0.018870      2.000000
 -0.116213  0.067098 -0.023588      2.000000
 -0.139456  0.080518 -0.028305      1.000000
  0.000003 -0.000001  0.028289      2.000000
 -0.023240  0.013419  0.023571      2.000000
 -0.046482  0.026838  0.018854      2.000000
 -0.069725  0.040258  0.014136      2.000000
 -0.092968  0.053678  0.009419      2.000000
 -0.116210  0.067097  0.004701      2.000000
 -0.139453  0.080517 -0.000016      2.000000
  0.116217 -0.067099  0.051877      2.000000
  0.092974 -0.053680  0.047159      2.000000
  0.069731 -0.040260  0.042442      2.000000
  0.046489 -0.026840  0.037724      2.000000
  0.023246 -0.013421  0.033006      2.000000
  0.023245  0.013423  0.002359      2.000000
  0.000002  0.026843 -0.002359      2.000000
 -0.023240  0.040262 -0.007076      2.000000
 -0.046483  0.053682 -0.011794      2.000000
 -0.069726  0.067102 -0.016511      2.000000
 -0.092968  0.080521 -0.021229      2.000000
 -0.116211  0.093941 -0.025946      2.000000
  0.139458 -0.053675  0.025947      2.000000
  0.116216 -0.040256  0.021229      2.000000
  0.092973 -0.026836  0.016512      2.000000
  0.069730 -0.013416  0.011794      2.000000
  0.046488  0.000003  0.007077      2.000000
  0.023248  0.013422  0.030648      2.000000
  0.000005  0.026842  0.025930      2.000000
 -0.023237  0.040261  0.021213      2.000000
 -0.046480  0.053681  0.016495      2.000000
 -0.069723  0.067101  0.011778      2.000000
 -0.092965  0.080520  0.007060      2.000000
 -0.116208  0.093940  0.002343      2.000000
  0.139462 -0.053676  0.054236      2.000000
  0.116219 -0.040257  0.049518      2.000000
  0.092976 -0.026837  0.044801      2.000000
  0.069734 -0.013417  0.040083      2.000000
  0.046491  0.000002  0.035366      2.000000
  0.023242  0.013424 -0.025930      2.000000
 -0.000001  0.026844 -0.030647      2.000000
 -0.023244  0.040263 -0.035365      2.000000
 -0.046486  0.053683 -0.040083      2.000000
 -0.069729  0.067103 -0.044800      2.000000
 -0.092972  0.080522 -0.049518      2.000000
 -0.116214  0.093942 -0.054235      2.000000
  0.139455 -0.053674 -0.002342      2.000000
  0.116213 -0.040255 -0.007060      2.000000
  0.092970 -0.026835 -0.011777      2.000000
  0.069727 -0.013415 -0.016495      2.000000
  0.046485  0.000004 -0.021212      2.000000
  0.046490  0.026846  0.004718      2.000000
  0.023247  0.040266  0.000001      2.000000
  0.000005  0.053685 -0.004717      2.000000
 -0.023238  0.067105 -0.009435      2.000000
 -0.046481  0.080525 -0.014152      2.000000
 -0.069723  0.093944 -0.018870      2.000000
 -0.092966  0.107364 -0.023587      2.000000
  0.162703 -0.040252  0.028306      2.000000
  0.139461 -0.026833  0.023588      2.000000
  0.116218 -0.013413  0.018871      2.000000
  0.092975  0.000007  0.014153      2.000000
  0.069733  0.013426  0.009436      2.000000
  0.046493  0.026845  0.033007      2.000000
  0.023250  0.040265  0.028289      2.000000
  0.000008  0.053684  0.023572      2.000000
 -0.023235  0.067104  0.018854      2.000000
 -0.046478  0.080524  0.014137      2.000000
 -0.069720  0.093943  0.009419      2.000000
 -0.092963  0.107363  0.004702      2.000000
  0.162707 -0.040253  0.056595      2.000000
  0.139464 -0.026834  0.051877      2.000000
  0.116221 -0.013414  0.047160      2.000000
  0.092979  0.000006  0.042442      2.000000
  0.069736  0.013425  0.037725      2.000000
  0.046487  0.026847 -0.023571      2.000000
  0.023244  0.040267 -0.028288      2.000000
  0.000002  0.053686 -0.033006      2.000000
 -0.023241  0.067106 -0.037723      2.000000
 -0.046484  0.080525 -0.042441      2.000000
 -0.069727  0.093945 -0.047159      2.000000
 -0.092969  0.107365 -0.051876      2.000000
  0.162700 -0.040251  0.000017      2.000000
  0.139458 -0.026832 -0.004701      2.000000
  0.116215 -0.013412 -0.009418      2.000000
  0.092972  0.000008 -0.014136      2.000000
  0.069730  0.013427 -0.018853      2.000000
  0.069735  0.040269  0.007077      2.000000
  0.046492  0.053689  0.002360      2.000000
  0.023250  0.067108 -0.002358      2.000000
  0.000007  0.080528 -0.007076      2.000000
 -0.023236  0.093948 -0.011793      2.000000
 -0.046478  0.107367 -0.016511      2.000000
 -0.069721  0.120787 -0.021228      2.000000
  0.185949 -0.026829  0.030665      2.000000
  0.162706 -0.013410  0.025947      2.000000
  0.139463  0.000010  0.021230      2.000000
  0.116220  0.013430  0.016512      2.000000
  0.092978  0.026849  0.011795      2.000000
  0.069738  0.040268  0.035366      2.000000
  0.046495  0.053688  0.030649      2.000000
  0.023253  0.067107  0.025931      2.000000
  0.000010  0.080527  0.021213      2.000000
 -0.023233  0.093947  0.016496      2.000000
 -0.046475  0.107366  0.011778      2.000000
 -0.069718  0.120786  0.007061      2.000000
  0.185952 -0.026830  0.058954      2.000000
  0.162709 -0.013411  0.054236      2.000000
  0.139466  0.000009  0.049519      2.000000
  0.116224  0.013429  0.044801      2.000000
  0.092981  0.026848  0.040084      2.000000
  0.069732  0.040270 -0.021212      2.000000
  0.046489  0.053689 -0.025929      2.000000
  0.023247  0.067109 -0.030647      2.000000
  0.000004  0.080529 -0.035364      2.000000
 -0.023239  0.093948 -0.040082      2.000000
 -0.046482  0.107368 -0.044800      2.000000
 -0.069724  0.120788 -0.049517      2.000000
  0.185945 -0.026828  0.002376      2.000000
  0.162703 -0.013409 -0.002342      2.000000
  0.139460  0.000011 -0.007059      2.000000
  0.116217  0.013431 -0.011777      2.000000
  0.092975  0.026850 -0.016494      2.000000
  0.092980  0.053692  0.009436      2.000000
  0.069737  0.067112  0.004719      2.000000
  0.046495  0.080531  0.000001      2.000000
  0.023252  0.093951 -0.004716      2.000000
  0.000009  0.107370 -0.009434      2.000000
 -0.023233  0.120790 -0.014152      2.000000
 -0.046476  0.134210 -0.018869      2.000000
  0.209194 -0.013406  0.033024      2.000000
  0.185951  0.000013  0.028306      2.000000
  0.162708  0.013433  0.023589      2.000000
  0.139465  0.026853  0.018871      2.000000
  0.116223  0.040272  0.014154      2.000000
  0.092983  0.053691  0.037725      2.000000
  0.069740  0.067111  0.033008      2.000000
  0.046498  0.080530  0.028290      2.000000
  0.023255  0.093950  0.023572      2.000000
  0.000012  0.107370  0.018855      2.000000
 -0.023230  0.120789  0.014137      2.000000
 -0.046473  0.134209  0.009420      2.000000
  0.209197 -0.013407  0.061313      2.000000
  0.185954  0.000012  0.056595      2.000000
  0.162711  0.013432  0.051878      2.000000
  0.139469  0.026852  0.047160      2.000000
  0.116226  0.040271  0.042443      2.000000
  0.092977  0.053693 -0.018853      2.000000
  0.069734  0.067112 -0.023570      2.000000
  0.046492  0.080532 -0.028288      2.000000
  0.023249  0.093952 -0.033005      2.000000
  0.000006  0.107371 -0.037723      2.000000
 -0.023237  0.120791 -0.042440      2.000000
 -0.046479  0.134211 -0.047158      2.000000
  0.209190 -0.013406  0.004735      2.000000
  0.185948  0.000014  0.000017      2.000000
  0.162705  0.013434 -0.004700      2.000000
  0.139462  0.026853 -0.009418      2.000000
  0.116220  0.040273 -0.014135      2.000000
  0.116225  0.067115  0.011795      2.000000
  0.092982  0.080534  0.007078      2.000000
  0.069740  0.093954  0.002360      2.000000
  0.046497  0.107374 -0.002357      2.000000
  0.023254  0.120793 -0.007075      2.000000
  0.000012  0.134213 -0.011793      2.000000
 -0.023231  0.147633 -0.016510      2.000000
  0.232439  0.000017  0.035383      2.000000
  0.209196  0.013436  0.030665      2.000000
  0.185953  0.026856  0.025948      2.000000
  0.162710  0.040276  0.021230      2.000000
  0.139468  0.053695  0.016513      2.000000
  0.116228  0.067114  0.040084      2.000000
  0.092985  0.080534  0.035367      2.000000
  0.069743  0.093953  0.030649      2.000000
  0.046500  0.107373  0.025932      2.000000
  0.023257  0.120793  0.021214      2.000000
  0.000015  0.134212  0.016496      2.000000
 -0.023228  0.147632  0.011779      2.000000
  0.232442  0.000016  0.063672      2.000000
  0.209199  0.013435  0.058954      2.000000
  0.185956  0.026855  0.054237      2.000000
  0.162714  0.040275  0.049519      2.000000
  0.139471  0.053694  0.044802      2.000000
  0.116222  0.067116 -0.016494      2.000000
  0.092979  0.080535 -0.021211      2.000000
  0.069737  0.093955 -0.025929      2.000000
  0.046494  0.107375 -0.030646      2.000000
  0.023251  0.120794 -0.035364      2.000000
  0.000008  0.134214 -0.040081      2.000000
 -0.023234  0.147634 -0.044799      2.000000
  0.232435  0.000017  0.007094      2.000000
  0.209193  0.013437  0.002376      2.000000
  0.185950  0.026857 -0.002341      2.000000
  0.162707  0.040276 -0.007059      2.000000
  0.139465  0.053696 -0.011776      2.000000
  0.139470  0.080538  0.014154      1.000000
  0.116227  0.093957  0.009437      2.000000
  0.092985  0.107377  0.004719      2.000000
  0.069742  0.120797  0.000002      2.000000
  0.046499  0.134216 -0.004716      2.000000
  0.023257  0.147636 -0.009433      2.000000
  0.000014  0.161056 -0.014151      1.000000
  0.139473  0.080537  0.042443      2.000000
  0.116230  0.093957  0.037726      2.000000
  0.092988  0.107376  0.033008      2.000000
  0.069745  0.120796  0.028291      2.000000
  0.046502  0.134215  0.023573      2.000000
  0.023260  0.147635  0.018855      2.000000
  0.000017  0.161055  0.014138      2.000000
  0.255687  0.013439  0.066031      2.000000
  0.232444  0.026858  0.061313      2.000000
  0.209201  0.040278  0.056596      2.000000
  0.185959  0.053698  0.051878      2.000000
  0.162716  0.067117  0.047161      2.000000
 
 TETIRR: Found   1296 inequivalent tetrahedra from     2592


--------------------------------------------------------------------------------------------------------




 Dimension of arrays:
   k-points           NKPTS =    218   k-points in BZ     NKDIM =    218   number of bands    NBANDS=     56
   number of dos      NEDOS =    301   number of ions     NIONS =      8
   non local maximal  LDIM  =      8   non local SUM 2l+1 LMDIM =     32
   total plane-waves  NPLWV =  70560
   max r-space proj   IRMAX =   9759   max aug-charges    IRDMAX=  30953
   dimension x,y,z NGX =    28 NGY =   90 NGZ =   28
   dimension x,y,z NGXF=    56 NGYF=  180 NGZF=   56
   support grid    NGXF=    56 NGYF=  180 NGZF=   56
   ions per type =               4   4
   NGX,Y,Z   is equivalent  to a cutoff of  12.98, 12.51, 12.99 a.u.
   NGXF,Y,Z  is equivalent  to a cutoff of  25.97, 25.01, 25.97 a.u.

 SYSTEM =  unknown system                          
 POSCAR =  Eu4 O4                                  

 Startparameter for this run:
   NWRITE =      2    write-flag & timer
   PREC   = accura    normal or accurate (medium, high low for compatibility)
   ISTART =      0    job   : 0-new  1-cont  2-samecut
   ICHARG =      2    charge: 1-file 2-atom 10-const
   ISPIN  =      2    spin polarized calculation?
   LNONCOLLINEAR =      F non collinear calculations
   LSORBIT =      F    spin-orbit coupling
   INIWAV =      1    electr: 0-lowe 1-rand  2-diag
   LASPH  =      T    aspherical Exc in radial PAW
   METAGGA=      F    non-selfconsistent MetaGGA calc.

 Electronic Relaxation 1
   ENCUT  =  520.0 eV  38.22 Ry    6.18 a.u.   6.67 22.25  6.67*2*pi/ulx,y,z
   ENINI  =  520.0     initial cutoff
   ENAUG  =  605.4 eV  augmentation charge cutoff
   NELM   =    120;   NELMIN=  2; NELMDL=  0     # of ELM steps 
   EDIFF  = 0.1E-05   stopping-criterion for ELM
   LREAL  =      T    real-space projection
   NLSPLINE    = F    spline interpolate recip. space projectors
   LCOMPAT=      F    compatible to vasp.4.4
   GGA_COMPAT  = T    GGA compatible to vasp.4.4-vasp.4.6
   LMAXPAW     = -100 max onsite density
   LMAXMIX     =    4 max onsite mixed and CHGCAR
   VOSKOWN=      0    Vosko Wilk Nusair interpolation
   ROPT   =   -0.00025  -0.00025
 Ionic relaxation
   EDIFFG = 0.1E-04   stopping-criterion for IOM
   NSW    =      0    number of steps for IOM
   NBLOCK =      1;   KBLOCK =      1    inner block; outer block 
   IBRION =     -1    ionic relax: 0-MD 1-quasi-New 2-CG
   NFREE  =      0    steps in history (QN), initial steepest desc. (CG)
   ISIF   =      3    stress and relaxation
   IWAVPR =     10    prediction:  0-non 1-charg 2-wave 3-comb
   ISYM   =      2    0-nonsym 1-usesym 2-fastsym
   LCORR  =      T    Harris-Foulkes like correction to forces

   POTIM  = 0.5000    time-step for ionic-motion
   TEIN   =    0.0    initial temperature
   TEBEG  =    0.0;   TEEND  =   0.0 temperature during run
   SMASS  =  -3.00    Nose mass-parameter (am)
   estimated Nose-frequenzy (Omega)   =  0.10E-29 period in steps =****** mass=  -0.294E-27a.u.
   SCALEE = 1.0000    scale energy and forces
   NPACO  =    256;   APACO  = 16.0  distance and # of slots for P.C.
   PSTRESS=    0.0 pullay stress

  Mass of Ions in am
   POMASS = 151.97 16.00
  Ionic Valenz
   ZVAL   =  17.00  6.00
  Atomic Wigner-Seitz radii
   RWIGS  =  -1.00 -1.00
  virtual crystal weights 
   VCA    =   1.00  1.00
   NELECT =      92.0000    total number of electrons
   NUPDOWN=      -1.0000    fix difference up-down

 DOS related values:
   EMIN   =  10.00;   EMAX   =-10.00  energy-range for DOS
   EFERMI =   0.00
   ISMEAR =    -5;   SIGMA  =   0.05  broadening in eV -4-tet -1-fermi 0-gaus

 Electronic relaxation 2 (details)
   IALGO  =     38    algorithm
   LDIAG  =      T    sub-space diagonalisation (order eigenvalues)
   LSUBROT=      F    optimize rotation matrix (better conditioning)
   TURBO    =      0    0=normal 1=particle mesh
   IRESTART =      0    0=no restart 2=restart with 2 vectors
   NREBOOT  =      0    no. of reboots
   NMIN     =      0    reboot dimension
   EREF     =   0.00    reference energy to select bands
   IMIX   =      4    mixing-type and parameters
     AMIX     =   0.40;   BMIX     =  1.00
     AMIX_MAG =   1.60;   BMIX_MAG =  1.00
     AMIN     =   0.10
     WC   =   100.;   INIMIX=   1;  MIXPRE=   1;  MAXMIX= -45

 Intra band minimization:
   WEIMIN = 0.0000     energy-eigenvalue tresh-hold
   EBREAK =  0.45E-08  absolut break condition
   DEPER  =   0.30     relativ break condition  

   TIME   =   0.40     timestep for ELM

  volume/ion in A,a.u.               =      16.39       110.63
  Fermi-wavevector in a.u.,A,eV,Ry     =   1.454607  2.748810 28.788334  2.115883
  Thomas-Fermi vector in A             =   2.571738
 
 Write flags
   LWAVE        =      F    write WAVECAR
   LDOWNSAMPLE  =      F    k-point downsampling of WAVECAR
   LCHARG       =      F    write CHGCAR
   LVTOT        =      F    write LOCPOT, total local potential
   LVHAR        =      F    write LOCPOT, Hartree potential only
   LELF         =      F    write electronic localiz. function (ELF)
   LORBIT       =     11    0 simple, 1 ext, 2 COOP (PROOUT), +10 PAW based schemes


 Dipole corrections
   LMONO  =      F    monopole corrections only (constant potential shift)
   LDIPOL =      F    correct potential (dipole corrections)
   IDIPOL =      0    1-x, 2-y, 3-z, 4-all directions 
   EPSILON=  1.0000000 bulk dielectric constant

 Exchange correlation treatment:
   GGA     =    --    GGA type
   LEXCH   =     8    internal setting for exchange type
   VOSKOWN=      0    Vosko Wilk Nusair interpolation
   LHFCALC =     F    Hartree Fock is set to
   LHFONE  =     F    Hartree Fock one center treatment
   AEXX    =    0.0000 exact exchange contribution

 Linear response parameters
   LEPSILON=     F    determine dielectric tensor
   LRPA    =     F    only Hartree local field effects (RPA)
   LNABLA  =     F    use nabla operator in PAW spheres
   LVEL    =     F    velocity operator in full k-point grid
   LINTERFAST=   F  fast interpolation
   KINTER  =     0    interpolate to denser k-point grid
   CSHIFT  =0.1000    complex shift for real part using Kramers Kronig
   OMEGAMAX=  -1.0    maximum frequency
   DEG_THRESHOLD= 0.2000000E-02 threshold for treating states as degnerate
   RTIME   =   -0.100 relaxation time in fs
  (WPLASMAI=    0.000 imaginary part of plasma frequency in eV, 0.658/RTIME)
   DFIELD  = 0.0000000 0.0000000 0.0000000 field for delta impulse in time
 
 Orbital magnetization related:
   ORBITALMAG=     F  switch on orbital magnetization
   LCHIMAG   =     F  perturbation theory with respect to B field
   DQ        =  0.001000  dq finite difference perturbation B field
   LLRAUG    =     F  two centre corrections for induced B field



--------------------------------------------------------------------------------------------------------


 Static calculation
 charge density and potential will be updated during run
 spin polarized calculation
 Variant of blocked Davidson
 Davidson routine will perform the subspace rotation
 perform sub-space diagonalisation
    after iterative eigenvector-optimisation
 modified Broyden-mixing scheme, WC =      100.0
 initial mixing is a Kerker type mixing with AMIX =  0.4000 and BMIX =      1.0000
 Hartree-type preconditioning will be used
 using additional bands           10
 real space projection scheme for non local part
 use partial core corrections
 calculate Harris-corrections to forces 
   (improved forces if not selfconsistent)
 use gradient corrections 
 use of overlap-Matrix (Vanderbilt PP)
 Fermi weights with tetrahedron method with Bloechl corrections


--------------------------------------------------------------------------------------------------------


  energy-cutoff  :      520.00
  volume of cell :      131.15
      direct lattice vectors                 reciprocal lattice vectors
    -1.792855106  3.104696270  0.000299989    -0.278912331  0.161035909 -0.056610369
    -1.793793371  1.035491404 11.783395812     0.000009377 -0.000002785  0.084866852
     1.792382526  3.104351987 -0.000096156     0.278940135  0.161075580  0.028308358

  length of vectors
     3.585173420 11.964044215  3.584638948     0.327000590  0.084866852  0.323348581


 
 k-points in units of 2pi/SCALE and weight: pymatgen v2019.10.16 with grid density =
   0.00000000  0.00000000  0.00000000       0.002
  -0.02324269  0.01341966 -0.00471753       0.005
  -0.04648539  0.02683932 -0.00943506       0.005
  -0.06972808  0.04025898 -0.01415259       0.005
  -0.09297078  0.05367864 -0.01887012       0.005
  -0.11621347  0.06709830 -0.02358765       0.005
  -0.13945617  0.08051795 -0.02830518       0.002
   0.00000313 -0.00000093  0.02828895       0.005
  -0.02323957  0.01341873  0.02357142       0.005
  -0.04648226  0.02683839  0.01885389       0.005
  -0.06972496  0.04025805  0.01413636       0.005
  -0.09296765  0.05367771  0.00941883       0.005
  -0.11621035  0.06709737  0.00470130       0.005
  -0.13945304  0.08051703 -0.00001623       0.005
   0.11621660 -0.06709922  0.05187660       0.005
   0.09297390 -0.05367956  0.04715907       0.005
   0.06973121 -0.04025991  0.04244154       0.005
   0.04648851 -0.02684025  0.03772401       0.005
   0.02324582 -0.01342059  0.03300648       0.005
   0.02324501  0.01342297  0.00235903       0.005
   0.00000232  0.02684262 -0.00235850       0.005
  -0.02324038  0.04026228 -0.00707603       0.005
  -0.04648307  0.05368194 -0.01179356       0.005
  -0.06972577  0.06710160 -0.01651109       0.005
  -0.09296846  0.08052126 -0.02122862       0.005
  -0.11621115  0.09394092 -0.02594615       0.005
   0.13945848 -0.05367533  0.02594668       0.005
   0.11621579 -0.04025567  0.02122915       0.005
   0.09297309 -0.02683601  0.01651162       0.005
   0.06973040 -0.01341635  0.01179409       0.005
   0.04648771  0.00000331  0.00707656       0.005
   0.02324814  0.01342204  0.03064798       0.005
   0.00000544  0.02684170  0.02593045       0.005
  -0.02323725  0.04026135  0.02121292       0.005
  -0.04647995  0.05368101  0.01649539       0.005
  -0.06972264  0.06710067  0.01177786       0.005
  -0.09296533  0.08052033  0.00706033       0.005
  -0.11620803  0.09393999  0.00234280       0.005
   0.13946161 -0.05367626  0.05423563       0.005
   0.11621891 -0.04025660  0.04951810       0.005
   0.09297622 -0.02683694  0.04480057       0.005
   0.06973353 -0.01341728  0.04008304       0.005
   0.04649083  0.00000238  0.03536551       0.005
   0.02324189  0.01342389 -0.02592992       0.005
  -0.00000081  0.02684355 -0.03064745       0.005
  -0.02324350  0.04026321 -0.03536498       0.005
  -0.04648620  0.05368287 -0.04008251       0.005
  -0.06972889  0.06710253 -0.04480004       0.005
  -0.09297159  0.08052219 -0.04951757       0.005
  -0.11621428  0.09394185 -0.05423511       0.005
   0.13945536 -0.05367440 -0.00234227       0.005
   0.11621266 -0.04025474 -0.00705980       0.005
   0.09296997 -0.02683508 -0.01177733       0.005
   0.06972727 -0.01341542 -0.01649486       0.005
   0.04648458  0.00000423 -0.02121239       0.005
   0.04649002  0.02684593  0.00471806       0.005
   0.02324733  0.04026559  0.00000053       0.005
   0.00000463  0.05368525 -0.00471700       0.005
  -0.02323806  0.06710491 -0.00943453       0.005
  -0.04648075  0.08052457 -0.01415206       0.005
  -0.06972345  0.09394423 -0.01886959       0.005
  -0.09296614  0.10736388 -0.02358713       0.005
   0.16270349 -0.04025237  0.02830571       0.005
   0.13946080 -0.02683271  0.02358818       0.005
   0.11621811 -0.01341305  0.01887065       0.005
   0.09297541  0.00000661  0.01415312       0.005
   0.06973272  0.01342627  0.00943559       0.005
   0.04649315  0.02684500  0.03300701       0.005
   0.02325045  0.04026466  0.02828948       0.005
   0.00000776  0.05368432  0.02357195       0.005
  -0.02323493  0.06710398  0.01885442       0.005
  -0.04647763  0.08052364  0.01413689       0.005
  -0.06972032  0.09394330  0.00941936       0.005
  -0.09296302  0.10736296  0.00470183       0.005
   0.16270662 -0.04025329  0.05659466       0.005
   0.13946393 -0.02683363  0.05187713       0.005
   0.11622123 -0.01341398  0.04715960       0.005
   0.09297854  0.00000568  0.04244207       0.005
   0.06973584  0.01342534  0.03772454       0.005
   0.04648690  0.02684686 -0.02357089       0.005
   0.02324420  0.04026652 -0.02828842       0.005
   0.00000151  0.05368618 -0.03300595       0.005
  -0.02324119  0.06710584 -0.03772348       0.005
  -0.04648388  0.08052549 -0.04244101       0.005
  -0.06972657  0.09394515 -0.04715854       0.005
  -0.09296927  0.10736481 -0.05187608       0.005
   0.16270037 -0.04025144  0.00001676       0.005
   0.13945767 -0.02683178 -0.00470077       0.005
   0.11621498 -0.01341212 -0.00941830       0.005
   0.09297229  0.00000754 -0.01413583       0.005
   0.06972959  0.01342720 -0.01885336       0.005
   0.06973503  0.04026890  0.00707709       0.005
   0.04649234  0.05368855  0.00235956       0.005
   0.02324965  0.06710821 -0.00235797       0.005
   0.00000695  0.08052787 -0.00707550       0.005
  -0.02323574  0.09394753 -0.01179303       0.005
  -0.04647844  0.10736719 -0.01651056       0.005
  -0.06972113  0.12078685 -0.02122810       0.005
   0.18594850 -0.02682940  0.03066474       0.005
   0.16270581 -0.01340974  0.02594721       0.005
   0.13946312  0.00000992  0.02122968       0.005
   0.11622042  0.01342958  0.01651215       0.005
   0.09297773  0.02684924  0.01179462       0.005
   0.06973816  0.04026797  0.03536604       0.005
   0.04649547  0.05368763  0.03064851       0.005
   0.02325277  0.06710728  0.02593098       0.005
   0.00001008  0.08052694  0.02121345       0.005
  -0.02323262  0.09394660  0.01649592       0.005
  -0.04647531  0.10736626  0.01177839       0.005
  -0.06971801  0.12078592  0.00706086       0.005
   0.18595163 -0.02683033  0.05895369       0.005
   0.16270894 -0.01341067  0.05423616       0.005
   0.13946624  0.00000899  0.04951863       0.005
   0.11622355  0.01342865  0.04480110       0.005
   0.09298085  0.02684831  0.04008357       0.005
   0.06973191  0.04026982 -0.02121186       0.005
   0.04648921  0.05368948 -0.02592939       0.005
   0.02324652  0.06710914 -0.03064692       0.005
   0.00000383  0.08052880 -0.03536445       0.005
  -0.02323887  0.09394846 -0.04008198       0.005
  -0.04648156  0.10736812 -0.04479951       0.005
  -0.06972426  0.12078778 -0.04951705       0.005
   0.18594538 -0.02682847  0.00237579       0.005
   0.16270269 -0.01340881 -0.00234174       0.005
   0.13945999  0.00001085 -0.00705927       0.005
   0.11621730  0.01343051 -0.01177680       0.005
   0.09297460  0.02685016 -0.01649433       0.005
   0.09298005  0.05369186  0.00943612       0.005
   0.06973735  0.06711152  0.00471859       0.005
   0.04649466  0.08053118  0.00000106       0.005
   0.02325196  0.09395084 -0.00471647       0.005
   0.00000927  0.10737050 -0.00943400       0.005
  -0.02323343  0.12079016 -0.01415153       0.005
  -0.04647612  0.13420981 -0.01886907       0.005
   0.20919352 -0.01340644  0.03302377       0.005
   0.18595082  0.00001322  0.02830624       0.005
   0.16270813  0.01343288  0.02358871       0.005
   0.13946543  0.02685254  0.01887118       0.005
   0.11622274  0.04027220  0.01415365       0.005
   0.09298317  0.05369093  0.03772507       0.005
   0.06974048  0.06711059  0.03300754       0.005
   0.04649778  0.08053025  0.02829001       0.005
   0.02325509  0.09394991  0.02357248       0.005
   0.00001239  0.10736957  0.01885495       0.005
  -0.02323030  0.12078923  0.01413742       0.005
  -0.04647299  0.13420889  0.00941989       0.005
   0.20919664 -0.01340736  0.06131272       0.005
   0.18595395  0.00001230  0.05659519       0.005
   0.16271125  0.01343195  0.05187766       0.005
   0.13946856  0.02685161  0.04716013       0.005
   0.11622586  0.04027127  0.04244260       0.005
   0.09297692  0.05369279 -0.01885283       0.005
   0.06973423  0.06711245 -0.02357036       0.005
   0.04649153  0.08053211 -0.02828789       0.005
   0.02324884  0.09395177 -0.03300542       0.005
   0.00000614  0.10737142 -0.03772295       0.005
  -0.02323655  0.12079108 -0.04244049       0.005
  -0.04647925  0.13421074 -0.04715802       0.005
   0.20919039 -0.01340551  0.00473482       0.005
   0.18594770  0.00001415  0.00001729       0.005
   0.16270500  0.01343381 -0.00470024       0.005
   0.13946231  0.02685347 -0.00941777       0.005
   0.11621961  0.04027313 -0.01413530       0.005
   0.11622506  0.06711483  0.01179515       0.005
   0.09298236  0.08053448  0.00707762       0.005
   0.06973967  0.09395414  0.00236009       0.005
   0.04649697  0.10737380 -0.00235744       0.005
   0.02325428  0.12079346 -0.00707497       0.005
   0.00001159  0.13421312 -0.01179250       0.005
  -0.02323111  0.14763278 -0.01651004       0.005
   0.23243853  0.00001653  0.03538280       0.005
   0.20919583  0.01343619  0.03066527       0.005
   0.18595314  0.02685585  0.02594774       0.005
   0.16271044  0.04027551  0.02123021       0.005
   0.13946775  0.05369517  0.01651268       0.005
   0.11622818  0.06711390  0.04008410       0.005
   0.09298549  0.08053356  0.03536657       0.005
   0.06974279  0.09395321  0.03064904       0.005
   0.04650010  0.10737287  0.02593151       0.005
   0.02325741  0.12079253  0.02121398       0.005
   0.00001471  0.13421219  0.01649645       0.005
  -0.02322798  0.14763185  0.01177892       0.005
   0.23244165  0.00001560  0.06367175       0.005
   0.20919896  0.01343526  0.05895422       0.005
   0.18595626  0.02685492  0.05423669       0.005
   0.16271357  0.04027458  0.04951916       0.005
   0.13947088  0.05369424  0.04480163       0.005
   0.11622193  0.06711575 -0.01649380       0.005
   0.09297924  0.08053541 -0.02121133       0.005
   0.06973654  0.09395507 -0.02592886       0.005
   0.04649385  0.10737473 -0.03064639       0.005
   0.02325115  0.12079439 -0.03536392       0.005
   0.00000846  0.13421405 -0.04008146       0.005
  -0.02323423  0.14763371 -0.04479899       0.005
   0.23243540  0.00001746  0.00709385       0.005
   0.20919271  0.01343712  0.00237632       0.005
   0.18595001  0.02685678 -0.00234121       0.005
   0.16270732  0.04027644 -0.00705874       0.005
   0.13946462  0.05369609 -0.01177627       0.005
   0.13947007  0.08053779  0.01415418       0.002
   0.11622737  0.09395745  0.00943665       0.005
   0.09298468  0.10737711  0.00471912       0.005
   0.06974198  0.12079677  0.00000159       0.005
   0.04649929  0.13421643 -0.00471594       0.005
   0.02325660  0.14763609 -0.00943347       0.005
   0.00001390  0.16105574 -0.01415101       0.002
   0.13947319  0.08053686  0.04244313       0.005
   0.11623050  0.09395652  0.03772560       0.005
   0.09298780  0.10737618  0.03300807       0.005
   0.06974511  0.12079584  0.02829054       0.005
   0.04650242  0.13421550  0.02357301       0.005
   0.02325972  0.14763516  0.01885548       0.005
   0.00001703  0.16105482  0.01413794       0.005
   0.25568666  0.01343857  0.06603078       0.005
   0.23244397  0.02685823  0.06131325       0.005
   0.20920128  0.04027788  0.05659572       0.005
   0.18595858  0.05369754  0.05187819       0.005
   0.16271589  0.06711720  0.04716066       0.005
 
 k-points in reciprocal lattice and weights: pymatgen v2019.10.16 with grid density =
   0.00000000  0.00000000  0.00000000       0.002
   0.08333333  0.00000000 -0.00000000       0.005
   0.16666667  0.00000000 -0.00000000       0.005
   0.25000000  0.00000000 -0.00000000       0.005
   0.33333333 -0.00000000 -0.00000000       0.005
   0.41666667  0.00000000 -0.00000000       0.005
   0.50000000  0.00000000 -0.00000000       0.002
   0.00000000  0.33333333  0.00000000       0.005
   0.08333333  0.33333333 -0.00000000       0.005
   0.16666667  0.33333333 -0.00000000       0.005
   0.25000000  0.33333333  0.00000000       0.005
   0.33333333  0.33333333 -0.00000000       0.005
   0.41666667  0.33333333 -0.00000000       0.005
   0.50000000  0.33333333 -0.00000000       0.005
  -0.41666667  0.33333333  0.00000000       0.005
  -0.33333333  0.33333333  0.00000000       0.005
  -0.25000000  0.33333333  0.00000000       0.005
  -0.16666667  0.33333333  0.00000000       0.005
  -0.08333333  0.33333333  0.00000000       0.005
  -0.00000000  0.00000000  0.08333333       0.005
   0.08333333  0.00000000  0.08333333       0.005
   0.16666667  0.00000000  0.08333333       0.005
   0.25000000  0.00000000  0.08333333       0.005
   0.33333333  0.00000000  0.08333333       0.005
   0.41666667  0.00000000  0.08333333       0.005
   0.50000000  0.00000000  0.08333333       0.005
  -0.41666667 -0.00000000  0.08333333       0.005
  -0.33333333  0.00000000  0.08333333       0.005
  -0.25000000  0.00000000  0.08333333       0.005
  -0.16666667  0.00000000  0.08333333       0.005
  -0.08333333  0.00000000  0.08333333       0.005
  -0.00000000  0.33333333  0.08333333       0.005
   0.08333333  0.33333333  0.08333333       0.005
   0.16666667  0.33333333  0.08333333       0.005
   0.25000000  0.33333333  0.08333333       0.005
   0.33333333  0.33333333  0.08333333       0.005
   0.41666667  0.33333333  0.08333333       0.005
   0.50000000  0.33333333  0.08333333       0.005
  -0.41666667  0.33333333  0.08333333       0.005
  -0.33333333  0.33333333  0.08333333       0.005
  -0.25000000  0.33333333  0.08333333       0.005
  -0.16666667  0.33333333  0.08333333       0.005
  -0.08333333  0.33333333  0.08333333       0.005
  -0.00000000 -0.33333333  0.08333333       0.005
   0.08333333 -0.33333333  0.08333333       0.005
   0.16666667 -0.33333333  0.08333333       0.005
   0.25000000 -0.33333333  0.08333333       0.005
   0.33333333 -0.33333333  0.08333333       0.005
   0.41666667 -0.33333333  0.08333333       0.005
   0.50000000 -0.33333333  0.08333333       0.005
  -0.41666667 -0.33333333  0.08333333       0.005
  -0.33333333 -0.33333333  0.08333333       0.005
  -0.25000000 -0.33333333  0.08333333       0.005
  -0.16666667 -0.33333333  0.08333333       0.005
  -0.08333333 -0.33333333  0.08333333       0.005
  -0.00000000  0.00000000  0.16666667       0.005
   0.08333333 -0.00000000  0.16666667       0.005
   0.16666667 -0.00000000  0.16666667       0.005
   0.25000000  0.00000000  0.16666667       0.005
   0.33333333  0.00000000  0.16666667       0.005
   0.41666667  0.00000000  0.16666667       0.005
   0.50000000  0.00000000  0.16666667       0.005
  -0.41666667 -0.00000000  0.16666667       0.005
  -0.33333333  0.00000000  0.16666667       0.005
  -0.25000000  0.00000000  0.16666667       0.005
  -0.16666667  0.00000000  0.16666667       0.005
  -0.08333333 -0.00000000  0.16666667       0.005
  -0.00000000  0.33333333  0.16666667       0.005
   0.08333333  0.33333333  0.16666667       0.005
   0.16666667  0.33333333  0.16666667       0.005
   0.25000000  0.33333333  0.16666667       0.005
   0.33333333  0.33333333  0.16666667       0.005
   0.41666667  0.33333333  0.16666667       0.005
   0.50000000  0.33333333  0.16666667       0.005
  -0.41666667  0.33333333  0.16666667       0.005
  -0.33333333  0.33333333  0.16666667       0.005
  -0.25000000  0.33333333  0.16666667       0.005
  -0.16666667  0.33333333  0.16666667       0.005
  -0.08333333  0.33333333  0.16666667       0.005
  -0.00000000 -0.33333333  0.16666667       0.005
   0.08333333 -0.33333333  0.16666667       0.005
   0.16666667 -0.33333333  0.16666667       0.005
   0.25000000 -0.33333333  0.16666667       0.005
   0.33333333 -0.33333333  0.16666667       0.005
   0.41666667 -0.33333333  0.16666667       0.005
   0.50000000 -0.33333333  0.16666667       0.005
  -0.41666667 -0.33333333  0.16666667       0.005
  -0.33333333 -0.33333333  0.16666667       0.005
  -0.25000000 -0.33333333  0.16666667       0.005
  -0.16666667 -0.33333333  0.16666667       0.005
  -0.08333333 -0.33333333  0.16666667       0.005
  -0.00000000  0.00000000  0.25000000       0.005
   0.08333333  0.00000000  0.25000000       0.005
   0.16666667 -0.00000000  0.25000000       0.005
   0.25000000  0.00000000  0.25000000       0.005
   0.33333333  0.00000000  0.25000000       0.005
   0.41666667  0.00000000  0.25000000       0.005
   0.50000000  0.00000000  0.25000000       0.005
  -0.41666667 -0.00000000  0.25000000       0.005
  -0.33333333  0.00000000  0.25000000       0.005
  -0.25000000  0.00000000  0.25000000       0.005
  -0.16666667  0.00000000  0.25000000       0.005
  -0.08333333  0.00000000  0.25000000       0.005
  -0.00000000  0.33333333  0.25000000       0.005
   0.08333333  0.33333333  0.25000000       0.005
   0.16666667  0.33333333  0.25000000       0.005
   0.25000000  0.33333333  0.25000000       0.005
   0.33333333  0.33333333  0.25000000       0.005
   0.41666667  0.33333333  0.25000000       0.005
   0.50000000  0.33333333  0.25000000       0.005
  -0.41666667  0.33333333  0.25000000       0.005
  -0.33333333  0.33333333  0.25000000       0.005
  -0.25000000  0.33333333  0.25000000       0.005
  -0.16666667  0.33333333  0.25000000       0.005
  -0.08333333  0.33333333  0.25000000       0.005
  -0.00000000 -0.33333333  0.25000000       0.005
   0.08333333 -0.33333333  0.25000000       0.005
   0.16666667 -0.33333333  0.25000000       0.005
   0.25000000 -0.33333333  0.25000000       0.005
   0.33333333 -0.33333333  0.25000000       0.005
   0.41666667 -0.33333333  0.25000000       0.005
   0.50000000 -0.33333333  0.25000000       0.005
  -0.41666667 -0.33333333  0.25000000       0.005
  -0.33333333 -0.33333333  0.25000000       0.005
  -0.25000000 -0.33333333  0.25000000       0.005
  -0.16666667 -0.33333333  0.25000000       0.005
  -0.08333333 -0.33333333  0.25000000       0.005
  -0.00000000  0.00000000  0.33333333       0.005
   0.08333333 -0.00000000  0.33333333       0.005
   0.16666667  0.00000000  0.33333333       0.005
   0.25000000 -0.00000000  0.33333333       0.005
   0.33333333 -0.00000000  0.33333333       0.005
   0.41666667  0.00000000  0.33333333       0.005
   0.50000000 -0.00000000  0.33333333       0.005
  -0.41666667  0.00000000  0.33333333       0.005
  -0.33333333 -0.00000000  0.33333333       0.005
  -0.25000000  0.00000000  0.33333333       0.005
  -0.16666667 -0.00000000  0.33333333       0.005
  -0.08333333  0.00000000  0.33333333       0.005
  -0.00000000  0.33333333  0.33333333       0.005
   0.08333333  0.33333333  0.33333333       0.005
   0.16666667  0.33333333  0.33333333       0.005
   0.25000000  0.33333333  0.33333333       0.005
   0.33333333  0.33333333  0.33333333       0.005
   0.41666667  0.33333333  0.33333333       0.005
   0.50000000  0.33333333  0.33333333       0.005
  -0.41666667  0.33333333  0.33333333       0.005
  -0.33333333  0.33333333  0.33333333       0.005
  -0.25000000  0.33333333  0.33333333       0.005
  -0.16666667  0.33333333  0.33333333       0.005
  -0.08333333  0.33333333  0.33333333       0.005
  -0.00000000 -0.33333333  0.33333333       0.005
   0.08333333 -0.33333333  0.33333333       0.005
   0.16666667 -0.33333333  0.33333333       0.005
   0.25000000 -0.33333333  0.33333333       0.005
   0.33333333 -0.33333333  0.33333333       0.005
   0.41666667 -0.33333333  0.33333333       0.005
   0.50000000 -0.33333333  0.33333333       0.005
  -0.41666667 -0.33333333  0.33333333       0.005
  -0.33333333 -0.33333333  0.33333333       0.005
  -0.25000000 -0.33333333  0.33333333       0.005
  -0.16666667 -0.33333333  0.33333333       0.005
  -0.08333333 -0.33333333  0.33333333       0.005
  -0.00000000  0.00000000  0.41666667       0.005
   0.08333333  0.00000000  0.41666667       0.005
   0.16666667  0.00000000  0.41666667       0.005
   0.25000000 -0.00000000  0.41666667       0.005
   0.33333333 -0.00000000  0.41666667       0.005
   0.41666667  0.00000000  0.41666667       0.005
   0.50000000  0.00000000  0.41666667       0.005
  -0.41666667  0.00000000  0.41666667       0.005
  -0.33333333  0.00000000  0.41666667       0.005
  -0.25000000  0.00000000  0.41666667       0.005
  -0.16666667  0.00000000  0.41666667       0.005
  -0.08333333  0.00000000  0.41666667       0.005
  -0.00000000  0.33333333  0.41666667       0.005
   0.08333333  0.33333333  0.41666667       0.005
   0.16666667  0.33333333  0.41666667       0.005
   0.25000000  0.33333333  0.41666667       0.005
   0.33333333  0.33333333  0.41666667       0.005
   0.41666667  0.33333333  0.41666667       0.005
   0.50000000  0.33333333  0.41666667       0.005
  -0.41666667  0.33333333  0.41666667       0.005
  -0.33333333  0.33333333  0.41666667       0.005
  -0.25000000  0.33333333  0.41666667       0.005
  -0.16666667  0.33333333  0.41666667       0.005
  -0.08333333  0.33333333  0.41666667       0.005
   0.00000000 -0.33333333  0.41666667       0.005
   0.08333333 -0.33333333  0.41666667       0.005
   0.16666667 -0.33333333  0.41666667       0.005
   0.25000000 -0.33333333  0.41666667       0.005
   0.33333333 -0.33333333  0.41666667       0.005
   0.41666667 -0.33333333  0.41666667       0.005
   0.50000000 -0.33333333  0.41666667       0.005
  -0.41666667 -0.33333333  0.41666667       0.005
  -0.33333333 -0.33333333  0.41666667       0.005
  -0.25000000 -0.33333333  0.41666667       0.005
  -0.16666667 -0.33333333  0.41666667       0.005
  -0.08333333 -0.33333333  0.41666667       0.005
  -0.00000000  0.00000000  0.50000000       0.002
   0.08333333  0.00000000  0.50000000       0.005
   0.16666667 -0.00000000  0.50000000       0.005
   0.25000000  0.00000000  0.50000000       0.005
   0.33333333 -0.00000000  0.50000000       0.005
   0.41666667  0.00000000  0.50000000       0.005
   0.50000000  0.00000000  0.50000000       0.002
  -0.00000000  0.33333333  0.50000000       0.005
   0.08333333  0.33333333  0.50000000       0.005
   0.16666667  0.33333333  0.50000000       0.005
   0.25000000  0.33333333  0.50000000       0.005
   0.33333333  0.33333333  0.50000000       0.005
   0.41666667  0.33333333  0.50000000       0.005
   0.50000000  0.33333333  0.50000000       0.005
  -0.41666667  0.33333333  0.50000000       0.005
  -0.33333333  0.33333333  0.50000000       0.005
  -0.25000000  0.33333333  0.50000000       0.005
  -0.16666667  0.33333333  0.50000000       0.005
  -0.08333333  0.33333333  0.50000000       0.005
 
 position of ions in fractional coordinates (direct lattice) 
   0.50036221  0.74945406  0.24981688
   0.99963779  0.50054594  0.50018312
   0.50033025  0.24947760  0.74984197
   0.99966975  0.00052240  0.00015803
   0.75000621  0.87499160  0.62499398
   0.25000000  0.62500000  0.87500000
   0.74999379  0.37500840  0.12500602
   0.25000000  0.12500000  0.37500000
 
 position of ions in cartesian coordinates  (Angst):
  -1.79367527  3.10504545  8.83123994
  -1.79356221  5.17462720  5.89838269
  -0.00052727  4.13947879  2.93977129
  -1.79291684  3.10470245  0.00645553
  -1.79397830  5.17478908 10.31053721
  -0.00099992  4.13966418  7.36461324
  -1.79325918  3.10488357  4.41908542
  -0.00029450  2.06974249  1.47296342
 


--------------------------------------------------------------------------------------------------------


 k-point  1 :   0.0000 0.0000 0.0000  plane waves:    3571
 k-point  2 :   0.0833 0.0000-0.0000  plane waves:    3548
 k-point  3 :   0.1667 0.0000-0.0000  plane waves:    3543
 k-point  4 :   0.2500 0.0000-0.0000  plane waves:    3526
 k-point  5 :   0.3333-0.0000-0.0000  plane waves:    3517
 k-point  6 :   0.4167 0.0000-0.0000  plane waves:    3534
 k-point  7 :   0.5000 0.0000-0.0000  plane waves:    3522
 k-point  8 :   0.0000 0.3333 0.0000  plane waves:    3560
 k-point  9 :   0.0833 0.3333-0.0000  plane waves:    3564
 k-point 10 :   0.1667 0.3333-0.0000  plane waves:    3550
 k-point 11 :   0.2500 0.3333 0.0000  plane waves:    3540
 k-point 12 :   0.3333 0.3333-0.0000  plane waves:    3507
 k-point 13 :   0.4167 0.3333-0.0000  plane waves:    3531
 k-point 14 :   0.5000 0.3333-0.0000  plane waves:    3529
 k-point 15 :  -0.4167 0.3333 0.0000  plane waves:    3519
 k-point 16 :  -0.3333 0.3333 0.0000  plane waves:    3524
 k-point 17 :  -0.2500 0.3333 0.0000  plane waves:    3534
 k-point 18 :  -0.1667 0.3333 0.0000  plane waves:    3549
 k-point 19 :  -0.0833 0.3333 0.0000  plane waves:    3562
 k-point 20 :  -0.0000 0.0000 0.0833  plane waves:    3550
 k-point 21 :   0.0833 0.0000 0.0833  plane waves:    3549
 k-point 22 :   0.1667 0.0000 0.0833  plane waves:    3546
 k-point 23 :   0.2500 0.0000 0.0833  plane waves:    3534
 k-point 24 :   0.3333 0.0000 0.0833  plane waves:    3522
 k-point 25 :   0.4167 0.0000 0.0833  plane waves:    3532
 k-point 26 :   0.5000 0.0000 0.0833  plane waves:    3529
 k-point 27 :  -0.4167-0.0000 0.0833  plane waves:    3529
 k-point 28 :  -0.3333 0.0000 0.0833  plane waves:    3532
 k-point 29 :  -0.2500 0.0000 0.0833  plane waves:    3522
 k-point 30 :  -0.1667 0.0000 0.0833  plane waves:    3534
 k-point 31 :  -0.0833 0.0000 0.0833  plane waves:    3546
 k-point 32 :  -0.0000 0.3333 0.0833  plane waves:    3563
 k-point 33 :   0.0833 0.3333 0.0833  plane waves:    3557
 k-point 34 :   0.1667 0.3333 0.0833  plane waves:    3551
 k-point 35 :   0.2500 0.3333 0.0833  plane waves:    3540
 k-point 36 :   0.3333 0.3333 0.0833  plane waves:    3522
 k-point 37 :   0.4167 0.3333 0.0833  plane waves:    3527
 k-point 38 :   0.5000 0.3333 0.0833  plane waves:    3526
 k-point 39 :  -0.4167 0.3333 0.0833  plane waves:    3522
 k-point 40 :  -0.3333 0.3333 0.0833  plane waves:    3523
 k-point 41 :  -0.2500 0.3333 0.0833  plane waves:    3523
 k-point 42 :  -0.1667 0.3333 0.0833  plane waves:    3526
 k-point 43 :  -0.0833 0.3333 0.0833  plane waves:    3555
 k-point 44 :  -0.0000-0.3333 0.0833  plane waves:    3557
 k-point 45 :   0.0833-0.3333 0.0833  plane waves:    3563
 k-point 46 :   0.1667-0.3333 0.0833  plane waves:    3555
 k-point 47 :   0.2500-0.3333 0.0833  plane waves:    3526
 k-point 48 :   0.3333-0.3333 0.0833  plane waves:    3523
 k-point 49 :   0.4167-0.3333 0.0833  plane waves:    3523
 k-point 50 :   0.5000-0.3333 0.0833  plane waves:    3522
 k-point 51 :  -0.4167-0.3333 0.0833  plane waves:    3526
 k-point 52 :  -0.3333-0.3333 0.0833  plane waves:    3527
 k-point 53 :  -0.2500-0.3333 0.0833  plane waves:    3522
 k-point 54 :  -0.1667-0.3333 0.0833  plane waves:    3540
 k-point 55 :  -0.0833-0.3333 0.0833  plane waves:    3551
 k-point 56 :  -0.0000 0.0000 0.1667  plane waves:    3547
 k-point 57 :   0.0833-0.0000 0.1667  plane waves:    3545
 k-point 58 :   0.1667-0.0000 0.1667  plane waves:    3547
 k-point 59 :   0.2500 0.0000 0.1667  plane waves:    3541
 k-point 60 :   0.3333 0.0000 0.1667  plane waves:    3529
 k-point 61 :   0.4167 0.0000 0.1667  plane waves:    3534
 k-point 62 :   0.5000 0.0000 0.1667  plane waves:    3533
 k-point 63 :  -0.4167-0.0000 0.1667  plane waves:    3522
 k-point 64 :  -0.3333 0.0000 0.1667  plane waves:    3532
 k-point 65 :  -0.2500 0.0000 0.1667  plane waves:    3533
 k-point 66 :  -0.1667 0.0000 0.1667  plane waves:    3529
 k-point 67 :  -0.0833-0.0000 0.1667  plane waves:    3541
 k-point 68 :  -0.0000 0.3333 0.1667  plane waves:    3545
 k-point 69 :   0.0833 0.3333 0.1667  plane waves:    3553
 k-point 70 :   0.1667 0.3333 0.1667  plane waves:    3552
 k-point 71 :   0.2500 0.3333 0.1667  plane waves:    3529
 k-point 72 :   0.3333 0.3333 0.1667  plane waves:    3529
 k-point 73 :   0.4167 0.3333 0.1667  plane waves:    3537
 k-point 74 :   0.5000 0.3333 0.1667  plane waves:    3524
 k-point 75 :  -0.4167 0.3333 0.1667  plane waves:    3522
 k-point 76 :  -0.3333 0.3333 0.1667  plane waves:    3531
 k-point 77 :  -0.2500 0.3333 0.1667  plane waves:    3531
 k-point 78 :  -0.1667 0.3333 0.1667  plane waves:    3529
 k-point 79 :  -0.0833 0.3333 0.1667  plane waves:    3531
 k-point 80 :  -0.0000-0.3333 0.1667  plane waves:    3552
 k-point 81 :   0.0833-0.3333 0.1667  plane waves:    3553
 k-point 82 :   0.1667-0.3333 0.1667  plane waves:    3545
 k-point 83 :   0.2500-0.3333 0.1667  plane waves:    3530
 k-point 84 :   0.3333-0.3333 0.1667  plane waves:    3529
 k-point 85 :   0.4167-0.3333 0.1667  plane waves:    3531
 k-point 86 :   0.5000-0.3333 0.1667  plane waves:    3531
 k-point 87 :  -0.4167-0.3333 0.1667  plane waves:    3522
 k-point 88 :  -0.3333-0.3333 0.1667  plane waves:    3524
 k-point 89 :  -0.2500-0.3333 0.1667  plane waves:    3537
 k-point 90 :  -0.1667-0.3333 0.1667  plane waves:    3529
 k-point 91 :  -0.0833-0.3333 0.1667  plane waves:    3528
 k-point 92 :  -0.0000 0.0000 0.2500  plane waves:    3531
 k-point 93 :   0.0833 0.0000 0.2500  plane waves:    3540
 k-point 94 :   0.1667-0.0000 0.2500  plane waves:    3540
 k-point 95 :   0.2500 0.0000 0.2500  plane waves:    3531
 k-point 96 :   0.3333 0.0000 0.2500  plane waves:    3523
 k-point 97 :   0.4167 0.0000 0.2500  plane waves:    3534
 k-point 98 :   0.5000 0.0000 0.2500  plane waves:    3537
 k-point 99 :  -0.4167-0.0000 0.2500  plane waves:    3526
 k-point ** :  -0.3333 0.0000 0.2500  plane waves:    3526
 k-point ** :  -0.2500 0.0000 0.2500  plane waves:    3537
 k-point ** :  -0.1667 0.0000 0.2500  plane waves:    3534
 k-point ** :  -0.0833 0.0000 0.2500  plane waves:    3523
 k-point ** :  -0.0000 0.3333 0.2500  plane waves:    3544
 k-point ** :   0.0833 0.3333 0.2500  plane waves:    3531
 k-point ** :   0.1667 0.3333 0.2500  plane waves:    3526
 k-point ** :   0.2500 0.3333 0.2500  plane waves:    3523
 k-point ** :   0.3333 0.3333 0.2500  plane waves:    3522
 k-point ** :   0.4167 0.3333 0.2500  plane waves:    3533
 k-point ** :   0.5000 0.3333 0.2500  plane waves:    3530
 k-point ** :  -0.4167 0.3333 0.2500  plane waves:    3523
 k-point ** :  -0.3333 0.3333 0.2500  plane waves:    3529
 k-point ** :  -0.2500 0.3333 0.2500  plane waves:    3539
 k-point ** :  -0.1667 0.3333 0.2500  plane waves:    3531
 k-point ** :  -0.0833 0.3333 0.2500  plane waves:    3524
 k-point ** :  -0.0000-0.3333 0.2500  plane waves:    3523
 k-point ** :   0.0833-0.3333 0.2500  plane waves:    3525
 k-point ** :   0.1667-0.3333 0.2500  plane waves:    3531
 k-point ** :   0.2500-0.3333 0.2500  plane waves:    3544
 k-point ** :   0.3333-0.3333 0.2500  plane waves:    3524
 k-point ** :   0.4167-0.3333 0.2500  plane waves:    3531
 k-point ** :   0.5000-0.3333 0.2500  plane waves:    3538
 k-point ** :  -0.4167-0.3333 0.2500  plane waves:    3529
 k-point ** :  -0.3333-0.3333 0.2500  plane waves:    3523
 k-point ** :  -0.2500-0.3333 0.2500  plane waves:    3530
 k-point ** :  -0.1667-0.3333 0.2500  plane waves:    3533
 k-point ** :  -0.0833-0.3333 0.2500  plane waves:    3522
 k-point ** :  -0.0000 0.0000 0.3333  plane waves:    3508
 k-point ** :   0.0833-0.0000 0.3333  plane waves:    3530
 k-point ** :   0.1667 0.0000 0.3333  plane waves:    3533
 k-point ** :   0.2500-0.0000 0.3333  plane waves:    3530
 k-point ** :   0.3333-0.0000 0.3333  plane waves:    3508
 k-point ** :   0.4167 0.0000 0.3333  plane waves:    3526
 k-point ** :   0.5000-0.0000 0.3333  plane waves:    3523
 k-point ** :  -0.4167 0.0000 0.3333  plane waves:    3525
 k-point ** :  -0.3333-0.0000 0.3333  plane waves:    3528
 k-point ** :  -0.2500 0.0000 0.3333  plane waves:    3524
 k-point ** :  -0.1667-0.0000 0.3333  plane waves:    3523
 k-point ** :  -0.0833 0.0000 0.3333  plane waves:    3526
 k-point ** :  -0.0000 0.3333 0.3333  plane waves:    3523
 k-point ** :   0.0833 0.3333 0.3333  plane waves:    3527
 k-point ** :   0.1667 0.3333 0.3333  plane waves:    3521
 k-point ** :   0.2500 0.3333 0.3333  plane waves:    3524
 k-point ** :   0.3333 0.3333 0.3333  plane waves:    3518
 k-point ** :   0.4167 0.3333 0.3333  plane waves:    3532
 k-point ** :   0.5000 0.3333 0.3333  plane waves:    3536
 k-point ** :  -0.4167 0.3333 0.3333  plane waves:    3523
 k-point ** :  -0.3333 0.3333 0.3333  plane waves:    3528
 k-point ** :  -0.2500 0.3333 0.3333  plane waves:    3532
 k-point ** :  -0.1667 0.3333 0.3333  plane waves:    3532
 k-point ** :  -0.0833 0.3333 0.3333  plane waves:    3522
 k-point ** :  -0.0000-0.3333 0.3333  plane waves:    3518
 k-point ** :   0.0833-0.3333 0.3333  plane waves:    3524
 k-point ** :   0.1667-0.3333 0.3333  plane waves:    3521
 k-point ** :   0.2500-0.3333 0.3333  plane waves:    3526
 k-point ** :   0.3333-0.3333 0.3333  plane waves:    3523
 k-point ** :   0.4167-0.3333 0.3333  plane waves:    3522
 k-point ** :   0.5000-0.3333 0.3333  plane waves:    3532
 k-point ** :  -0.4167-0.3333 0.3333  plane waves:    3532
 k-point ** :  -0.3333-0.3333 0.3333  plane waves:    3528
 k-point ** :  -0.2500-0.3333 0.3333  plane waves:    3523
 k-point ** :  -0.1667-0.3333 0.3333  plane waves:    3536
 k-point ** :  -0.0833-0.3333 0.3333  plane waves:    3532
 k-point ** :  -0.0000 0.0000 0.4167  plane waves:    3526
 k-point ** :   0.0833 0.0000 0.4167  plane waves:    3526
 k-point ** :   0.1667 0.0000 0.4167  plane waves:    3537
 k-point ** :   0.2500-0.0000 0.4167  plane waves:    3537
 k-point ** :   0.3333-0.0000 0.4167  plane waves:    3526
 k-point ** :   0.4167 0.0000 0.4167  plane waves:    3526
 k-point ** :   0.5000 0.0000 0.4167  plane waves:    3528
 k-point ** :  -0.4167 0.0000 0.4167  plane waves:    3522
 k-point ** :  -0.3333 0.0000 0.4167  plane waves:    3520
 k-point ** :  -0.2500 0.0000 0.4167  plane waves:    3520
 k-point ** :  -0.1667 0.0000 0.4167  plane waves:    3522
 k-point ** :  -0.0833 0.0000 0.4167  plane waves:    3529
 k-point ** :  -0.0000 0.3333 0.4167  plane waves:    3521
 k-point ** :   0.0833 0.3333 0.4167  plane waves:    3523
 k-point ** :   0.1667 0.3333 0.4167  plane waves:    3535
 k-point ** :   0.2500 0.3333 0.4167  plane waves:    3535
 k-point ** :   0.3333 0.3333 0.4167  plane waves:    3531
 k-point ** :   0.4167 0.3333 0.4167  plane waves:    3530
 k-point ** :   0.5000 0.3333 0.4167  plane waves:    3531
 k-point ** :  -0.4167 0.3333 0.4167  plane waves:    3522
 k-point ** :  -0.3333 0.3333 0.4167  plane waves:    3530
 k-point ** :  -0.2500 0.3333 0.4167  plane waves:    3525
 k-point ** :  -0.1667 0.3333 0.4167  plane waves:    3527
 k-point ** :  -0.0833 0.3333 0.4167  plane waves:    3527
 k-point ** :   0.0000-0.3333 0.4167  plane waves:    3530
 k-point ** :   0.0833-0.3333 0.4167  plane waves:    3532
 k-point ** :   0.1667-0.3333 0.4167  plane waves:    3534
 k-point ** :   0.2500-0.3333 0.4167  plane waves:    3535
 k-point ** :   0.3333-0.3333 0.4167  plane waves:    3523
 k-point ** :   0.4167-0.3333 0.4167  plane waves:    3521
 k-point ** :   0.5000-0.3333 0.4167  plane waves:    3527
 k-point ** :  -0.4167-0.3333 0.4167  plane waves:    3526
 k-point ** :  -0.3333-0.3333 0.4167  plane waves:    3526
 k-point ** :  -0.2500-0.3333 0.4167  plane waves:    3530
 k-point ** :  -0.1667-0.3333 0.4167  plane waves:    3522
 k-point ** :  -0.0833-0.3333 0.4167  plane waves:    3531
 k-point ** :  -0.0000 0.0000 0.5000  plane waves:    3528
 k-point ** :   0.0833 0.0000 0.5000  plane waves:    3529
 k-point ** :   0.1667-0.0000 0.5000  plane waves:    3523
 k-point ** :   0.2500 0.0000 0.5000  plane waves:    3531
 k-point ** :   0.3333-0.0000 0.5000  plane waves:    3523
 k-point ** :   0.4167 0.0000 0.5000  plane waves:    3529
 k-point ** :   0.5000 0.0000 0.5000  plane waves:    3528
 k-point ** :  -0.0000 0.3333 0.5000  plane waves:    3510
 k-point ** :   0.0833 0.3333 0.5000  plane waves:    3521
 k-point ** :   0.1667 0.3333 0.5000  plane waves:    3531
 k-point ** :   0.2500 0.3333 0.5000  plane waves:    3540
 k-point ** :   0.3333 0.3333 0.5000  plane waves:    3532
 k-point ** :   0.4167 0.3333 0.5000  plane waves:    3539
 k-point ** :   0.5000 0.3333 0.5000  plane waves:    3510
 k-point ** :  -0.4167 0.3333 0.5000  plane waves:    3520
 k-point ** :  -0.3333 0.3333 0.5000  plane waves:    3531
 k-point ** :  -0.2500 0.3333 0.5000  plane waves:    3540
 k-point ** :  -0.1667 0.3333 0.5000  plane waves:    3532
 k-point ** :  -0.0833 0.3333 0.5000  plane waves:    3539

 maximum and minimum number of plane-waves per node :       898      868

 maximum number of plane-waves:      3571
 maximum index in each direction: 
   IXMAX=    7   IYMAX=   22   IZMAX=    6
   IXMIN=   -7   IYMIN=  -22   IZMIN=   -7


 real space projection operators:
  total allocation   :      10259.56 KBytes
  max/ min on nodes  :       2578.00       2556.31

[...]
 -0.000   0.000   0.000  -0.000   0.012  -0.000   0.000  -0.008
 -0.000   0.000  -0.025   0.000  -0.000   0.016  -0.000   0.000
  0.000  -0.000   0.000  -0.000   0.000  -0.000   0.000  -0.000
 pseudopotential strength for first ion, spin component:           2
 -8.677  -4.029  -0.000  -0.003   0.000  -0.000   0.001  -0.000
 -4.029  -0.349   0.000   0.002  -0.000  -0.000  -0.001   0.000
 -0.000   0.000 -15.671  -0.000   0.000   7.381   0.000  -0.000
 -0.003   0.002  -0.000 -15.670  -0.000   0.000   7.380   0.000
  0.000  -0.000   0.000  -0.000 -15.671  -0.000   0.000   7.381
 -0.000  -0.000   7.381   0.000  -0.000   4.933  -0.000   0.000
  0.001  -0.001   0.000   7.380   0.000  -0.000   4.934  -0.000
 -0.000   0.000  -0.000   0.000   7.381   0.000  -0.000   4.933
  0.000  -0.000   0.000  -0.000  -0.000   0.000   0.000   0.000
 -0.000   0.000  -0.001   0.000  -0.000  -0.000  -0.000   0.000
  0.000   0.000   0.000  -0.001   0.000   0.000  -0.000  -0.000
 -0.000  -0.000  -0.000   0.000  -0.001   0.000  -0.000  -0.000
  0.000   0.000  -0.000   0.000   0.000   0.000  -0.000   0.000
 -0.000   0.000  -0.000   0.000   0.000  -0.000  -0.000  -0.000
  0.000  -0.000   0.001  -0.000   0.000   0.000   0.000  -0.000
 -0.000  -0.000  -0.000   0.002  -0.000  -0.000  -0.000   0.000
  0.000   0.000   0.000  -0.000   0.001  -0.000   0.000   0.000
 -0.000  -0.000   0.000  -0.000  -0.000  -0.000   0.000  -0.000
 -0.001   0.000   0.000  -0.000  -0.000  -0.000  -0.005   0.000
 -0.000  -0.000  -0.000  -0.000  -0.000   0.000   0.000  -0.006
 -0.000   0.000   0.001   0.000   0.000   0.002   0.000   0.000
 -0.001   0.000  -0.000   0.001   0.000   0.000  -0.004  -0.000
 -0.000   0.000   0.000  -0.000   0.001   0.000   0.000   0.002
  0.000  -0.000  -0.000   0.000  -0.000  -0.006  -0.000   0.000
 -0.000   0.000   0.000   0.000   0.000   0.000  -0.000   0.000
 -0.001   0.000   0.000  -0.000  -0.000  -0.000  -0.005   0.000
 -0.000  -0.000  -0.000  -0.000  -0.000   0.000   0.000  -0.006
 -0.000   0.000   0.001   0.000   0.000   0.002   0.000   0.000
 -0.001   0.000  -0.000   0.000   0.000   0.000  -0.004  -0.000
  0.000   0.000   0.000  -0.000   0.001   0.000   0.000   0.002
  0.000  -0.000  -0.000   0.000  -0.000  -0.006  -0.000   0.000
 -0.000   0.000   0.000   0.000   0.000   0.000  -0.000   0.000
 total augmentation occupancy for first ion, spin component:           1
  1.992  -0.039   0.000  -0.000   0.000  -0.000  -0.000  -0.000   0.000   0.000  -0.000   0.000  -0.000   0.000  -0.000  -0.000
 -0.039   0.606   0.000  -0.001  -0.000  -0.000  -0.001   0.000  -0.000   0.000  -0.000   0.000  -0.000  -0.000   0.000   0.000
  0.000   0.000   2.012   0.000  -0.000  -0.020  -0.000   0.000  -0.000  -0.000  -0.000   0.000  -0.000   0.000  -0.000  -0.000
 -0.000  -0.001   0.000   2.013  -0.000  -0.000  -0.020  -0.000   0.000  -0.000  -0.001   0.000  -0.000   0.000  -0.000  -0.000
  0.000  -0.000  -0.000  -0.000   2.012   0.000  -0.000  -0.020  -0.000   0.000   0.000  -0.000  -0.000  -0.000   0.000   0.000
 -0.000  -0.000  -0.020  -0.000   0.000   0.020   0.000  -0.000   0.000  -0.001   0.000  -0.000   0.000   0.000  -0.000   0.000
 -0.000  -0.001  -0.000  -0.020  -0.000   0.000   0.020   0.000  -0.000  -0.000  -0.001  -0.000   0.000  -0.000  -0.000  -0.000
 -0.000   0.000   0.000  -0.000  -0.020  -0.000   0.000   0.020   0.000  -0.000  -0.000  -0.001   0.000   0.000  -0.000  -0.000
  0.000  -0.000  -0.000   0.000  -0.000   0.000  -0.000   0.000   0.232   0.000  -0.000  -0.080  -0.000   0.063   0.000   0.000
  0.000   0.000  -0.000  -0.000   0.000  -0.001  -0.000  -0.000   0.000   0.289  -0.000  -0.000  -0.080   0.000   0.085   0.000
 -0.000  -0.000  -0.000  -0.001   0.000   0.000  -0.001  -0.000  -0.000  -0.000   0.174  -0.000   0.000   0.000   0.000   0.042
  0.000   0.000   0.000   0.000  -0.000  -0.000  -0.000  -0.001  -0.080  -0.000  -0.000   0.289   0.000  -0.030  -0.000  -0.000
 -0.000  -0.000  -0.000  -0.000  -0.000   0.000   0.000   0.000  -0.000  -0.080   0.000   0.000   0.232  -0.000  -0.030  -0.000
  0.000  -0.000   0.000   0.000  -0.000   0.000  -0.000   0.000   0.063   0.000   0.000  -0.030  -0.000   0.018   0.000   0.000
 -0.000   0.000  -0.000  -0.000   0.000  -0.000  -0.000  -0.000   0.000   0.085   0.000  -0.000  -0.030   0.000   0.026   0.000
 -0.000   0.000  -0.000  -0.000   0.000   0.000  -0.000  -0.000   0.000   0.000   0.042  -0.000  -0.000   0.000   0.000   0.011
  0.000   0.000   0.000   0.000  -0.000  -0.000  -0.000  -0.000  -0.030  -0.000  -0.000   0.085   0.000  -0.011  -0.000  -0.000
 -0.000  -0.000  -0.000  -0.000   0.000   0.000   0.000   0.000  -0.000  -0.030  -0.000   0.000   0.063  -0.000  -0.011  -0.000
  0.001  -0.002   0.000  -0.118  -0.000   0.000   0.082   0.000  -0.000  -0.000   0.004  -0.000   0.000  -0.000  -0.000   0.001
 -0.000   0.000  -0.000  -0.000  -0.145   0.000   0.000   0.100   0.009  -0.000  -0.000   0.006   0.000   0.002  -0.000  -0.000
 -0.000   0.000   0.069  -0.000   0.000  -0.045  -0.000  -0.000  -0.000  -0.000  -0.000   0.000   0.005  -0.000   0.001  -0.000
  0.000  -0.003   0.000  -0.104  -0.000   0.000   0.073   0.000  -0.000  -0.000   0.018  -0.000   0.000  -0.000  -0.000   0.003
  0.000  -0.000   0.000  -0.000   0.068  -0.000   0.000  -0.045   0.005   0.000   0.000  -0.000  -0.000   0.001   0.000   0.000
  0.000  -0.000  -0.145   0.000  -0.000   0.100  -0.000   0.000   0.000   0.006   0.000  -0.000   0.009   0.000  -0.000   0.000
  0.000  -0.000   0.000  -0.000   0.000  -0.000   0.000  -0.000  -0.000  -0.000  -0.000  -0.000   0.000  -0.000  -0.000  -0.000
 -0.001   0.003  -0.000   0.120   0.000  -0.000  -0.075  -0.000   0.000   0.000  -0.004  -0.000  -0.000   0.000   0.000  -0.001
  0.000  -0.000   0.000   0.000   0.147   0.000  -0.000  -0.092  -0.008   0.000   0.000  -0.001  -0.000  -0.002   0.000   0.000
  0.000  -0.000  -0.070   0.000  -0.000   0.042   0.000   0.000   0.000  -0.002   0.000  -0.000  -0.002   0.000  -0.001  -0.000
 -0.001   0.004  -0.000   0.105   0.000  -0.000  -0.067  -0.000   0.000   0.000  -0.011  -0.000  -0.000   0.000   0.000  -0.002
  0.000   0.000  -0.000   0.000  -0.070   0.000  -0.000   0.042  -0.002  -0.000  -0.000  -0.002   0.000  -0.000  -0.000  -0.000
 -0.000   0.000   0.147  -0.000   0.000  -0.092   0.000  -0.000  -0.000  -0.001   0.000   0.000  -0.008  -0.000   0.001  -0.000
 -0.000   0.000  -0.000   0.000  -0.000   0.000  -0.000   0.000   0.000   0.000   0.000   0.000  -0.000   0.000   0.000   0.000
 total augmentation occupancy for first ion, spin component:           2
  0.042   0.158   0.000  -0.000   0.000   0.000   0.000  -0.000  -0.000   0.000  -0.000   0.000   0.000  -0.000  -0.000  -0.000
  0.158  -0.136   0.000  -0.000  -0.000  -0.000   0.001   0.000  -0.000   0.000   0.003  -0.000   0.000  -0.000   0.000   0.001
  0.000   0.000   0.007   0.000  -0.000   0.044  -0.000   0.000  -0.000  -0.001   0.000  -0.000  -0.002   0.000  -0.000   0.000
 -0.000  -0.000   0.000   0.008  -0.000  -0.000   0.044  -0.000  -0.000   0.000  -0.003  -0.000   0.000  -0.000   0.000  -0.000
  0.000  -0.000  -0.000  -0.000   0.007   0.000  -0.000   0.044  -0.002  -0.000  -0.000  -0.001  -0.000  -0.000  -0.000  -0.000
  0.000  -0.000   0.044  -0.000   0.000  -0.004  -0.000  -0.000   0.000   0.001  -0.000   0.000   0.001   0.000   0.000  -0.000
  0.000   0.001  -0.000   0.044  -0.000  -0.000  -0.003  -0.000   0.000  -0.000   0.003   0.000  -0.000   0.000  -0.000   0.001
 -0.000   0.000   0.000  -0.000   0.044  -0.000  -0.000  -0.004   0.001   0.000   0.000   0.001   0.000   0.000   0.000   0.000
 -0.000  -0.000  -0.000  -0.000  -0.002   0.000   0.000   0.001  -0.060   0.000   0.000  -0.009   0.000  -0.014  -0.000   0.000
  0.000   0.000  -0.001   0.000  -0.000   0.001  -0.000   0.000   0.000  -0.053   0.000  -0.000  -0.009  -0.000  -0.013   0.000
 -0.000   0.003   0.000  -0.003  -0.000  -0.000   0.003   0.000   0.000   0.000  -0.061   0.000  -0.000   0.000   0.000  -0.013
  0.000  -0.000  -0.000  -0.000  -0.001   0.000   0.000   0.001  -0.009  -0.000   0.000  -0.053   0.000  -0.000   0.000   0.000
  0.000   0.000  -0.002   0.000  -0.000   0.001  -0.000   0.000   0.000  -0.009  -0.000   0.000  -0.060   0.000  -0.000  -0.000
 -0.000  -0.000   0.000  -0.000  -0.000   0.000   0.000   0.000  -0.014  -0.000   0.000  -0.000   0.000  -0.003  -0.000   0.000
 -0.000   0.000  -0.000   0.000  -0.000   0.000  -0.000   0.000  -0.000  -0.013   0.000   0.000  -0.000  -0.000  -0.004  -0.000
 -0.000   0.001   0.000  -0.000  -0.000  -0.000   0.001   0.000   0.000   0.000  -0.013   0.000  -0.000   0.000  -0.000  -0.003
  0.000  -0.000  -0.000  -0.000  -0.000   0.000   0.000   0.000  -0.000   0.000   0.000  -0.013  -0.000   0.000   0.000   0.000
  0.000   0.000  -0.000   0.000   0.000   0.000  -0.000   0.000   0.000  -0.000  -0.000  -0.000  -0.014   0.000   0.000  -0.000
  0.000  -0.011   0.000   0.015   0.000   0.000  -0.023  -0.000   0.000   0.000  -0.010   0.000  -0.000   0.000   0.000  -0.001
  0.000  -0.000   0.000   0.000   0.017  -0.000  -0.000  -0.027  -0.017   0.000   0.000  -0.024  -0.000  -0.003   0.000   0.000
 -0.000   0.000  -0.007  -0.000  -0.000   0.011   0.000   0.000   0.000  -0.005   0.000  -0.000  -0.014   0.000  -0.001   0.000
  0.000  -0.008  -0.000   0.014   0.000   0.000  -0.022  -0.000   0.000   0.000  -0.044   0.000  -0.000   0.000   0.000  -0.007
 -0.000  -0.000  -0.000  -0.000  -0.007   0.000  -0.000   0.011  -0.014  -0.000  -0.000  -0.005   0.000  -0.002  -0.000  -0.000
  0.000   0.000   0.017   0.000   0.000  -0.027   0.000  -0.000  -0.000  -0.024  -0.000   0.000  -0.017  -0.000  -0.004  -0.000
  0.000  -0.000  -0.000  -0.000  -0.000   0.000  -0.000   0.000   0.000   0.000   0.000   0.000  -0.000   0.000   0.000  -0.000
 -0.001   0.012  -0.000  -0.001  -0.000  -0.000   0.009   0.000  -0.000  -0.000   0.012   0.000   0.000  -0.000  -0.000   0.002
 -0.000   0.000  -0.000  -0.000   0.000   0.000   0.000   0.010   0.019  -0.000  -0.000   0.022   0.000   0.003  -0.000  -0.000
  0.000  -0.000  -0.002   0.000   0.000  -0.003  -0.000  -0.000  -0.000   0.008  -0.000   0.000   0.013  -0.000   0.001  -0.000
 -0.001   0.009   0.000  -0.001  -0.000  -0.000   0.010   0.000  -0.000  -0.000   0.043  -0.000   0.000  -0.000  -0.000   0.008
  0.000   0.000   0.000   0.000  -0.002  -0.000   0.000  -0.003   0.013   0.000   0.000   0.008  -0.000   0.002   0.000   0.000
 -0.000  -0.000   0.000  -0.000  -0.000   0.010  -0.000   0.000   0.000   0.022   0.000  -0.000   0.019   0.000   0.004   0.000
 -0.000   0.000  -0.000   0.000   0.000  -0.000   0.000  -0.000  -0.000  -0.000  -0.000  -0.000  -0.000  -0.000  -0.000  -0.000


------------------------ aborting loop because EDIFF is reached ----------------------------------------


 


 total charge     
 
# of ion       s       p       d       f       tot
--------------------------------------------------
    1        2.083   5.888   0.622   6.715  15.308
    2        2.083   5.888   0.622   6.715  15.308
    3        2.083   5.888   0.622   6.715  15.308
    4        2.083   5.888   0.622   6.715  15.308
    5        1.555   3.406   0.000   0.000   4.962
    6        1.556   3.408   0.000   0.000   4.964
    7        1.555   3.406   0.000   0.000   4.962
    8        1.556   3.408   0.000   0.000   4.964
--------------------------------------------------
tot         14.554  37.182   2.486  26.860  81.083

 


 magnetization (x)
 
# of ion       s       p       d       f       tot
--------------------------------------------------
    1        0.005   0.009  -0.159  -6.614  -6.759
    2        0.005   0.009  -0.159  -6.614  -6.759
    3       -0.005  -0.009   0.159   6.613   6.758
    4       -0.005  -0.009   0.159   6.613   6.758
    5       -0.000  -0.000   0.000   0.000  -0.000
    6        0.005   0.094   0.000   0.000   0.099
    7       -0.000  -0.000   0.000   0.000  -0.000
    8       -0.005  -0.094   0.000   0.000  -0.099
--------------------------------------------------
tot         -0.000  -0.000  -0.000  -0.001  -0.001

 
    CHARGE:  cpu time    2.5441: real time    2.5501
    FORLOC:  cpu time    0.0042: real time    0.0042
    FORNL :  cpu time   14.1215: real time   14.1554
    STRESS:  cpu time   45.3099: real time   45.4191
    FORCOR:  cpu time    0.0790: real time    0.0791
    FORHAR:  cpu time    0.0102: real time    0.0102
    MIXING:  cpu time    0.0048: real time    0.0048
    OFIELD:  cpu time    0.0000: real time    0.0000

  FORCE on cell =-STRESS in cart. coord.  units (eV):
  Direction    XX          YY          ZZ          XY          YZ          ZX
  --------------------------------------------------------------------------------------
  Alpha Z   906.21124   906.21124   906.21124
  Ewald   -3235.77795 -3235.75997 -3234.84729    -0.15540     0.04225     0.16510
  Hartree   917.84839   917.84748   919.68231    -0.11953     0.04682     0.09452
  E(xc)    -488.35722  -488.35736  -488.36308    -0.00050     0.00018     0.00021
  Local     846.28413   846.26355   842.62900     0.29485    -0.10889    -0.26657
  n-local  -453.08179  -453.08890  -452.93798    -0.00896     0.01394    -0.00799
  augment   192.67562   192.67737   192.82376    -0.00369     0.00537     0.00271
  Kinetic  1313.72961  1313.74650  1314.23460    -0.00306     0.00082     0.01236
  Fock        0.00000     0.00000     0.00000     0.00000     0.00000     0.00000
  -------------------------------------------------------------------------------------
  Total      -0.46797    -0.46009    -0.56743     0.00372     0.00049     0.00034
  in kB      -5.71683    -5.62049    -6.93182     0.04546     0.00604     0.00414
  external pressure =       -6.09 kB  Pullay stress =        0.00 kB


 VOLUME and BASIS-vectors are now :
 -----------------------------------------------------------------------------
  energy-cutoff  :      520.00
  volume of cell :      131.15
      direct lattice vectors                 reciprocal lattice vectors
    -1.792855106  3.104696270  0.000299989    -0.278912331  0.161035909 -0.056610369
    -1.793793371  1.035491404 11.783395812     0.000009377 -0.000002785  0.084866852
     1.792382526  3.104351987 -0.000096156     0.278940135  0.161075580  0.028308358

  length of vectors
     3.585173420 11.964044215  3.584638948     0.327000590  0.084866852  0.323348581


 FORCES acting on ions
    electron-ion (+dipol)            ewald-force                    non-local-force                 convergence-correction
 -----------------------------------------------------------------------------------------------
   0.503E-03 -.254E-03 -.102E+02   -.223E-03 0.102E-02 0.106E+02   0.275E-03 -.244E-03 -.395E+00   -.431E-03 -.511E-03 0.447E-01
   -.503E-03 0.254E-03 0.102E+02   0.223E-03 -.102E-02 -.106E+02   -.275E-03 0.244E-03 0.395E+00   0.431E-03 0.511E-03 -.447E-01
   0.126E-01 -.165E-02 -.965E+01   -.124E-01 0.188E-02 0.101E+02   -.449E-05 -.563E-04 -.398E+00   -.218E-03 -.131E-03 -.400E-01
   -.126E-01 0.165E-02 0.965E+01   0.124E-01 -.188E-02 -.101E+02   0.449E-05 0.563E-04 0.398E+00   0.218E-03 0.131E-03 0.400E-01
   0.417E-02 -.184E-02 -.118E+00   -.431E-02 0.124E-02 0.899E-01   -.753E-04 -.185E-03 0.687E-03   0.374E-04 0.664E-03 0.279E-01
   -.456E-10 -.840E-11 -.980E-10   0.409E-14 -.152E-13 0.209E-12   0.542E-19 0.000E+00 -.496E-19   0.803E-14 -.482E-13 0.104E-12
   -.417E-02 0.184E-02 0.118E+00   0.431E-02 -.124E-02 -.899E-01   0.753E-04 0.185E-03 -.687E-03   -.374E-04 -.664E-03 -.279E-01
   -.447E-10 -.903E-11 -.973E-10   0.448E-14 0.312E-14 -.114E-12   0.542E-19 0.000E+00 0.511E-19   -.392E-13 -.441E-13 -.211E-12
 -----------------------------------------------------------------------------------------------
   -.420E-09 -.775E-10 -.877E-09   -.980E-14 0.221E-13 0.123E-12   -.168E-17 -.358E-17 0.167E-15   0.151E-12 -.110E-14 0.532E-14
 
 
 POSITION                                       TOTAL-FORCE (eV/Angst)
 -----------------------------------------------------------------------------------
     -1.79368      3.10505      8.83124         0.000125      0.000012      0.013038
     -1.79356      5.17463      5.89838        -0.000125     -0.000012     -0.013038
     -0.00053      4.13948      2.93977         0.000030      0.000038      0.011495
     -1.79292      3.10470      0.00646        -0.000030     -0.000038     -0.011495
     -1.79398      5.17479     10.31054        -0.000180     -0.000121      0.000154
     -0.00100      4.13966      7.36461         0.000000     -0.000000      0.000000
     -1.79326      3.10488      4.41909         0.000180      0.000121     -0.000154
     -0.00029      2.06974      1.47296         0.000000     -0.000000      0.000000
 -----------------------------------------------------------------------------------
    total drift:                               -0.000000     -0.000000     -0.000000


--------------------------------------------------------------------------------------------------------



  FREE ENERGIE OF THE ION-ELECTRON SYSTEM (eV)
  ---------------------------------------------------
  free  energy   TOTEN  =       -83.36515676 eV

  energy  without entropy=      -83.36515676  energy(sigma->0) =      -83.36515676
 


--------------------------------------------------------------------------------------------------------


    POTLOK:  cpu time    1.1718: real time    1.1746


--------------------------------------------------------------------------------------------------------


     LOOP+:  cpu time 2234.9172: real time 2240.4146
    4ORBIT:  cpu time    0.0000: real time    0.0000
 


 total charge     
 
# of ion       s       p       d       f       tot
--------------------------------------------------
    1        2.083   5.888   0.622   6.715  15.308
    2        2.083   5.888   0.622   6.715  15.308
    3        2.083   5.888   0.622   6.715  15.308
    4        2.083   5.888   0.622   6.715  15.308
    5        1.555   3.406   0.000   0.000   4.962
    6        1.556   3.408   0.000   0.000   4.964
    7        1.555   3.406   0.000   0.000   4.962
    8        1.556   3.408   0.000   0.000   4.964
--------------------------------------------------
tot         14.554  37.182   2.486  26.860  81.083

 


 magnetization (x)
 
# of ion       s       p       d       f       tot
--------------------------------------------------
    1        0.005   0.009  -0.159  -6.614  -6.759
    2        0.005   0.009  -0.159  -6.614  -6.759
    3       -0.005  -0.009   0.159   6.613   6.758
    4       -0.005  -0.009   0.159   6.613   6.758
    5       -0.000  -0.000   0.000   0.000  -0.000
    6        0.005   0.094   0.000   0.000   0.099
    7       -0.000  -0.000   0.000   0.000  -0.000
    8       -0.005  -0.094   0.000   0.000  -0.099
--------------------------------------------------
tot         -0.000  -0.000  -0.000  -0.001  -0.001

 
 BZINTS: Fermi energy:  4.854350; 92.000000 electrons
         Band energy:-586.313203;  BLOECHL correction: -0.003524

 total amount of memory used by VASP MPI-rank0   228136. kBytes
=======================================================================

   base      :      30000. kBytes
   nonlr-proj:       4496. kBytes
   fftplans  :       2986. kBytes
   grid      :       7241. kBytes
   one-center:        196. kBytes
   wavefun   :     183217. kBytes
 
  
  
 General timing and accounting informations for this job:
 ========================================================
  
                  Total CPU time used (sec):     2249.333
                            User time (sec):     2244.762
                          System time (sec):        4.570
                         Elapsed time (sec):     2256.225
  
                   Maximum memory used (kb):      300016.
                   Average memory used (kb):           0.
  
                          Minor page faults:       119689
                          Major page faults:            0
                 Voluntary context switches:          248
