       N       E                     dE             d eps       ncg     rms          rms(c)
DAV:   1     0.805513653907E+03    0.80551E+03   -0.22463E+04 10152   0.234E+03
DAV:   2     0.177405137288E+03   -0.62811E+03   -0.48277E+03 10576   0.354E+02
DAV:   3    -0.516113917210E+01   -0.18257E+03   -0.17547E+03  8988   0.201E+02
DAV:   4    -0.274459185080E+02   -0.22285E+02   -0.21080E+02 12832   0.627E+01
DAV:   5    -0.295560076051E+02   -0.21101E+01   -0.20463E+01 15532   0.208E+01    0.224E+01
DAV:   6    -0.441930401394E+02   -0.14637E+02   -0.57321E+01 10696   0.705E+01    0.302E+01
DAV:   7    -0.426143333034E+02    0.15787E+01   -0.88789E+00 10988   0.185E+01    0.107E+01
DAV:   8    -0.410266242776E+02    0.15877E+01   -0.33155E+00 11828   0.140E+01    0.342E+00
DAV:   9    -0.410818229517E+02   -0.55199E-01   -0.16873E+00 11952   0.105E+01    0.388E+00
DAV:  10    -0.410567701775E+02    0.25053E-01   -0.32199E-01 13136   0.387E+00    0.125E+00
DAV:  11    -0.411214387000E+02   -0.64669E-01   -0.53907E-02 15228   0.116E+00    0.629E-01
DAV:  12    -0.411577363798E+02   -0.36298E-01   -0.38736E-02 11804   0.933E-01    0.572E-01
DAV:  13    -0.411584422557E+02   -0.70588E-03   -0.14442E-02 12316   0.731E-01    0.183E-01
DAV:  14    -0.411568929308E+02    0.15493E-02   -0.12060E-02 12856   0.347E-01    0.137E-01
DAV:  15    -0.411564437284E+02    0.44920E-03   -0.12926E-03 13960   0.156E-01    0.117E-01
DAV:  16    -0.411560466528E+02    0.39708E-03   -0.74628E-04 13728   0.190E-01    0.363E-02
DAV:  17    -0.411564288266E+02   -0.38217E-03   -0.17861E-04 13612   0.601E-02    0.895E-03
DAV:  18    -0.411565422671E+02   -0.11344E-03   -0.32781E-05 14932   0.268E-02    0.344E-03
DAV:  19    -0.411565193447E+02    0.22922E-04   -0.54324E-06 13448   0.838E-03    0.173E-03
DAV:  20    -0.411565290485E+02   -0.97038E-05   -0.10995E-06 10532   0.322E-03    0.108E-03
DAV:  21    -0.411565242708E+02    0.47777E-05   -0.12146E-07  7376   0.200E-03    0.893E-04
DAV:  22    -0.411565205035E+02    0.37673E-05   -0.41129E-08  4992   0.177E-03    0.300E-04
DAV:  23    -0.411565197647E+02    0.73878E-06   -0.18038E-08  4876   0.717E-04    0.259E-04
DAV:  24    -0.411565198146E+02   -0.49899E-07   -0.10211E-08  4792   0.913E-04
   1 F= -.41156520E+02 E0= -.41156520E+02  d E =0.000000E+00  mag=    29.7448
