unknown system                          
   1.00000000000000     
     2.500784    0.000000    0.000000
     1.250392   -2.165742    4.033331
     0.000000   -4.331484    0.000000
   Co
     4
Direct
  0.625000  0.750000  0.958333
  0.375000  0.250000  0.041667
  0.125000  0.750000  0.458333
  0.875000  0.250000  0.541667
 
   40   72   64
 0.86386521998E-02 0.90444231445E-02 0.10322981612E-01 0.12604760481E-01 0.16151583003E-01
 0.21262462022E-01 0.28390113542E-01 0.38026379046E-01 0.50640472137E-01 0.66808022711E-01
 0.86900324491E-01 0.11102992751E+00 0.13907888690E+00 0.17052169495E+00 0.20421912261E+00
 0.23851890702E+00 0.27134227794E+00 0.30029566231E+00 0.32304135512E+00 0.33759287209E+00
 0.34259733567E+00 0.33759287209E+00 0.32304135512E+00 0.30029566231E+00 0.27134227794E+00
 0.23851890702E+00 0.20421912261E+00 0.17052169495E+00 0.13907888690E+00 0.11102992751E+00
 0.86900324491E-01 0.66808022711E-01 0.50640472137E-01 0.38026379046E-01 0.28390113542E-01
 0.21262462021E-01 0.16151583003E-01 0.12604760481E-01 0.10322981612E-01 0.90444231445E-02
 0.90801948076E-02 0.97965383125E-02 0.11506295339E-01 0.14420325887E-01 0.18826347537E-01
 0.25183194323E-01 0.33985566376E-01 0.45834051328E-01 0.61434348741E-01 0.81300448712E-01
 0.10591997729E+00 0.13556202034E+00 0.16994804450E+00 0.20819289655E+00 0.24885345761E+00
 0.28982386423E+00 0.32842683704E+00 0.36174334160E+00 0.38690806498E+00 0.40157009240E+00
 0.40430571284E+00 0.39483006698E+00 0.37409367997E+00 0.34406909766E+00 0.30744497660E+00
 0.26718026754E+00 0.22606446479E+00 0.18651697591E+00 0.15030852578E+00 0.11849944149E+00
 0.91622950516E-01 0.69690498451E-01 0.52285479879E-01 0.38830947544E-01 0.28757455907E-01
 0.21390031572E-01 0.16164341567E-01 0.12640003667E-01 0.10422523000E-01 0.92851405751E-02
 0.10520481069E-01 0.11802644344E-01 0.14479169782E-01 0.18864625070E-01 0.25486634478E-01
 0.34983310586E-01 0.48237662110E-01 0.66252690470E-01 0.90022418975E-01 0.12068761510E+00
 0.15903067140E+00 0.20530892903E+00 0.25921080066E+00 0.31949431129E+00 0.38363652880E+00
 0.44794121318E+00 0.50783734940E+00 0.55831273526E+00 0.59467446804E+00 0.61327889346E+00
 0.61216302693E+00 0.59145729073E+00 0.55331438092E+00 0.50154624088E+00 0.44091946621E+00
 0.37641703894E+00 0.31258292799E+00 0.25290888667E+00 0.19974162822E+00 0.15434573041E+00
 0.11694042131E+00 0.87076080452E-01 0.63957108419E-01 0.46559945016E-01 0.33759143884E-01
 0.24612191070E-01 0.18288612485E-01 0.14100400746E-01 0.11598446853E-01 0.10450575218E-01
 0.13219794709E-01 0.15604164084E-01 0.20123140789E-01 0.27400921552E-01 0.38312227743E-01
 0.54127985820E-01 0.76357905516E-01 0.10682728179E+00 0.14764851645E+00 0.20066972888E+00
 0.26755013528E+00 0.34921495298E+00 0.44498051059E+00 0.55219164586E+00 0.66611088355E+00
 0.77977081186E+00 0.88433361099E+00 0.97021933113E+00 0.10285947401E+01 0.10530234975E+01
 0.10407332411E+01 0.99311964154E+00 0.91551724222E+00 0.81611768531E+00 0.70444502612E+00
 0.58971428233E+00 0.47957312872E+00 0.37963519059E+00 0.29319194602E+00 0.22137109198E+00
 0.16383004625E+00 0.11919641895E+00 0.85515449068E-01 0.60730033379E-01 0.42979536791E-01
 0.30581041102E-01 0.22198197747E-01 0.16850453413E-01 0.13802513281E-01 0.12651632974E-01
 0.17734464115E-01 0.22108252764E-01 0.29972747404E-01 0.42448901791E-01 0.61254144663E-01
 0.88629898045E-01 0.12756579113E+00 0.18161641999E+00 0.25463332753E+00 0.35079896567E+00
 0.47337223568E+00 0.62387370331E+00 0.80143674592E+00 0.10012472557E+01 0.12130460020E+01
 0.14230085620E+01 0.16127564553E+01 0.17634438950E+01 0.18583958005E+01 0.18860156237E+01
 0.18428162481E+01 0.17342262418E+01 0.15733478810E+01 0.13773422692E+01 0.11656077322E+01
 0.95538302024E+00 0.75988649419E+00 0.58800487637E+00 0.44365687566E+00 0.32725584537E+00
 0.23659230609E+00 0.16808158616E+00 0.11773421671E+00 0.81667019685E-01 0.56413619030E-01
 0.39200778370E-01 0.27879574329E-01 0.20864210777E-01 0.17156382943E-01 0.16160713501E-01
 0.24927844032E-01 0.32838149549E-01 0.46507626971E-01 0.68119200548E-01 0.10078615552E+00
 0.14891596910E+00 0.21809517338E+00 0.31524835879E+00 0.44840603403E+00 0.62538560989E+00
 0.85333654330E+00 0.11360461701E+01 0.14715018383E+01 0.18491072184E+01 0.22494504170E+01
 0.26427884814E+01 0.29911765582E+01 0.32570400044E+01 0.34077155852E+01 0.34232124564E+01
 0.33014404932E+01 0.30586703316E+01 0.27256742169E+01 0.23386392314E+01 0.19371987923E+01
 0.15521716559E+01 0.12060339369E+01 0.91147570874E+00 0.67149300376E+00 0.48362281040E+00
 0.34144219022E+00 0.23700718873E+00 0.16224877507E+00 0.10997745909E+00 0.74286971279E-01
 0.50534500784E-01 0.35306127300E-01 0.26271542624E-01 0.21905294243E-01 0.21487535153E-01
 0.36228283873E-01 0.50160436661E-01 0.73752642685E-01 0.11099102444E+00 0.16783893277E+00
 0.25241203058E+00 0.37566448027E+00 0.55113941369E+00 0.79446263335E+00 0.11224720672E+01
 0.15493240397E+01 0.20834897301E+01 0.27216172385E+01 0.34420164552E+01 0.42030783198E+01
 0.49428911282E+01 0.55831082584E+01 0.60477183557E+01 0.62733046141E+01 0.62274342437E+01
 0.59167754020E+01 0.53854566759E+01 0.47034709740E+01 0.39483492015E+01 0.31945125543E+01
 0.24979929963E+01 0.18933625934E+01 0.13952209181E+01 0.10028113324E+01 0.70480685051E+00
 0.48590292466E+00 0.32949965345E+00 0.22051257191E+00 0.14625229633E+00 0.96741714267E-01
 0.64599443102E-01 0.44605995933E-01 0.33245422854E-01 0.28489828471E-01 0.29418188969E-01
 0.53721244674E-01 0.77780899913E-01 0.11795978524E+00 0.18171272441E+00 0.27992991489E+00
 0.42819394516E+00 0.64716642981E+00 0.96359318810E+00 0.14087645468E+01 0.20169346288E+01
 0.28181426338E+01 0.38306304127E+01 0.50479523803E+01 0.64269532802E+01 0.78782211615E+01
 0.92696314989E+01 0.10442634720E+02 0.11237356791E+02 0.11537553740E+02 0.11296679622E+02
 0.10552389630E+02 0.94137714965E+01 0.80388279312E+01 0.65864944878E+01 0.51941611875E+01
 0.39559701845E+01 0.29198891916E+01 0.20958687745E+01 0.14677651871E+01 0.10060999206E+01
 0.67697927390E+00 0.44857839024E+00 0.29363433113E+00 0.19067329096E+00 0.12371908082E+00
 0.81336982798E-01 0.55759002930E-01 0.42075578335E-01 0.37506191005E-01 0.41148038040E-01
 0.80587410366E-01 0.12120222249E+00 0.18877893955E+00 0.29673770032E+00 0.46531744867E+00
 0.72326006580E+00 0.11105412732E+01 0.16785231822E+01 0.24910758035E+01 0.36174828098E+01
 0.51203651480E+01 0.70403068919E+01 0.93657683299E+01 0.12005936853E+02 0.14772680854E+02
 0.17386086105E+02 0.19509017014E+02 0.20829173319E+02 0.21129495029E+02 0.20358725172E+02
 0.18647067308E+02 0.16264053595E+02 0.13544461583E+02 0.10804180995E+02 0.82867615580E+01
 0.61352319308E+01 0.44021575364E+01 0.30733368081E+01 0.20956367353E+01 0.13999420059E+01
 0.91946220320E+00 0.59531775532E+00 0.38125956546E+00 0.24266765595E+00 0.15468107990E+00
 0.10043250330E+00 0.68814598744E-01 0.53105653966E-01 0.49876189124E-01 0.58408749627E-01
 0.12134215022E+00 0.18859646167E+00 0.30055825966E+00 0.48138854936E+00 0.76756405061E+00
 0.12126635254E+01 0.18922959686E+01 0.29069806356E+01 0.43819559696E+01 0.64591135038E+01
 0.92709873150E+01 0.12905162699E+02 0.17340080470E+02 0.22383517928E+02 0.27636346071E+02
 0.32501031635E+02 0.36285204931E+02 0.38363523247E+02 0.38363535458E+02 0.36285204960E+02
 0.32501048553E+02 0.27636365794E+02 0.22383553083E+02 0.17340060484E+02 0.12905100607E+02
 0.92709408934E+01 0.64591615639E+01 0.43819635445E+01 0.29069652206E+01 0.18923297768E+01
 0.12126336765E+01 0.76758536108E+00 0.48139906194E+00 0.30055701777E+00 0.18859827316E+00
 0.12134131858E+00 0.83684425268E-01 0.66855293144E-01 0.66855369463E-01 0.83687847161E-01
 0.18233974695E+00 0.29141776890E+00 0.47416726301E+00 0.77278160821E+00 0.12528410091E+01
 0.20130775649E+01 0.31936301898E+01 0.49892741823E+01 0.76460291995E+01 0.11450053675E+02
 0.16679532750E+02 0.23515922507E+02 0.31919862508E+02 0.41487118087E+02 0.51360811915E+02
 0.60283697540E+02 0.66837066097E+02 0.69823530075E+02 0.68657217101E+02 0.63570683333E+02
 0.55527466499E+02 0.45903515795E+02 0.36068271010E+02 0.27072681942E+02 0.19514681272E+02
 0.13584730815E+02 0.91774146113E+01 0.60473632770E+01 0.39022723722E+01 0.24754258296E+01
 0.15489035023E+01 0.95890234212E+00 0.58931042351E+00 0.36145264140E+00 0.22374331756E+00
 0.14326756566E+00 0.10034878854E+00 0.83999552201E-01 0.90188469855E-01 0.12036905171E+00
 0.27199071640E+00 0.44550246857E+00 0.73836858026E+00 0.12238448075E+01 0.20180084384E+01
 0.32966771212E+01 0.53214977978E+01 0.84593467444E+01 0.13189215848E+02 0.20079497158E+02
 0.29696524328E+02 0.42417251603E+02 0.58145317440E+02 0.76017314304E+02 0.94213723324E+02
 0.11013193473E+03 0.12095704594E+03 0.12452594937E+03 0.12008295831E+03 0.10856579781E+03
 0.92252443024E+02 0.73973832988E+02 0.56267940795E+02 0.40847506570E+02 0.28479204647E+02
 0.19188708714E+02 0.12567317266E+02 0.80419107025E+01 0.50495673548E+01 0.31232626827E+01
 0.19094768353E+01 0.11573401151E+01 0.69796860680E+00 0.42134551689E+00 0.25793552424E+00
 0.16535191732E+00 0.11874526818E+00 0.10557983789E+00 0.12213031153E+00 0.17303884789E+00
 0.40108435752E+00 0.67090606202E+00 0.11314479825E+01 0.19063427787E+01 0.31949302025E+01
 0.53095519125E+01 0.87223287319E+01 0.14112441371E+02 0.22392887325E+02 0.34666865575E+02
 0.52045562463E+02 0.75254822585E+02 0.10403141454E+03 0.13648697152E+03 0.16882565228E+03
 0.19585675139E+03 0.21236810607E+03 0.21484915147E+03 0.20275309314E+03 0.17869945159E+03
 0.14751722082E+03 0.11459019642E+03 0.84282236862E+02 0.59119277763E+02 0.39843065515E+02
 0.25982504881E+02 0.16499676586E+02 0.10259217796E+02 0.62746816288E+01 0.37887862525E+01
 0.22660082941E+01 0.13467170077E+01 0.79830140807E+00 0.47527430039E+00 0.28876685879E+00
 0.18653752324E+00 0.13905869210E+00 0.13271405437E+00 0.16554599188E+00 0.24719326233E+00
 0.58216856151E+00 0.99207682676E+00 0.16996886197E+01 0.29096274911E+01 0.49561612042E+01
 0.83760716208E+01 0.13999699704E+02 0.23052077615E+02 0.37213677690E+02 0.58544872354E+02
 0.89109995474E+02 0.13014202306E+03 0.18077578667E+03 0.23683276930E+03 0.29065102820E+03
 0.33271861197E+03 0.35463598697E+03 0.35181846078E+03 0.32486144981E+03 0.27936757279E+03
 0.22425307444E+03 0.16884928950E+03 0.12011805710E+03 0.81433019111E+02 0.53074420073E+02
 0.33524499644E+02 0.20665091484E+02 0.12503192376E+02 0.74597888918E+01 0.44052317247E+01
 0.25829464611E+01 0.15081732622E+01 0.88045828926E+00 0.51826285701E+00 0.31394539460E+00
 0.20608697390E+00 0.16160338417E+00 0.16696622688E+00 0.22376110317E+00 0.34939159508E+00
 0.82843505130E+00 0.14348681373E+01 0.24951861723E+01 0.43346118512E+01 0.74980570701E+01
 0.12878178391E+02 0.21887368459E+02 0.36646687457E+02 0.60116637963E+02 0.95921863675E+02
 0.14755425468E+03 0.21657742738E+03 0.30005856894E+03 0.38874143597E+03 0.46832175879E+03
 0.52431883974E+03 0.54690216491E+03 0.53244811450E+03 0.48324596070E+03 0.40776044961E+03
 0.31976781253E+03 0.23410134793E+03 0.16140405300E+03 0.10592659788E+03 0.66873092449E+02
 0.40990125438E+02 0.24578207216E+02 0.14503983336E+02 0.84622819552E+01 0.48987251877E+01
 0.28218646916E+01 0.16222422971E+01 0.93527652641E+00 0.54615703008E+00 0.33162815627E+00
 0.22357441544E+00 0.18683566203E+00 0.20997712951E+00 0.30005748279E+00 0.48649854169E+00
 0.11515957797E+01 0.20229002623E+01 0.35648902650E+01 0.62772188804E+01 0.11012920691E+02
 0.19196371192E+02 0.33123780130E+02 0.56292814007E+02 0.93599011959E+02 0.15090106054E+03
 0.23321084950E+03 0.34084478932E+03 0.46469662136E+03 0.58540986626E+03 0.68124929891E+03
 0.73869904071E+03 0.75325643814E+03 0.72421206894E+03 0.65313386480E+03 0.54695158956E+03
 0.42264215511E+03 0.30248014413E+03 0.20282437418E+03 0.12921851969E+03 0.79239151788E+02
 0.47268555386E+02 0.27656017194E+02 0.15965394412E+02 0.91357098677E+01 0.51991572540E+01
 0.29508426673E+01 0.16751217954E+01 0.95649364518E+00 0.55619360606E+00 0.34091599032E+00
 0.23882439633E+00 0.21540280803E+00 0.26303259510E+00 0.39750206818E+00 0.66398428129E+00
 0.15576736556E+01 0.27688523983E+01 0.49353122835E+01 0.87928276371E+01 0.15618259224E+02
 0.27575543986E+02 0.48188094237E+02 0.82869392982E+02 0.13908223324E+03 0.22518929391E+03
 0.34634866750E+03 0.49671055301E+03 0.65317330408E+03 0.78507602767E+03 0.87966205529E+03
 0.93705684667E+03 0.94048239727E+03 0.88801407448E+03 0.79739104027E+03 0.66951633000E+03
 0.51437336843E+03 0.36188123043E+03 0.23689859465E+03 0.14702898793E+03 0.87898933242E+02
 0.51228375434E+02 0.29356408123E+02 0.16643126550E+02 0.93740592728E+01 0.52623386319E+01
 0.29519923570E+01 0.16597657916E+01 0.94166131036E+00 0.54789049834E+00 0.34187624268E+00
 0.25224415702E+00 0.24781462599E+00 0.32702081235E+00 0.51749230283E+00 0.88509647791E+00
 0.20430127004E+01 0.36656943271E+01 0.65935562584E+01 0.11858475470E+02 0.21270708237E+02
 0.37921587975E+02 0.66884597336E+02 0.11588592907E+03 0.19519527146E+03 0.31478202942E+03
 0.47582891740E+03 0.65784873234E+03 0.82232305852E+03 0.97019214753E+03 0.11752948828E+04
 0.13674905833E+04 0.13013340452E+04 0.10741087147E+04 0.90243044179E+03 0.75332271059E+03
 0.57676960422E+03 0.39981135897E+03 0.25623067546E+03 0.15549372485E+03 0.91022235989E+02
 0.52065691535E+02 0.29357381344E+02 0.16414659118E+02 0.91370152455E+01 0.50784133321E+01
 0.28252857543E+01 0.15786487241E+01 0.89316398416E+00 0.52297259779E+00 0.33551075462E+00
 0.26441420842E+00 0.28404883968E+00 0.40169188275E+00 0.65889070166E+00 0.11477282781E+01
 0.25885416462E+01 0.46756484882E+01 0.84647674311E+01 0.15321760682E+02 0.27658786815E+02
 0.49604105956E+02 0.87903160371E+02 0.15261705538E+03 0.25623425038E+03 0.40784884801E+03
 0.59868463781E+03 0.79002710077E+03 0.97020631306E+03 0.13499828487E+04 0.22223510541E+04
 0.28384614231E+04 0.22223510547E+04 0.13499828518E+04 0.97020631337E+03 0.79002710782E+03
 0.59868462786E+03 0.40784883388E+03 0.25623425079E+03 0.15261707489E+03 0.87903185947E+02
 0.49604126319E+02 0.27658782531E+02 0.15321745196E+02 0.84647554818E+01 0.46756365324E+01
 0.25885397789E+01 0.14425051049E+01 0.81726088164E+00 0.48483044407E+00 0.32355593985E+00
 0.27575815364E+00 0.32355978382E+00 0.48482981156E+00 0.81727193649E+00 0.14425109554E+01
 0.31581876819E+01 0.57250939460E+01 0.10398692081E+02 0.18875857130E+02 0.34153609602E+02
 0.61333084543E+02 0.10862892664E+03 0.18786223992E+03 0.31228810806E+03 0.48713712416E+03
 0.69078843869E+03 0.87969139747E+03 0.11553108196E+04 0.21164071845E+04 0.40447286854E+04
 0.46671679213E+04 0.29238498764E+04 0.14453855621E+04 0.97019359873E+03 0.77773367973E+03
 0.57677040166E+03 0.38420017617E+03 0.23690845553E+03 0.13908774281E+03 0.79246733458E+02
 0.44357684485E+02 0.24582353897E+02 0.13557036865E+02 0.74632528344E+01 0.41123175995E+01
 0.22737290181E+01 0.12681134101E+01 0.72308250075E+00 0.43798102451E+00 0.30805578153E+00
 0.28643441014E+00 0.36483471436E+00 0.57222187791E+00 0.98397662507E+00 0.17512268695E+01
 0.36999934926E+01 0.67082867915E+01 0.12177644536E+02 0.22080199298E+02 0.39856964393E+02
 0.71301883400E+02 0.12550643223E+03 0.21493984327E+03 0.35191929222E+03 0.53663360636E+03
 0.73874200688E+03 0.92388287161E+03 0.12719404184E+04 0.23993084306E+04 0.40433347437E+04
 0.39057603726E+04 0.22216292015E+04 0.12080263924E+04 0.90240235267E+03 0.71704109070E+03
 0.51437486725E+03 0.33414251288E+03 0.20283822681E+03 0.11799389138E+03 0.66882529509E+02
 0.37337698408E+02 0.20669978764E+02 0.11397327577E+02 0.62789206378E+01 0.34636873062E+01
 0.19191806783E+01 0.10754266150E+01 0.62031271147E+00 0.38717595714E+00 0.29084804951E+00
 0.29620747130E+00 0.40531321239E+00 0.65769891857E+00 0.11457751274E+01 0.20487430782E+01
 0.41498904317E+01 0.74998990102E+01 0.13555946069E+02 0.24437149349E+02 0.43795895090E+02
 0.77627484906E+02 0.13503410997E+03 0.22782013799E+03 0.36621337524E+03 0.54695394651E+03
 0.73870182736E+03 0.90831561223E+03 0.11550557268E+04 0.17080072376E+04 0.22207118739E+04
 0.19303262837E+04 0.13009365658E+04 0.97008755740E+03 0.79735188742E+03 0.61200512232E+03
 0.42264405902E+03 0.26860446320E+03 0.16141916307E+03 0.93599439263E+02 0.53084127664E+02
 0.29709048543E+02 0.16504777768E+02 0.91365586158E+01 0.50543758562E+01 0.28008982732E+01
 0.15603804250E+01 0.88165145608E+00 0.51782568958E+00 0.33657697103E+00 0.27315333147E+00
 0.30420391666E+00 0.44139518526E+00 0.73359664401E+00 0.12869428850E+01 0.23023087078E+01
 0.44494300365E+01 0.79851366889E+01 0.14308799293E+02 0.25533310825E+02 0.45202844073E+02
 0.78961908926E+02 0.13502250978E+03 0.22341051440E+03 0.35186321962E+03 0.51628858263E+03
 0.69067018100E+03 0.83992660568E+03 0.96999428503E+03 0.11108436326E+04 0.11747841993E+04
 0.10807071086E+04 0.94034715306E+03 0.80969519542E+03 0.65308236666E+03 0.47760531786E+03
 0.31976974380E+03 0.20047816888E+03 0.12013205356E+03 0.69861818836E+02 0.39851909439E+02
 0.22462542244E+02 0.12572163052E+02 0.70118124183E+01 0.39074498837E+01 0.21812350199E+01
 0.12256333504E+01 0.70131599512E+00 0.42222626848E+00 0.28918578846E+00 0.25555866697E+00
 0.30911830399E+00 0.46917409726E+00 0.79179301249E+00 0.13918424336E+01 0.24821095686E+01
 0.45540501363E+01 0.80856404240E+01 0.14307444393E+02 0.25158901310E+02 0.43788403340E+02
 0.75008904936E+02 0.12547439389E+03 0.20278355960E+03 0.31218891466E+03 0.45018422828E+03
 0.59850061904E+03 0.72890641194E+03 0.82212360408E+03 0.87399822066E+03 0.87947124090E+03
 0.83729481509E+03 0.75312951264E+03 0.62999316461E+03 0.48319204808E+03 0.34077380445E+03
 0.22425473980E+03 0.14007758470E+03 0.84293692937E+02 0.49431383939E+02 0.28486566516E+02
 0.16230075804E+02 0.91817418963E+01 0.51742716580E+01 0.29123072645E+01 0.16420729488E+01
 0.93356139263E+00 0.54347254722E+00 0.33802751353E+00 0.24675269563E+00 0.23821117021E+00
 0.30946789002E+00 0.48512300135E+00 0.82527603413E+00 0.14470846702E+01 0.25633908161E+01
 0.44475251047E+01 0.77846640619E+01 0.13552118474E+02 0.23386570353E+02 0.39843503033E+02
 0.66634829798E+02 0.10858358784E+03 0.17075224889E+03 0.25611363060E+03 0.36172838293E+03
 0.47561209103E+03 0.57868442538E+03 0.65292723440E+03 0.68813897900E+03 0.68103907434E+03
 0.63219257471E+03 0.54676599501E+03 0.43783651328E+03 0.32481633485E+03 0.22509648525E+03
 0.14751846523E+03 0.92590971049E+02 0.56276503748E+02 0.33419065197E+02 0.19520317010E+02
 0.11273987063E+02 0.64628094136E+01 0.36881553998E+01 0.21009313687E+01 0.11993573368E+01
 0.69185233837E+00 0.41189222127E+00 0.26717353315E+00 0.20983636302E+00 0.22094511837E+00
 0.30400965373E+00 0.48681576265E+00 0.82944223315E+00 0.14450574955E+01 0.25342793379E+01
 0.41463410433E+01 0.71318028210E+01 0.12172056967E+02 0.20543115791E+02 0.34136757359E+02
 0.55537049105E+02 0.87853268840E+02 0.13397903721E+03 0.19507577632E+03 0.26846291642E+03
 0.34614233236E+03 0.41576345804E+03 0.46445452312E+03 0.48304036916E+03 0.46812162235E+03
 0.42241998575E+03 0.35452517906E+03 0.27708098439E+03 0.20272091982E+03 0.14003611688E+03
 0.92253300623E+02 0.58529926741E+02 0.36074273953E+02 0.21755129670E+02 0.12909262671E+02
 0.75717225564E+01 0.44052667805E+01 0.25499206580E+01 0.14731253497E+01 0.85327350653E+00
 0.50123318807E+00 0.30693287173E+00 0.20973429541E+00 0.17837531315E+00 0.20332211593E+00
 0.29210644925E+00 0.47329356018E+00 0.80345374678E+00 0.13858785006E+01 0.23989713482E+01
 0.36951583093E+01 0.62284162640E+01 0.10392173757E+02 0.17103055373E+02 0.27641242317E+02
 0.43632312688E+02 0.66837669586E+02 0.98611286558E+02 0.13897988117E+03 0.18557296926E+03
 0.23304466015E+03 0.27376100149E+03 0.29986922016E+03 0.30588532533E+03 0.29050297515E+03
 0.25702798113E+03 0.21229301487E+03 0.16437036724E+03 0.12006228432E+03 0.83386356198E+02
 0.55528023585E+02 0.35737345566E+02 0.22387519411E+02 0.13732959178E+02 0.82897374686E+01
 0.49436959140E+01 0.29225242945E+01 0.17177811020E+01 0.10080186476E+01 0.59389096035E+00
 0.35666111972E+00 0.22651055995E+00 0.16450278766E+00 0.15201440269E+00 0.18524410038E+00
 0.27418362007E+00 0.44565961949E+00 0.75037276892E+00 0.12772894322E+01 0.21765705684E+01
 0.31527486452E+01 0.51962401505E+01 0.84583838054E+01 0.13546976254E+02 0.21254649358E+02
 0.32501366186E+02 0.48148768065E+02 0.68644764487E+02 0.93520576508E+02 0.12091120857E+03
 0.14743597111E+03 0.16873112308E+03 0.18064829792E+03 0.18064829632E+03 0.16873112746E+03
 0.14743598897E+03 0.12091122195E+03 0.93520555760E+02 0.68644752412E+02 0.48148764207E+02
 0.32501371177E+02 0.21254652219E+02 0.13546988002E+02 0.84583842397E+01 0.51962024086E+01
 0.31527369924E+01 0.18955314452E+01 0.11331091892E+01 0.67642608092E+00 0.40678020584E+00
 0.25134664539E+00 0.16709983277E+00 0.13024564552E+00 0.13023401495E+00 0.16708806082E+00
 0.25133024753E+00 0.40675807452E+00 0.67641130620E+00 0.11331003430E+01 0.18955328746E+01
 0.25834246146E+01 0.41553081601E+01 0.65882433013E+01 0.10255165481E+02 0.15605183915E+02
 0.23103137582E+02 0.33093758108E+02 0.45595513417E+02 0.60061495745E+02 0.75200733439E+02
 0.89032843960E+02 0.99268483671E+02 0.10395307119E+03 0.10212225344E+03 0.94158158534E+02
 0.81644106223E+02 0.66810740757E+02 0.51842220493E+02 0.38356364172E+02 0.27224902077E+02
 0.18647253976E+02 0.12396489245E+02 0.80404060748E+01 0.51103029280E+01 0.31959493089E+01
 0.19740081394E+01 0.12079164448E+01 0.73554568442E+00 0.44833597919E+00 0.27679899513E+00
 0.17774834475E+00 0.12528816582E+00 0.10546287926E+00 0.11295421860E+00 0.14974333718E+00
 0.22573031070E+00 0.36087891116E+00 0.58992555058E+00 0.96940547694E+00 0.15882414438E+01
 0.20394154816E+01 0.31968367690E+01 0.49319889209E+01 0.74562576563E+01 0.11003602693E+02
 0.15775226579E+02 0.21866362855E+02 0.29147739017E+02 0.37177526298E+02 0.45152620349E+02
 0.51998281174E+02 0.56593722210E+02 0.58099850276E+02 0.56224195434E+02 0.51329647022E+02
 0.44301482240E+02 0.36270620365E+02 0.28290821321E+02 0.21125441151E+02 0.15180074837E+02
 0.10552504312E+02 0.71294274847E+01 0.47044257346E+01 0.30432918016E+01 0.19381826399E+01
 0.12194946737E+01 0.76145415191E+00 0.47437149056E+00 0.29744436651E+00 0.19101331272E+00
 0.12969675991E+00 0.98580331456E-01 0.89686224945E-01 0.10084412493E+00 0.13479214293E+00
 0.20022459487E+00 0.31300878881E+00 0.49992456689E+00 0.80257415240E+00 0.12844851017E+01
 0.15573319159E+01 0.23761529178E+01 0.35646263704E+01 0.52338944914E+01 0.74928780762E+01
 0.10413803285E+02 0.13986445725E+02 0.18072713141E+02 0.22370628611E+02 0.26419172053E+02
 0.29668901465E+02 0.31606059666E+02 0.31894444293E+02 0.30481955032E+02 0.27619384446E+02
 0.23773350803E+02 0.19501086320E+02 0.15302228371E+02 0.11535331452E+02 0.83917214488E+01
 0.59168321787E+01 0.40615617573E+01 0.27262630504E+01 0.17956609515E+01 0.11663134794E+01
 0.75024530103E+00 0.48093726304E+00 0.30988561489E+00 0.20359782616E+00 0.13943143998E+00
 0.10303385798E+00 0.85739420592E-01 0.83408512241E-01 0.95427753798E-01 0.12478460676E+00
 0.17839764763E+00 0.26861628139E+00 0.41489453841E+00 0.64691404344E+00 0.10077003324E+01
 0.11573125835E+01 0.17151035279E+01 0.24996206132E+01 0.35654302766E+01 0.49554918152E+01
 0.66842644804E+01 0.87153129165E+01 0.10941361818E+02 0.13176504360E+02 0.15172714021E+02
 0.16664048672E+02 0.17423088316E+02 0.17326259357E+02 0.16389127957E+02 0.14763619107E+02
 0.12690597603E+02 0.10438400315E+02 0.82427073172E+01 0.62720875026E+01 0.46170830689E+01
 0.33014851516E+01 0.23027459877E+01 0.15737059047E+01 0.10586876464E+01 0.70495510420E+00
 0.46838706059E+00 0.31372438897E+00 0.21502964264E+00 0.15366574227E+00 0.11700398610E+00
 0.96808365736E-01 0.88291621714E-01 0.89325376523E-01 0.10015133844E+00 0.12346176272E+00
 0.16476817047E+00 0.23316565052E+00 0.34248853813E+00 0.51281411318E+00 0.77205258597E+00
 0.84458427630E+00 0.12106241755E+01 0.17108624379E+01 0.23692482243E+01 0.31992184747E+01
 0.41945355134E+01 0.53197014441E+01 0.65037240104E+01 0.76397744650E+01 0.86018011289E+01
 0.92628593819E+01 0.95286746013E+01 0.93585134812E+01 0.87785796698E+01 0.78734616119E+01
 0.67642591685E+01 0.55808578248E+01 0.44354821585E+01 0.34070634230E+01 0.25388135521E+01
 0.18428332630E+01 0.13092767682E+01 0.91573052740E+00 0.63511297264E+00 0.44128642947E+00
 0.31138536618E+00 0.22701848629E+00 0.17397718580E+00 0.14194994886E+00 0.12364040449E+00
 0.11428635122E+00 0.11110852667E+00 0.11310625777E+00 0.12093820615E+00 0.13693485554E+00
 0.16538149057E+00 0.21294198895E+00 0.28924939181E+00 0.40756548379E+00 0.58539270396E+00
 0.61495064242E+00 0.84494220775E+00 0.11524282157E+01 0.15464453964E+01 0.20284018346E+01
 0.25871266057E+01 0.31964543311E+01 0.38135831655E+01 0.43802011833E+01 0.48342840996E+01
 0.51166724200E+01 0.51902070897E+01 0.50443616575E+01 0.46993809802E+01 0.42006603612E+01
 0.36107806531E+01 0.29900260483E+01 0.23932348096E+01 0.18580510687E+01 0.14051627980E+01
 0.10407497715E+01 0.76018972281E+00 0.55344491403E+00 0.40692787554E+00 0.30770931768E+00
 0.24377124424E+00 0.20497674853E+00 0.18325133787E+00 0.17229732728E+00 0.16754790335E+00
 0.16587836220E+00 0.16558146637E+00 0.16621871440E+00 0.16863596547E+00 0.17502462896E+00
 0.18899320007E+00 0.21565877118E+00 0.26186927526E+00 0.33635356121E+00 0.44987226456E+00
 0.46009181787E+00 0.59450442412E+00 0.77384893174E+00 0.10003978350E+01 0.12710031462E+01
 0.15767863234E+01 0.18997936358E+01 0.22150956038E+01 0.24927561188E+01 0.27022908565E+01
 0.28172544700E+01 0.28234390131E+01 0.27201251392E+01 0.25199199468E+01 0.22483230680E+01
 0.19357781242E+01 0.16121822767E+01 0.13035713142E+01 0.10284183288E+01 0.79661809107E+00
 0.61216568874E+00 0.47297139483E+00 0.37416440607E+00 0.30944372193E+00 0.27151016727E+00
 0.25358004990E+00 0.24941603488E+00 0.25346012384E+00 0.26104850531E+00 0.26841700471E+00
 0.27294323325E+00 0.27319769451E+00 0.26911433697E+00 0.26196456555E+00 0.25425066448E+00
 0.24956953074E+00 0.25253149809E+00 0.26859098284E+00 0.30399325768E+00 0.36548759987E+00
 0.37138331532E+00 0.43690066167E+00 0.53054897623E+00 0.65154088774E+00 0.79610572128E+00
 0.95709100860E+00 0.11232883049E+01 0.12804144334E+01 0.14134259342E+01 0.15072224755E+01
 0.15503727903E+01 0.15379116586E+01 0.14712755912E+01 0.13583303228E+01 0.12126385709E+01
 0.10496740668E+01 0.88408966271E+00 0.72923534398E+00 0.59459615331E+00 0.48549484385E+00
 0.40431350788E+00 0.35095901223E+00 0.32306970539E+00 0.31696666446E+00 0.32850207400E+00
 0.35264764698E+00 0.38396628896E+00 0.41692959577E+00 0.44624962777E+00 0.46746275247E+00
 0.47736032448E+00 0.47448401829E+00 0.45925589710E+00 0.43394592158E+00 0.40238675088E+00
 0.36950669284E+00 0.34073458502E+00 0.32157972592E+00 0.31722986461E+00 0.33248014609E+00
 0.34254775584E+00 0.35384686659E+00 0.38694820527E+00 0.43955413403E+00 0.50772500047E+00
 0.58567273833E+00 0.66618280195E+00 0.74107176179E+00 0.80209293477E+00 0.84202937501E+00
 0.85592324854E+00 0.84200945313E+00 0.80207101981E+00 0.74103710669E+00 0.66614880888E+00
 0.58567331264E+00 0.50778130930E+00 0.43962351206E+00 0.38688897661E+00 0.35381691813E+00
 0.34259798975E+00 0.35381691813E+00 0.38688897661E+00 0.43962351206E+00 0.50778130930E+00
 0.58567331264E+00 0.66614880888E+00 0.74103710669E+00 0.80207101981E+00 0.84200945313E+00
 0.85592324854E+00 0.84202937501E+00 0.80209293477E+00 0.74107176179E+00 0.66618280195E+00
 0.58567273833E+00 0.50772500047E+00 0.43955413403E+00 0.38694820527E+00 0.35384686659E+00
 0.37138331532E+00 0.33248014609E+00 0.31722986461E+00 0.32157972592E+00 0.34073458502E+00
 0.36950669284E+00 0.40238675088E+00 0.43394592158E+00 0.45925589710E+00 0.47448401829E+00
 0.47736032448E+00 0.46746275247E+00 0.44624962777E+00 0.41692959577E+00 0.38396628896E+00
 0.35264764698E+00 0.32850207400E+00 0.31696666446E+00 0.32306970539E+00 0.35095901223E+00
 0.40431350788E+00 0.48549484385E+00 0.59459615331E+00 0.72923534398E+00 0.88408966271E+00
 0.10496740668E+01 0.12126385709E+01 0.13583303228E+01 0.14712755912E+01 0.15379116586E+01
 0.15503727903E+01 0.15072224755E+01 0.14134259342E+01 0.12804144334E+01 0.11232883049E+01
 0.95709100860E+00 0.79610572128E+00 0.65154088775E+00 0.53054897623E+00 0.43690066167E+00
 0.46009181787E+00 0.36548759987E+00 0.30399325768E+00 0.26859098284E+00 0.25253149809E+00
 0.24956953074E+00 0.25425066448E+00 0.26196456555E+00 0.26911433697E+00 0.27319769451E+00
 0.27294323325E+00 0.26841700471E+00 0.26104850531E+00 0.25346012384E+00 0.24941603488E+00
 0.25358004990E+00 0.27151016727E+00 0.30944372193E+00 0.37416440607E+00 0.47297139483E+00
 0.61216568874E+00 0.79661809107E+00 0.10284183288E+01 0.13035713142E+01 0.16121822767E+01
 0.19357781242E+01 0.22483230680E+01 0.25199199468E+01 0.27201251392E+01 0.28234390131E+01
 0.28172544700E+01 0.27022908565E+01 0.24927561188E+01 0.22150956038E+01 0.18997936358E+01
 0.15767863234E+01 0.12710031462E+01 0.10003978350E+01 0.77384893174E+00 0.59450442412E+00
 0.61495064242E+00 0.44987226456E+00 0.33635356121E+00 0.26186927526E+00 0.21565877118E+00
 0.18899320007E+00 0.17502462896E+00 0.16863596547E+00 0.16621871440E+00 0.16558146637E+00
 0.16587836220E+00 0.16754790335E+00 0.17229732728E+00 0.18325133787E+00 0.20497674853E+00
 0.24377124424E+00 0.30770931768E+00 0.40692787553E+00 0.55344491403E+00 0.76018972281E+00
 0.10407497715E+01 0.14051627980E+01 0.18580510687E+01 0.23932348096E+01 0.29900260483E+01
 0.36107806531E+01 0.42006603612E+01 0.46993809802E+01 0.50443616575E+01 0.51902070897E+01
 0.51166724200E+01 0.48342840996E+01 0.43802011833E+01 0.38135831655E+01 0.31964543311E+01
 0.25871266057E+01 0.20284018346E+01 0.15464453964E+01 0.11524282157E+01 0.84494220775E+00
 0.84458427630E+00 0.58539270396E+00 0.40756548379E+00 0.28924939181E+00 0.21294198895E+00
 0.16538149057E+00 0.13693485554E+00 0.12093820615E+00 0.11310625777E+00 0.11110852667E+00
 0.11428635122E+00 0.12364040449E+00 0.14194994886E+00 0.17397718580E+00 0.22701848630E+00
 0.31138536618E+00 0.44128642947E+00 0.63511297264E+00 0.91573052740E+00 0.13092767682E+01
 0.18428332630E+01 0.25388135521E+01 0.34070634230E+01 0.44354821585E+01 0.55808578248E+01