unknown system                          
   1.00000000000000     
     2.500784    0.000000    0.000000
     1.250392   -2.165742    4.033331
     0.000000   -4.331484    0.000000
   Co
     4
Direct
  0.625000  0.750000  0.958333
  0.375000  0.250000  0.041667
  0.125000  0.750000  0.458333
  0.875000  0.250000  0.541667
 
   40   72   64
 0.68380868832E+01 0.68608708919E+01 0.69288954381E+01 0.70424050183E+01 0.72008297668E+01
 0.74050664895E+01 0.76522824942E+01 0.79422791215E+01 0.82725549035E+01 0.86365181544E+01
 0.90309984604E+01 0.94487558838E+01 0.98778921138E+01 0.10305484601E+02 0.10720542721E+02
 0.11107382952E+02 0.11450482411E+02 0.11736346002E+02 0.11951309567E+02 0.12085296424E+02
 0.12131148442E+02 0.12085296424E+02 0.11951309567E+02 0.11736346002E+02 0.11450482411E+02
 0.11107382952E+02 0.10720542721E+02 0.10305484601E+02 0.98778921138E+01 0.94487558838E+01
 0.90309984604E+01 0.86365181544E+01 0.82725549035E+01 0.79422791215E+01 0.76522824942E+01
 0.74050664895E+01 0.72008297668E+01 0.70424050183E+01 0.69288954381E+01 0.68608708919E+01
 0.68626111189E+01 0.68988006764E+01 0.69818415691E+01 0.71115231296E+01 0.72883006268E+01
 0.75104645127E+01 0.77791318797E+01 0.80909616382E+01 0.84425977277E+01 0.88324763165E+01
 0.92510478194E+01 0.96890777359E+01 0.10138380144E+02 0.10587254996E+02 0.11018303391E+02
 0.11415913875E+02 0.11764114862E+02 0.12046556488E+02 0.12250543731E+02 0.12365670793E+02
 0.12386409947E+02 0.12312953510E+02 0.12147798427E+02 0.11898645836E+02 0.11577796516E+02
 0.11199529196E+02 0.10781605983E+02 0.10339853798E+02 0.98882278031E+01 0.94430640710E+01
 0.90152110322E+01 0.86123340656E+01 0.82421673305E+01 0.79124055389E+01 0.76245658804E+01
 0.73810628189E+01 0.71845047967E+01 0.70336824928E+01 0.69299496334E+01 0.68728787299E+01
 0.69357519452E+01 0.69893081286E+01 0.70934931615E+01 0.72489246037E+01 0.74551637693E+01
 0.77136748700E+01 0.80215945046E+01 0.83789787627E+01 0.87833037877E+01 0.92261289873E+01
 0.97041782963E+01 0.10208625619E+02 0.10723725529E+02 0.11232673526E+02 0.11720651597E+02
 0.12168184020E+02 0.12554762077E+02 0.12862213049E+02 0.13074198121E+02 0.13180155521E+02
 0.13174372791E+02 0.13055883133E+02 0.12832113598E+02 0.12515322916E+02 0.12121333591E+02
 0.11669250158E+02 0.11176964311E+02 0.10664571264E+02 0.10151868350E+02 0.96510694315E+01
 0.91750815831E+01 0.87351074506E+01 0.83375768502E+01 0.79850098331E+01 0.76820598667E+01
 0.74302438964E+01 0.72288060503E+01 0.70794559065E+01 0.69808307754E+01 0.69330494780E+01
 0.70600451566E+01 0.71363505527E+01 0.72707870562E+01 0.74637492524E+01 0.77168863937E+01
 0.80290315587E+01 0.84027962751E+01 0.88352626346E+01 0.93229915672E+01 0.98653378877E+01
 0.10449658481E+02 0.11062814540E+02 0.11692726911E+02 0.12319120660E+02 0.12911848886E+02
 0.13442961452E+02 0.13888784350E+02 0.14229315232E+02 0.14449958948E+02 0.14539719716E+02
 0.14494148611E+02 0.14316866497E+02 0.14015260123E+02 0.13602204737E+02 0.13096163649E+02
 0.12520280991E+02 0.11904256844E+02 0.11274087362E+02 0.10650139297E+02 0.10054310153E+02
 0.94992775635E+01 0.89923339013E+01 0.85398092764E+01 0.81471366876E+01 0.78142164572E+01
 0.75411698666E+01 0.73287931628E+01 0.71746713342E+01 0.70790389229E+01 0.70408629137E+01
 0.72375098397E+01 0.73457137143E+01 0.75220829262E+01 0.77690328282E+01 0.80877452119E+01
 0.84823295131E+01 0.89511057515E+01 0.94967315595E+01 0.10118456570E+02 0.10805315116E+02
 0.11552512447E+02 0.12341260762E+02 0.13134673225E+02 0.13898842742E+02 0.14758476838E+02
 0.15470611266E+02 0.16068552619E+02 0.16517745300E+02 0.16790215673E+02 0.16868296586E+02
 0.16746585179E+02 0.16432130591E+02 0.15946962176E+02 0.15320934013E+02 0.14590777740E+02
 0.13734079416E+02 0.12957773872E+02 0.12162019910E+02 0.11384497970E+02 0.10648322555E+02
 0.99725513799E+01 0.93688992761E+01 0.88408456642E+01 0.83878844506E+01 0.80107461304E+01
 0.77081244034E+01 0.74766670262E+01 0.73158254007E+01 0.72227585472E+01 0.71968350057E+01
 0.74727452463E+01 0.76239400224E+01 0.78586141942E+01 0.81794119664E+01 0.85921685593E+01
 0.90988612760E+01 0.97073774654E+01 0.10417340581E+02 0.11226540420E+02 0.12130026727E+02
 0.13090073328E+02 0.14195314347E+02 0.15306821222E+02 0.16414220382E+02 0.17468744466E+02
 0.18419699094E+02 0.19209783595E+02 0.19784143498E+02 0.20100078585E+02 0.20132063399E+02
 0.19877570072E+02 0.19358024031E+02 0.18611953391E+02 0.17690044689E+02 0.16652937494E+02
 0.15554524431E+02 0.14442596163E+02 0.13308035260E+02 0.12336491569E+02 0.11420864312E+02
 0.10589380834E+02 0.98560618660E+01 0.92253909236E+01 0.86960096557E+01 0.82632285202E+01
 0.79220006322E+01 0.76691197687E+01 0.74991690530E+01 0.74107444412E+01 0.74018598470E+01
 0.77695034425E+01 0.79800318743E+01 0.82929292383E+01 0.87157083675E+01 0.92543316810E+01
 0.99217850549E+01 0.10721658073E+02 0.11659904482E+02 0.12720597513E+02 0.13980958578E+02
 0.15352617633E+02 0.16823535945E+02 0.18358410458E+02 0.19904455541E+02 0.21385873467E+02
 0.22712041972E+02 0.23789310320E+02 0.24536275398E+02 0.24889375930E+02 0.24818084001E+02
 0.24328641403E+02 0.23462837476E+02 0.22292874352E+02 0.20906373444E+02 0.19393773018E+02
 0.17841415977E+02 0.16320823263E+02 0.14883128779E+02 0.13476465871E+02 0.12354262201E+02
 0.11332338797E+02 0.10439724944E+02 0.96845485029E+01 0.90617011660E+01 0.85619457523E+01
 0.81771520109E+01 0.78983532025E+01 0.77217011382E+01 0.76418917801E+01 0.76579030298E+01
 0.81357400865E+01 0.84240494622E+01 0.88423104300E+01 0.93998088605E+01 0.10113528472E+02
 0.10993866540E+02 0.12052922344E+02 0.13262414524E+02 0.14823760691E+02 0.16528176379E+02
 0.18432233912E+02 0.20514555063E+02 0.22712327516E+02 0.24931773248E+02 0.27053166865E+02
 0.28936688089E+02 0.30434866016E+02 0.31411651129E+02 0.31773750269E+02 0.31483688957E+02
 0.30571234419E+02 0.29125172613E+02 0.27276753853E+02 0.25172416106E+02 0.22958596498E+02
 0.20756028511E+02 0.18658369533E+02 0.16726982576E+02 0.15002458207E+02 0.13406244838E+02
 0.12179368955E+02 0.11104195690E+02 0.10201821908E+02 0.94712806259E+01 0.88970595712E+01
 0.84638609289E+01 0.81618167193E+01 0.79807780117E+01 0.79170789252E+01 0.79679832411E+01
 0.85772535001E+01 0.89696304808E+01 0.95252897476E+01 0.10264730429E+02 0.11206086825E+02
 0.12363982890E+02 0.13824185503E+02 0.15566423746E+02 0.17619540608E+02 0.20011337531E+02
 0.22731154792E+02 0.25732836620E+02 0.28931080494E+02 0.32186060235E+02 0.35301548899E+02
 0.38038740588E+02 0.40147893092E+02 0.41415049714E+02 0.41698502443E+02 0.40966842750E+02
 0.39302789284E+02 0.36885080464E+02 0.33949884270E+02 0.30746290450E+02 0.27493378813E+02
 0.24366418667E+02 0.21482355975E+02 0.18909296117E+02 0.16665139283E+02 0.14755476639E+02
 0.13090230163E+02 0.11822352259E+02 0.10762610871E+02 0.99117469311E+01 0.92572466446E+01
 0.87759126704E+01 0.84518622670E+01 0.82739550690E+01 0.82357332332E+01 0.83355938995E+01
 0.91039375631E+01 0.96300202446E+01 0.10366576045E+02 0.11339387474E+02 0.12565597234E+02
 0.14170711851E+02 0.16130411857E+02 0.18519947205E+02 0.21401456680E+02 0.24805122729E+02
 0.28733996106E+02 0.33143154454E+02 0.37897399830E+02 0.42767165181E+02 0.47421428912E+02
 0.51457529683E+02 0.54453277032E+02 0.56053599497E+02 0.56053731519E+02 0.54453942805E+02
 0.51457371024E+02 0.47421132915E+02 0.42765455554E+02 0.37895961628E+02 0.33143551346E+02
 0.28736380383E+02 0.24804504195E+02 0.21399782332E+02 0.18521491546E+02 0.16129033876E+02
 0.14171464613E+02 0.12565708162E+02 0.11338729565E+02 0.10366862379E+02 0.96296990432E+01
 0.91041011701E+01 0.87649542215E+01 0.85993264419E+01 0.85989559663E+01 0.87651194419E+01
 0.97234603932E+01 0.10423371537E+02 0.11388005764E+02 0.12644052479E+02 0.14335415329E+02
 0.16456527911E+02 0.19123696667E+02 0.22442163845E+02 0.26507271322E+02 0.31406192195E+02
 0.37172435569E+02 0.43742455036E+02 0.50920920007E+02 0.58329869035E+02 0.65403386835E+02
 0.71431082585E+02 0.75685138894E+02 0.77581722147E+02 0.76843829208E+02 0.73580136341E+02
 0.68256292995E+02 0.61555636450E+02 0.54216525819E+02 0.46876582321E+02 0.40000179337E+02
 0.33861625412E+02 0.28579483305E+02 0.24150367330E+02 0.20512860972E+02 0.17567731884E+02
 0.15218422630E+02 0.13289633830E+02 0.11910469736E+02 0.10817844517E+02 0.10003253641E+02
 0.94395663057E+01 0.90940709108E+01 0.89534182255E+01 0.90069873578E+01 0.92604482097E+01
 0.10447441513E+02 0.11359719748E+02 0.12600394213E+02 0.14304807265E+02 0.16509471472E+02
 0.19355250256E+02 0.23001812726E+02 0.27620239268E+02 0.33405078939E+02 0.40518793753E+02
 0.49061110337E+02 0.58977778674E+02 0.69967527515E+02 0.81391918174E+02 0.92257424856E+02
 0.10130845559E+03 0.10727786232E+03 0.10921656461E+03 0.10680134450E+03 0.10043399594E+03
 0.91114885670E+02 0.80127417928E+02 0.68708941223E+02 0.57814419794E+02 0.48042644450E+02
 0.39658865871E+02 0.32698427968E+02 0.27053631092E+02 0.22551667457E+02 0.19002040928E+02
 0.16236020486E+02 0.14093122245E+02 0.12446549242E+02 0.11242374809E+02 0.10364564049E+02
 0.97709122726E+01 0.94362768736E+01 0.93325757503E+01 0.94616237097E+01 0.98236792783E+01
 0.11278793713E+02 0.12448485434E+02 0.14091539983E+02 0.16287051005E+02 0.19190613520E+02
 0.23007568145E+02 0.27984835384E+02 0.34431300117E+02 0.42679987056E+02 0.53064506975E+02
 0.65810670498E+02 0.80895045481E+02 0.97850784972E+02 0.11558977802E+03 0.13234073297E+03
 0.14586464047E+03 0.15396582446E+03 0.15517502007E+03 0.14926030735E+03 0.13732304999E+03
 0.12138885091E+03 0.10375292296E+03 0.86378481063E+02 0.70591072937E+02 0.57043834153E+02
 0.45890411601E+02 0.36962340266E+02 0.29955138979E+02 0.24523286027E+02 0.20351872864E+02
 0.17165405540E+02 0.14756285171E+02 0.12918922435E+02 0.11627324845E+02 0.10698652767E+02
 0.10094601000E+02 0.97820964708E+01 0.97376582079E+01 0.99599777443E+01 0.10462746389E+02
 0.12218754279E+02 0.13655224480E+02 0.15826890745E+02 0.18654755486E+02 0.22462109449E+02
 0.27546762684E+02 0.34322304580E+02 0.43287389046E+02 0.55045349744E+02 0.70200061336E+02
 0.89229944378E+02 0.11218992627E+03 0.13834311862E+03 0.16577826956E+03 0.19133138533E+03
 0.21105410149E+03 0.22130080587E+03 0.21998360191E+03 0.20737899644E+03 0.18601321573E+03
 0.15971360190E+03 0.13233117263E+03 0.10676949839E+03 0.84653650515E+02 0.66510351708E+02
 0.52159720279E+02 0.41076532980E+02 0.32646120920E+02 0.26286203484E+02 0.21517589381E+02
 0.17950521555E+02 0.15305434624E+02 0.13304232427E+02 0.11950914519E+02 0.10993967043E+02
 0.10397595223E+02 0.10128410790E+02 0.10160966615E+02 0.10501444170E+02 0.11173100471E+02
 0.13244719369E+02 0.15184943975E+02 0.17822777688E+02 0.21442996706E+02 0.26376217508E+02
 0.33097192498E+02 0.42233281529E+02 0.54615654799E+02 0.71240218162E+02 0.93197270584E+02
 0.12137913670E+03 0.15598110016E+03 0.19574025425E+03 0.23724620854E+03 0.27488862915E+03
 0.30205204801E+03 0.31324001677E+03 0.30606152649E+03 0.28205751903E+03 0.24617578501E+03
 0.20498160177E+03 0.16445472839E+03 0.12852931638E+03 0.98899963930E+02 0.75621723645E+02
 0.57904633938E+02 0.44671271790E+02 0.34892821887E+02 0.27696094387E+02 0.22412532947E+02
 0.18531965872E+02 0.15701619181E+02 0.13587093073E+02 0.12201121884E+02 0.11242122436E+02
 0.10675807152E+02 0.10470040053E+02 0.10599618854E+02 0.11084507631E+02 0.11950193512E+02
 0.14438922775E+02 0.16797900040E+02 0.20083112728E+02 0.24642643328E+02 0.30953247362E+02
 0.39706334267E+02 0.51860372245E+02 0.68703942669E+02 0.91853183828E+02 0.12311794483E+03
 0.16401963176E+03 0.21483426972E+03 0.27314530594E+03 0.33270055951E+03 0.38397612036E+03
 0.41722323323E+03 0.42598859720E+03 0.40863819080E+03 0.36844545130E+03 0.31325530369E+03
 0.25317568502E+03 0.19687174168E+03 0.14925698934E+03 0.11168672223E+03 0.83324330213E+02
 0.62476591812E+02 0.47357618666E+02 0.36465601187E+02 0.28615485770E+02 0.22956321481E+02
 0.18863583573E+02 0.15924424995E+02 0.13753937026E+02 0.12369257525E+02 0.11434131961E+02
 0.10924119747E+02 0.10799138298E+02 0.11050399801E+02 0.11695350486E+02 0.12783403129E+02
 0.15686647219E+02 0.18541575404E+02 0.22566723797E+02 0.28201697780E+02 0.36126999850E+02
 0.47307175573E+02 0.63136588900E+02 0.85524279603E+02 0.11693730232E+03 0.16015041602E+03
 0.21740320271E+03 0.28855234342E+03 0.36846078311E+03 0.44561052614E+03 0.50542745238E+03
 0.53766282076E+03 0.53936625149E+03 0.51047989146E+03 0.45336571481E+03 0.37743358541E+03
 0.29715638696E+03 0.22466426177E+03 0.16579190263E+03 0.12110677030E+03 0.88518332530E+02
 0.65259799711E+02 0.48805829870E+02 0.37187447203E+02 0.28954763009E+02 0.23103358062E+02
 0.18923869645E+02 0.15957793739E+02 0.13803123024E+02 0.12448531238E+02 0.11568203337E+02
 0.11134646879E+02 0.11111364873E+02 0.11499418650E+02 0.12326389704E+02 0.13630459994E+02
 0.16970682025E+02 0.20369918982E+02 0.25187023015E+02 0.32005969163E+02 0.41717801828E+02
 0.55629951641E+02 0.75650795860E+02 0.10445091255E+03 0.14550438586E+03 0.20263673929E+03
 0.27847309350E+03 0.37100936891E+03 0.46922344259E+03 0.55297988518E+03 0.60452546216E+03
 0.62342287762E+03 0.61839988158E+03 0.58608492298E+03 0.51895440925E+03 0.42601920546E+03
 0.32827389464E+03 0.24242544753E+03 0.17503237604E+03 0.12549807649E+03 0.90361999757E+02
 0.65847721718E+02 0.48821828395E+02 0.36972326589E+02 0.28678213133E+02 0.22839982758E+02
 0.18709678360E+02 0.15804141396E+02 0.13732952533E+02 0.12439104540E+02 0.11644406433E+02
 0.11304559285E+02 0.11403151933E+02 0.11936239996E+02 0.12956264843E+02 0.14581607751E+02
 0.18242968069E+02 0.22196338557E+02 0.27819246941E+02 0.35851362283E+02 0.47405223748E+02
 0.64148962554E+02 0.88533699414E+02 0.12401615884E+03 0.17503520258E+03 0.24620355028E+03
 0.33953321490E+03 0.44871573635E+03 0.55298319423E+03 0.62220235577E+03 0.64395916813E+03
 0.64334387980E+03 0.64395934293E+03 0.62220308682E+03 0.55298378221E+03 0.44871580555E+03
 0.33953405259E+03 0.24620467343E+03 0.17503570465E+03 0.12401600173E+03 0.88533313492E+02
 0.64148464516E+02 0.47405223249E+02 0.35851819287E+02 0.27819397779E+02 0.22196789265E+02
 0.18243031988E+02 0.15479928152E+02 0.13553062378E+02 0.12351905898E+02 0.11664325006E+02
 0.11435921668E+02 0.11664111477E+02 0.12351647625E+02 0.13552871955E+02 0.15479980165E+02
 0.19439723886E+02 0.23911642768E+02 0.30292612259E+02 0.39458837450E+02 0.52722424241E+02
 0.72075674821E+02 0.10043415164E+03 0.14187249835E+03 0.20147097985E+03 0.28392041807E+03
 0.38934274976E+03 0.50544021409E+03 0.60156485939E+03 0.64340421738E+03 0.63371717379E+03
 0.62707226260E+03 0.64291572158E+03 0.62807146493E+03 0.55297827393E+03 0.44102760734E+03
 0.32827552589E+03 0.23510717975E+03 0.16580134144E+03 0.11695085587E+03 0.83353877394E+02
 0.60423820538E+02 0.44747080023E+02 0.33957592157E+02 0.26467162843E+02 0.21233254354E+02
 0.17566308420E+02 0.15013171269E+02 0.13272021932E+02 0.12195101554E+02 0.11630446960E+02
 0.11526673970E+02 0.11885995680E+02 0.12728493351E+02 0.14084958152E+02 0.16317823664E+02
 0.20483531959E+02 0.25393127560E+02 0.32406699316E+02 0.42491621751E+02 0.57110718270E+02
 0.78456680985E+02 0.10970516982E+03 0.15518731994E+03 0.22000888677E+03 0.30811737720E+03
 0.41723967972E+03 0.53084192192E+03 0.61574850195E+03 0.64434878913E+03 0.63373240119E+03
 0.63510172556E+03 0.64395600665E+03 0.60884406821E+03 0.51893773433E+03 0.40442894183E+03
 0.29715788301E+03 0.21170134825E+03 0.14927316311E+03 0.10561909925E+03 0.75663233950E+02
 0.55201215959E+02 0.41179774799E+02 0.31496759547E+02 0.24758745160E+02 0.20037695820E+02
 0.16735592481E+02 0.14342201122E+02 0.12908996515E+02 0.11981835872E+02 0.11547820182E+02
 0.11573686790E+02 0.12058377251E+02 0.13044299791E+02 0.14653561061E+02 0.17046052038E+02
 0.21293234593E+02 0.26516060592E+02 0.33954938042E+02 0.44619705866E+02 0.60018784743E+02
 0.82368837892E+02 0.11480851131E+03 0.16143124607E+03 0.22669436426E+03 0.31325204047E+03
 0.41721673578E+03 0.52230644124E+03 0.60152762648E+03 0.63764914512E+03 0.64395358170E+03
 0.64165006319E+03 0.61836494204E+03 0.55293514655E+03 0.45333890481E+03 0.34647817539E+03
 0.25317661847E+03 0.18091208309E+03 0.12854962847E+03 0.91876655593E+02 0.66562978294E+02
 0.49133825870E+02 0.37089118048E+02 0.28707071021E+02 0.22835437734E+02 0.18700971326E+02
 0.15805366555E+02 0.13758015128E+02 0.12485559807E+02 0.11723451626E+02 0.11423315704E+02
 0.11574862114E+02 0.12175353382E+02 0.13281145455E+02 0.15047285074E+02 0.17618881612E+02
 0.21800721670E+02 0.27171946974E+02 0.34772057790E+02 0.45581319040E+02 0.61036527407E+02
 0.83184084004E+02 0.11480472334E+03 0.15930362362E+03 0.21998833430E+03 0.29809821392E+03
 0.38928083772E+03 0.48048580344E+03 0.55289807302E+03 0.59388097219E+03 0.60445488008E+03
 0.58760230952E+03 0.53929840348E+03 0.46117278598E+03 0.36841414782E+03 0.27933486083E+03
 0.20498275047E+03 0.14812025226E+03 0.10679086594E+03 0.77553468474E+02 0.57106048615E+02
 0.42837227460E+02 0.32845900012E+02 0.25813975463E+02 0.20837472916E+02 0.17314993020E+02
 0.14831045982E+02 0.13120669776E+02 0.12034476591E+02 0.11436283790E+02 0.11267383482E+02
 0.11530851650E+02 0.12231463189E+02 0.13427255210E+02 0.15310375694E+02 0.17993843118E+02
 0.21960736102E+02 0.27295625983E+02 0.34765088602E+02 0.45251338216E+02 0.60013772371E+02
 0.80764522143E+02 0.10969586487E+03 0.14925576406E+03 0.20143659954E+03 0.26623046937E+03
 0.33945004621E+03 0.41140581346E+03 0.46910491237E+03 0.50196104733E+03 0.50531563965E+03
 0.47881043121E+03 0.42591166214E+03 0.35598804383E+03 0.28202793976E+03 0.21481149109E+03
 0.15971430004E+03 0.11748288884E+03 0.86401424750E+02 0.64037836455E+02 0.48109483106E+02
 0.36797742673E+02 0.28743603025E+02 0.22997800881E+02 0.18879059726E+02 0.15947904618E+02
 0.13811954568E+02 0.12461672871E+02 0.11576966454E+02 0.11131465856E+02 0.11086966544E+02
 0.11443119797E+02 0.12223818584E+02 0.13474482455E+02 0.15420192186E+02 0.18138881497E+02
 0.21759770878E+02 0.26874907323E+02 0.33935792766E+02 0.43674814755E+02 0.57105636178E+02
 0.75515228403E+02 0.10042606115E+03 0.13331041933E+03 0.17499799430E+03 0.22460996133E+03
 0.27838850646E+03 0.32926874539E+03 0.36834145292E+03 0.38786025106E+03 0.38386657511E+03
 0.35716681098E+03 0.31317310174E+03 0.26037429566E+03 0.20735487987E+03 0.16012920534E+03
 0.12138972685E+03 0.91304107113E+02 0.68733989383E+02 0.52145093469E+02 0.40074056882E+02
 0.31324794053E+02 0.24985318146E+02 0.20386397900E+02 0.17054941988E+02 0.14653894143E+02
 0.12950357437E+02 0.11822194086E+02 0.11130433936E+02 0.10826031051E+02 0.10885804874E+02
 0.11315880399E+02 0.12147473139E+02 0.13422988833E+02 0.15369734303E+02 0.18044759610E+02
 0.21216691043E+02 0.25957924146E+02 0.32381204652E+02 0.41058442550E+02 0.52723622103E+02
 0.68246336478E+02 0.88534098490E+02 0.11427110860E+03 0.14547658776E+03 0.18086908052E+03
 0.21733414891E+03 0.24995532082E+03 0.27304873390E+03 0.28196786144E+03 0.27480270807E+03
 0.25309220542E+03 0.22125111338E+03 0.18494317834E+03 0.14924173693E+03 0.11747830809E+03
 0.91115589215E+02 0.70248921014E+02 0.54241295501E+02 0.42191564560E+02 0.33223009918E+02
 0.26579415735E+02 0.21675101978E+02 0.18058323141E+02 0.15410159499E+02 0.13445045348E+02
 0.12130331273E+02 0.11234174453E+02 0.10709497132E+02 0.10531448785E+02 0.10673418899E+02
 0.11158568626E+02 0.12010676920E+02 0.13280107772E+02 0.15163264902E+02 0.17721707426E+02
 0.20388347373E+02 0.24638304323E+02 0.30276282892E+02 0.37709104711E+02 0.47423467690E+02
 0.59931748580E+02 0.75669526706E+02 0.94804022201E+02 0.11693136391E+03 0.14077028986E+03
 0.16398000028E+03 0.18338249624E+03 0.19567865962E+03 0.19850224370E+03 0.19127645730E+03
 0.17545065177E+03 0.15393285297E+03 0.13009091324E+03 0.10678549441E+03 0.85889552212E+02
 0.68256308603E+02 0.53997360913E+02 0.42790162100E+02 0.34155811815E+02 0.27573187861E+02
 0.22600661088E+02 0.18854497135E+02 0.16057488379E+02 0.13892889160E+02 0.12459941547E+02
 0.11403072988E+02 0.10710463038E+02 0.10336821076E+02 0.10258624042E+02 0.10464523412E+02
 0.10977164968E+02 0.11823557049E+02 0.13052882060E+02 0.14821643061E+02 0.17198600428E+02
 0.19348019467E+02 0.23040692220E+02 0.27827410181E+02 0.33975261808E+02 0.41766644710E+02
 0.51458397018E+02 0.63185456514E+02 0.76833194891E+02 0.91878735134E+02 0.10725850417E+03
 0.12137293770E+03 0.13231215226E+03 0.13831552473E+03 0.13831544777E+03 0.13231192252E+03
 0.12137204239E+03 0.10725732079E+03 0.91877855175E+02 0.76833255866E+02 0.63185837609E+02
 0.51457762935E+02 0.41765856893E+02 0.33975162098E+02 0.27827305381E+02 0.23041406003E+02
 0.19348097279E+02 0.16523055760E+02 0.14375962238E+02 0.12760234887E+02 0.11603058877E+02
 0.10786233281E+02 0.10269059705E+02 0.10018522241E+02 0.10018608785E+02 0.10269050145E+02
 0.10786815986E+02 0.11603797348E+02 0.12760764992E+02 0.14376016439E+02 0.16523553310E+02
 0.18183491684E+02 0.21300957417E+02 0.25242062727E+02 0.30169787501E+02 0.36223223629E+02
 0.43494433710E+02 0.51952025300E+02 0.61384005589E+02 0.71302779167E+02 0.80934037914E+02
 0.89256944110E+02 0.95192360440E+02 0.97853701878E+02 0.96817738594E+02 0.92250162358E+02
 0.84861126058E+02 0.75676318527E+02 0.65772675957E+02 0.56045580068E+02 0.47113586860E+02
 0.39303596485E+02 0.32715201960E+02 0.27301128789E+02 0.22941404311E+02 0.19475851994E+02
 0.16757810658E+02 0.14642551712E+02 0.13001395338E+02 0.11801802290E+02 0.10912850872E+02
 0.10297327445E+02 0.99259084701E+01 0.97729569368E+01 0.98319688332E+01 0.10103700464E+02
 0.10606693912E+02 0.11369452408E+02 0.12429163269E+02 0.13795224905E+02 0.15752753392E+02
 0.16983413868E+02 0.19539959033E+02 0.22698883566E+02 0.26540988073E+02 0.31117509045E+02
 0.36429048857E+02 0.42380863263E+02 0.48747723938E+02 0.55151684447E+02 0.61065357067E+02
 0.65875383568E+02 0.68993942979E+02 0.69999112959E+02 0.68746299736E+02 0.65414348017E+02
 0.60449866920E+02 0.54452477604E+02 0.48029618110E+02 0.41693872888E+02 0.35805613959E+02
 0.30571314223E+02 0.26076331239E+02 0.22316780585E+02 0.19226770907E+02 0.16734203042E+02
 0.14742833990E+02 0.13155183487E+02 0.11969751261E+02 0.11058919631E+02 0.10392893037E+02
 0.99464173355E+01 0.96892574602E+01 0.96128255421E+01 0.97083935008E+01 0.99868903254E+01
 0.10456197126E+02 0.11148509457E+02 0.12087921963E+02 0.13303205561E+02 0.14942530385E+02
 0.15821758822E+02 0.17861576214E+02 0.20329667869E+02 0.23249446669E+02 0.26632194563E+02
 0.30429911074E+02 0.34536823889E+02 0.38763120803E+02 0.42838055598E+02 0.46422766311E+02
 0.49162431233E+02 0.50744842852E+02 0.50977659857E+02 0.49830547705E+02 0.47448038909E+02
 0.44106200590E+02 0.40155283686E+02 0.35944100538E+02 0.31771503603E+02 0.27854022469E+02
 0.24329220220E+02 0.21252313212E+02 0.18634598916E+02 0.16457800176E+02 0.14669408350E+02
 0.13211294818E+02 0.12094451167E+02 0.11211778202E+02 0.10542678127E+02 0.10063079792E+02
 0.97472427130E+01 0.95821464491E+01 0.95587217856E+01 0.96764430757E+01 0.99394638075E+01
 0.10362668069E+02 0.10964786512E+02 0.11775038860E+02 0.12812819358E+02 0.14075172839E+02
 0.14756450116E+02 0.16342727524E+02 0.18217109921E+02 0.20387753183E+02 0.22830190224E+02
 0.25494692954E+02 0.28284112437E+02 0.31054525475E+02 0.33621179678E+02 0.35775215476E+02
 0.37313437449E+02 0.38076634249E+02 0.37979949416E+02 0.37034089838E+02 0.35342051993E+02
 0.33077429858E+02 0.30448090371E+02 0.27660178599E+02 0.24888976262E+02 0.22267283403E+02
 0.19877426583E+02 0.17774023845E+02 0.15967703743E+02 0.14347023221E+02 0.13170600956E+02
 0.12166303739E+02 0.11357775594E+02 0.10728355699E+02 0.10258083691E+02 0.99251662318E+01
 0.97157929245E+01 0.96195970348E+01 0.96312353001E+01 0.97524007213E+01 0.99886964418E+01
 0.10351127183E+02 0.10854591921E+02 0.11521532335E+02 0.12372436093E+02 0.13417174574E+02
 0.13803175044E+02 0.15028361860E+02 0.16410788696E+02 0.17976568340E+02 0.19703096793E+02
 0.21536874205E+02 0.23399905176E+02 0.25191828688E+02 0.26790234899E+02 0.28070420141E+02
 0.28918210406E+02 0.29252191058E+02 0.29038640645E+02 0.28299881094E+02 0.27107556967E+02
 0.25569589824E+02 0.23809748247E+02 0.21951244475E+02 0.20102069486E+02 0.18347223602E+02
 0.16746741022E+02 0.15318777900E+02 0.14034788997E+02 0.13041775259E+02 0.12191532946E+02
 0.11499599149E+02 0.10951200739E+02 0.10531688009E+02 0.10221871164E+02 0.10009272115E+02
 0.98823274699E+01 0.98350087489E+01 0.98651820990E+01 0.99736710310E+01 0.10166058270E+02
 0.10452502731E+02 0.10846877809E+02 0.11365133635E+02 0.12026031536E+02 0.12839331525E+02
 0.13098179850E+02 0.13911221658E+02 0.14920871627E+02 0.16014122950E+02 0.17192732097E+02
 0.18419253850E+02 0.19638589540E+02 0.20778146806E+02 0.21760469620E+02 0.22509708234E+02
 0.22961929636E+02 0.23077870464E+02 0.22847213372E+02 0.22289804699E+02 0.21454389925E+02
 0.20410322712E+02 0.19235936513E+02 0.18008822300E+02 0.16794003578E+02 0.15638102559E+02
 0.14494033971E+02 0.13631240688E+02 0.12849420106E+02 0.12186141100E+02 0.11642343739E+02
 0.11209129158E+02 0.10876990973E+02 0.10629233323E+02 0.10454265002E+02 0.10339424896E+02
 0.10277363742E+02 0.10262281981E+02 0.10292725351E+02 0.10371745344E+02 0.10506203119E+02
 0.10704518178E+02 0.10978533268E+02 0.11341534462E+02 0.11808987595E+02 0.12394345453E+02
 0.12567959710E+02 0.13107602668E+02 0.13723196958E+02 0.14383446606E+02 0.15223379981E+02
 0.16013647979E+02 0.16780116238E+02 0.17479343748E+02 0.18062505960E+02 0.18485775077E+02
 0.18713293776E+02 0.18725594002E+02 0.18521319472E+02 0.18118639003E+02 0.17551584519E+02
 0.16864261846E+02 0.16101417921E+02 0.15309298922E+02 0.14456421753E+02 0.13796637501E+02
 0.13174523470E+02 0.12622803456E+02 0.12163320718E+02 0.11792120232E+02 0.11509331708E+02
 0.11304400349E+02 0.11160848315E+02 0.11066998650E+02 0.11008915447E+02 0.10977030753E+02
 0.10962432177E+02 0.10961582209E+02 0.10974379035E+02 0.11004191927E+02 0.11057753569E+02
 0.11146900091E+02 0.11284455955E+02 0.11484420198E+02 0.11757887287E+02 0.12116148697E+02
 0.12240199940E+02 0.12520762549E+02 0.12866410754E+02 0.13264118325E+02 0.13690997941E+02
 0.14114251869E+02 0.14625294606E+02 0.15029951443E+02 0.15359847510E+02 0.15585558355E+02
 0.15687613830E+02 0.15658009211E+02 0.15499502502E+02 0.15224112678E+02 0.14856141316E+02
 0.14337007289E+02 0.13928164965E+02 0.13502066303E+02 0.13082625107E+02 0.12703815878E+02
 0.12386376789E+02 0.12139380999E+02 0.11964311138E+02 0.11861682235E+02 0.11816424505E+02
 0.11815854788E+02 0.11848330304E+02 0.11896839553E+02 0.11947160700E+02 0.11985645758E+02
 0.12004524106E+02 0.11999232718E+02 0.11970789488E+02 0.11925780311E+02 0.11875606972E+02
 0.11832573043E+02 0.11811753127E+02 0.11828205009E+02 0.11898723970E+02 0.12034219216E+02
 0.12130882217E+02 0.12163562253E+02 0.12261080735E+02 0.12412220843E+02 0.12601325821E+02
 0.12812455579E+02 0.13023067509E+02 0.13211190641E+02 0.13357645410E+02 0.13450597264E+02
 0.13482640075E+02 0.13450947290E+02 0.13357728362E+02 0.13211716070E+02 0.13024647331E+02
 0.12814278004E+02 0.12600807761E+02 0.12409872015E+02 0.12261580963E+02 0.12164750719E+02
 0.12131251204E+02 0.12164750719E+02 0.12261580963E+02 0.12409872015E+02 0.12600807761E+02
 0.12814278004E+02 0.13024647331E+02 0.13211716070E+02 0.13357728362E+02 0.13450947290E+02
 0.13482640075E+02 0.13450597264E+02 0.13357645410E+02 0.13211190641E+02 0.13023067509E+02
 0.12812455579E+02 0.12601325821E+02 0.12412220843E+02 0.12261080735E+02 0.12163562253E+02
 0.12240199940E+02 0.12034219216E+02 0.11898723970E+02 0.11828205009E+02 0.11811753127E+02
 0.11832573043E+02 0.11875606972E+02 0.11925780311E+02 0.11970789488E+02 0.11999232718E+02
 0.12004524106E+02 0.11985645758E+02 0.11947160700E+02 0.11896839553E+02 0.11848330304E+02
 0.11815854788E+02 0.11816424505E+02 0.11861682235E+02 0.11964311138E+02 0.12139380999E+02
 0.12386376789E+02 0.12703815878E+02 0.13082625107E+02 0.13502066303E+02 0.13928164965E+02
 0.14337007289E+02 0.14856141316E+02 0.15224112678E+02 0.15499502502E+02 0.15658009211E+02
 0.15687613830E+02 0.15585558355E+02 0.15359847510E+02 0.15029951443E+02 0.14625294606E+02
 0.14114251869E+02 0.13690997941E+02 0.13264118325E+02 0.12866410754E+02 0.12520762549E+02
 0.12567959710E+02 0.12116148697E+02 0.11757887287E+02 0.11484420198E+02 0.11284455955E+02
 0.11146900091E+02 0.11057753569E+02 0.11004191927E+02 0.10974379035E+02 0.10961582209E+02
 0.10962432177E+02 0.10977030753E+02 0.11008915447E+02 0.11066998650E+02 0.11160848315E+02
 0.11304400349E+02 0.11509331708E+02 0.11792120232E+02 0.12163320718E+02 0.12622803456E+02
 0.13174523470E+02 0.13796637501E+02 0.14456421753E+02 0.15309298922E+02 0.16101417921E+02
 0.16864261846E+02 0.17551584519E+02 0.18118639003E+02 0.18521319472E+02 0.18725594002E+02
 0.18713293776E+02 0.18485775077E+02 0.18062505960E+02 0.17479343748E+02 0.16780116238E+02
 0.16013647979E+02 0.15223379981E+02 0.14383446606E+02 0.13723196958E+02 0.13107602668E+02
 0.13098179850E+02 0.12394345453E+02 0.11808987595E+02 0.11341534462E+02 0.10978533268E+02
 0.10704518178E+02 0.10506203119E+02 0.10371745344E+02 0.10292725351E+02 0.10262281981E+02
 0.10277363742E+02 0.10339424896E+02 0.10454265002E+02 0.10629233323E+02 0.10876990973E+02
 0.11209129158E+02 0.11642343739E+02 0.12186141100E+02 0.12849420106E+02 0.13631240688E+02
 0.14494033971E+02 0.15638102559E+02 0.16794003578E+02 0.18008822300E+02 0.19235936513E+02
 0.20410322712E+02 0.21454389925E+02 0.22289804699E+02 0.22847213372E+02 0.23077870464E+02
 0.22961929636E+02 0.22509708234E+02 0.21760469620E+02 0.20778146806E+02 0.19638589540E+02
 0.18419253850E+02 0.17192732097E+02 0.16014122950E+02 0.14920871627E+02 0.13911221658E+02
 0.13803175044E+02 0.12839331525E+02 0.12026031536E+02 0.11365133635E+02 0.10846877809E+02
 0.10452502731E+02 0.10166058270E+02 0.99736710310E+01 0.98651820990E+01 0.98350087489E+01
 0.98823274699E+01 0.10009272115E+02 0.10221871164E+02 0.10531688009E+02 0.10951200739E+02
 0.11499599149E+02 0.12191532946E+02 0.13041775259E+02 0.14034788997E+02 0.15318777900E+02
 0.16746741022E+02 0.18347223602E+02 0.20102069486E+02 0.21951244475E+02 0.23809748247E+02