unknown system                          
   1.00000000000000     
     2.500784    0.000000    0.000000
     1.250392   -2.165742    4.033331
     0.000000   -4.331484    0.000000
   Co
     4
Direct
  0.625000  0.750000  0.958333
  0.375000  0.250000  0.041667
  0.125000  0.750000  0.458333
  0.875000  0.250000  0.541667
 
   40   72   64
 0.83846837899E+01 0.84064944201E+01 0.84718240135E+01 0.85804287915E+01 0.87320921015E+01
 0.89268378446E+01 0.91650952344E+01 0.94477054355E+01 0.97756707754E+01 0.10149586125E+02
 0.10568754559E+02 0.11030066547E+02 0.11526804318E+02 0.12047609093E+02 0.12575900054E+02
 0.13090033727E+02 0.13564414411E+02 0.13971599693E+02 0.14285210147E+02 0.14483206341E+02
 0.14550921017E+02 0.14483206341E+02 0.14285210147E+02 0.13971599693E+02 0.13564414411E+02
 0.13090033727E+02 0.12575900054E+02 0.12047609093E+02 0.11526804318E+02 0.11030066547E+02
 0.10568754559E+02 0.10149586125E+02 0.97756707754E+01 0.94477054355E+01 0.91650952344E+01
 0.89268378446E+01 0.87320921015E+01 0.85804287915E+01 0.84718240135E+01 0.84064944201E+01
 0.84078717101E+01 0.84420285191E+01 0.85199734085E+01 0.86415151437E+01 0.88066234679E+01
 0.90156727233E+01 0.92695942842E+01 0.95698168777E+01 0.99178965348E+01 0.10314788549E+02
 0.10759785870E+02 0.11249233508E+02 0.11775217677E+02 0.12324507729E+02 0.12878075542E+02
 0.13411499768E+02 0.13896453552E+02 0.14303267508E+02 0.14604287063E+02 0.14777477988E+02
 0.14809571809E+02 0.14698062991E+02 0.14451594221E+02 0.14088638210E+02 0.13634786529E+02
 0.13119257516E+02 0.12571348088E+02 0.12017466046E+02 0.11479148119E+02 0.10972188505E+02
 0.10506760046E+02 0.10088256541E+02 0.97185294391E+01 0.93972143422E+01 0.91229110211E+01
 0.88940675742E+01 0.87095075868E+01 0.85686180416E+01 0.84712768813E+01 0.84176347665E+01
 0.84774328538E+01 0.85247957410E+01 0.86169879106E+01 0.87541380861E+01 0.89368640588E+01
 0.91665779047E+01 0.94456208087E+01 0.97770824100E+01 0.10164201728E+02 0.10609315642E+02
 0.11112410882E+02 0.11669440373E+02 0.12270674356E+02 0.12899452149E+02 0.13531749476E+02
 0.14136937870E+02 0.14679950847E+02 0.15124782695E+02 0.15438880994E+02 0.15597661483E+02
 0.15588205381E+02 0.15411291182E+02 0.15081270574E+02 0.14623818869E+02 0.14072100818E+02
 0.13462223979E+02 0.12828912543E+02 0.12202141812E+02 0.11605130899E+02 0.11053730515E+02
 0.10556966513E+02 0.10118352845E+02 0.97375608758E+01 0.94120882468E+01 0.91386687606E+01
 0.89142745953E+01 0.87366657435E+01 0.86045295071E+01 0.85173190982E+01 0.84749392179E+01
 0.85934811552E+01 0.86557061169E+01 0.87649934583E+01 0.89223407055E+01 0.91297832317E+01
 0.93907197119E+01 0.97099487492E+01 0.10093248188E+02 0.10546393149E+02 0.11073601187E+02
 0.11675509230E+02 0.12346920637E+02 0.13074698138E+02 0.13836294322E+02 0.14599463354E+02
 0.15323628124E+02 0.15963135302E+02 0.16472214109E+02 0.16810946353E+02 0.16951122507E+02
 0.16880692287E+02 0.16605737535E+02 0.16149471320E+02 0.15548516427E+02 0.14847376725E+02
 0.14092364738E+02 0.13326204012E+02 0.12584161160E+02 0.11892057873E+02 0.11266052028E+02
 0.10713773512E+02 0.10236277789E+02 0.98302984682E+01 0.94903803511E+01 0.92106083197E+01
 0.89857842600E+01 0.88120273161E+01 0.86868735464E+01 0.86090253394E+01 0.85779438491E+01
 0.87566404571E+01 0.88367432997E+01 0.89681728948E+01 0.91536909563E+01 0.93977978316E+01
 0.97069346109E+01 0.10089252141E+02 0.10553772126E+02 0.11108857100E+02 0.11760027008E+02
 0.12507300712E+02 0.13342390999E+02 0.14246231974E+02 0.15187448788E+02 0.16197138672E+02
 0.17141182689E+02 0.17976268386E+02 0.18629896981E+02 0.19037740185E+02 0.19155852570E+02
 0.18971030984E+02 0.18503842221E+02 0.17803922093E+02 0.16938166024E+02 0.15979828220E+02
 0.14977112985E+02 0.14040845538E+02 0.13150016520E+02 0.12333205503E+02 0.11606907258E+02
 0.10977329067E+02 0.10442985889E+02 0.99975089902E+01 0.96322219017E+01 0.93381888813E+01
 0.91075899807E+01 0.89344139161E+01 0.88145751616E+01 0.87456455687E+01 0.87264341071E+01
 0.89687550630E+01 0.90721439924E+01 0.92344705032E+01 0.94614195970E+01 0.97610446924E+01
 0.10143578393E+02 0.10620671498E+02 0.11203932443E+02 0.11902768838E+02 0.12721668709E+02
 0.13657175019E+02 0.14740729137E+02 0.15946909429E+02 0.17244822009E+02 0.18576664072E+02
 0.19856387231E+02 0.20976058762E+02 0.21823362483E+02 0.22301203977E+02 0.22350271657E+02
 0.21964303418E+02 0.21191697008E+02 0.20123227042E+02 0.18868998884E+02 0.17540652249E+02
 0.16228939447E+02 0.14998608613E+02 0.13879702093E+02 0.12919797689E+02 0.12074346654E+02
 0.11348985912E+02 0.10740726973E+02 0.10241005033E+02 0.98384914211E+01 0.95213929576E+01
 0.92790726726E+01 0.91029593549E+01 0.89868473539E+01 0.89267886908E+01 0.89208216313E+01
 0.92338942947E+01 0.93698936536E+01 0.95774670238E+01 0.98663484823E+01 0.10248755021E+02
 0.10738393120E+02 0.11348842971E+02 0.12091373584E+02 0.12972396656E+02 0.14028408455E+02
 0.15285010694E+02 0.16748825153E+02 0.18409117767E+02 0.20220070849E+02 0.22092007725E+02
 0.23888185423E+02 0.25435068112E+02 0.26553899179E+02 0.27096622731E+02 0.26986282250E+02
 0.26238789135E+02 0.24958349407E+02 0.23308200448E+02 0.21468839793E+02 0.19603958607E+02
 0.17835532855E+02 0.16237826501E+02 0.14843262147E+02 0.13636534384E+02 0.12663218518E+02
 0.11828662867E+02 0.11131165983E+02 0.10562403020E+02 0.10110064042E+02 0.97603090484E+01
 0.94997798852E+01 0.93170057162E+01 0.92032065004E+01 0.91526404366E+01 0.91626956516E+01
 0.95594837980E+01 0.97431776845E+01 0.10017822716E+02 0.10397724949E+02 0.10898530525E+02
 0.11534890983E+02 0.12317758044E+02 0.13251787549E+02 0.14432957283E+02 0.15860561802E+02
 0.17584711896E+02 0.19629592851E+02 0.21984918732E+02 0.24584447150E+02 0.27286128184E+02
 0.29867229342E+02 0.32044728083E+02 0.33526235801E+02 0.34087245906E+02 0.33637038115E+02
 0.32248735490E+02 0.30134605577E+02 0.27583775493E+02 0.24882877545E+02 0.22263479503E+02
 0.19876517951E+02 0.17795786364E+02 0.16036716520E+02 0.14578211347E+02 0.13364831063E+02
 0.12414063331E+02 0.11614493169E+02 0.10962300807E+02 0.10447113403E+02 0.10054554065E+02
 0.97689620698E+01 0.95757852394E+01 0.94633825562E+01 0.94242141382E+01 0.94555074381E+01
 0.99572275435E+01 0.10211230078E+02 0.10583488761E+02 0.11091919004E+02 0.11752310115E+02
 0.12574156596E+02 0.13590634978E+02 0.14867585411E+02 0.16459167957E+02 0.18434374380E+02
 0.20858792155E+02 0.23778426293E+02 0.27188093701E+02 0.30992459492E+02 0.34967081130E+02
 0.38743092951E+02 0.41842822279E+02 0.43786057526E+02 0.44230012157E+02 0.43092069760E+02
 0.40580808570E+02 0.37118228426E+02 0.33200279821E+02 0.29264194189E+02 0.25616019757E+02
 0.22418588804E+02 0.19721902808E+02 0.17504480184E+02 0.15708835018E+02 0.14265181503E+02
 0.13100843416E+02 0.12188721656E+02 0.11439241143E+02 0.10848029380E+02 0.10402291393E+02
 0.10084782447E+02 0.98779084206E+01 0.97671717918E+01 0.97436238803E+01 0.98052418444E+01
 0.10443342787E+02 0.10798893269E+02 0.11307815567E+02 0.11988041278E+02 0.12848352739E+02
 0.13937728295E+02 0.15322967812E+02 0.17075682034E+02 0.19290034499E+02 0.22073561752E+02
 0.25534955822E+02 0.29761253854E+02 0.34766528987E+02 0.40418724659E+02 0.46359806819E+02
 0.51964572395E+02 0.56411419921E+02 0.58890248263E+02 0.58890248263E+02 0.56411419921E+02
 0.51964572395E+02 0.46359806819E+02 0.40418724659E+02 0.34766528987E+02 0.29761253854E+02
 0.25534955822E+02 0.22073561752E+02 0.19290034499E+02 0.17075682034E+02 0.15322967812E+02
 0.13937728295E+02 0.12848352739E+02 0.11988041278E+02 0.11307815567E+02 0.10798893269E+02
 0.10443342787E+02 0.10220805230E+02 0.10114299367E+02 0.10114299367E+02 0.10220805230E+02
 0.11037558707E+02 0.11534200337E+02 0.12224856379E+02 0.13120103104E+02 0.14278794717E+02
 0.15773090896E+02 0.17688552251E+02 0.20140358781E+02 0.23266923312E+02 0.27233801689E+02
 0.32222704759E+02 0.38397214313E+02 0.45823097809E+02 0.54328164981E+02 0.63332815902E+02
 0.71754517751E+02 0.78141525200E+02 0.81113659209E+02 0.79948275703E+02 0.74934997515E+02
 0.67228837676E+02 0.58320967357E+02 0.49493072418E+02 0.41546179098E+02 0.34812964382E+02
 0.29314341271E+02 0.24915558387E+02 0.21437375146E+02 0.18704434676E+02 0.16565960940E+02
 0.14897207209E+02 0.13581978575E+02 0.12597506241E+02 0.11816212304E+02 0.11235571171E+02
 0.10837818709E+02 0.10600302236E+02 0.10504308316E+02 0.10540966263E+02 0.10713759593E+02
 0.11760383317E+02 0.12443509811E+02 0.13361714071E+02 0.14574833646E+02 0.16169545678E+02
 0.18245402615E+02 0.20936532225E+02 0.24408122175E+02 0.28865588628E+02 0.34563959922E+02
 0.41803897197E+02 0.50887718819E+02 0.61989657229E+02 0.74902088095E+02 0.88680162931E+02
 0.10141441740E+03 0.11049351646E+03 0.11356673020E+03 0.10974700588E+03 0.10012999190E+03
 0.87157709297E+02 0.73399201008E+02 0.60657841462E+02 0.49779705973E+02 0.40913641394E+02
 0.33860429046E+02 0.28313995359E+02 0.23977902078E+02 0.20602457298E+02 0.17986991133E+02
 0.15970534348E+02 0.14422720170E+02 0.13248069157E+02 0.12356127270E+02 0.11698464243E+02
 0.11258030261E+02 0.11010463534E+02 0.10936402236E+02 0.11029139139E+02 0.11297003079E+02
 0.12628399560E+02 0.13544258621E+02 0.14782240366E+02 0.16448779641E+02 0.18660657218E+02
 0.21575768587E+02 0.25389556350E+02 0.30345435846E+02 0.36751203735E+02 0.44997738525E+02
 0.55564989566E+02 0.68974376374E+02 0.85600210255E+02 0.10522099608E+03 0.12630509993E+03
 0.14545921384E+03 0.15796390896E+03 0.15990034205E+03 0.15060337675E+03 0.13312420742E+03
 0.11221419721E+03 0.91848815485E+02 0.74151349991E+02 0.59694273624E+02 0.48236263017E+02
 0.39273422424E+02 0.32302093673E+02 0.26900977246E+02 0.22736549727E+02 0.19545628468E+02
 0.17118312560E+02 0.15285312371E+02 0.13910330768E+02 0.12903119163E+02 0.12168668464E+02
 0.11690676242E+02 0.11443705946E+02 0.11409086246E+02 0.11583863094E+02 0.11982089493E+02
 0.13647868663E+02 0.14836238686E+02 0.16551948093E+02 0.18839975362E+02 0.21917523362E+02
 0.26021263958E+02 0.31446802413E+02 0.38564940994E+02 0.47842680708E+02 0.59864613741E+02
 0.75344480574E+02 0.95085178202E+02 0.11974959248E+03 0.14915155755E+03 0.18087403887E+03
 0.20897393959E+03 0.22503848773E+03 0.22291245751E+03 0.20346631006E+03 0.17387008716E+03
 0.14228259249E+03 0.11382928232E+03 0.90289835462E+02 0.71564817057E+02 0.56921514390E+02
 0.45566627286E+02 0.36814607166E+02 0.30109061135E+02 0.25006290796E+02 0.21153930789E+02
 0.18270708817E+02 0.16131343894E+02 0.14545579859E+02 0.13426564808E+02 0.12623485226E+02
 0.12120262339E+02 0.11891068169E+02 0.11919423734E+02 0.12207541430E+02 0.12775150076E+02
 0.14807658375E+02 0.16447910120E+02 0.18717278543E+02 0.21838802350E+02 0.26094658824E+02
 0.31847514683E+02 0.39560831611E+02 0.49819353526E+02 0.63342110189E+02 0.80969602324E+02
 0.10364078664E+03 0.13235147777E+03 0.16796976833E+03 0.21035683717E+03 0.25596210227E+03
 0.29487939671E+03 0.31276877976E+03 0.30115339285E+03 0.26567222793E+03 0.22044886318E+03
 0.17685256137E+03 0.13964806901E+03 0.10946371827E+03 0.85537308928E+02 0.66872794738E+02
 0.52514675816E+02 0.41597015008E+02 0.33373524579E+02 0.27229315421E+02 0.22675427570E+02
 0.19328696844E+02 0.16890450102E+02 0.15109007802E+02 0.13892720504E+02 0.13038811218E+02
 0.12530519812E+02 0.12342428724E+02 0.12461799103E+02 0.12896935916E+02 0.13671852475E+02
 0.16146022899E+02 0.18286518522E+02 0.21296117251E+02 0.25490552669E+02 0.31292014607E+02
 0.39263355400E+02 0.50147466730E+02 0.64890063466E+02 0.84612039987E+02 0.11047953115E+03
 0.14348644211E+03 0.18427072030E+03 0.23313062542E+03 0.28964078787E+03 0.34941139610E+03
 0.39771101799E+03 0.41222250987E+03 0.38428732304E+03 0.32976708658E+03 0.27007481220E+03
 0.21594231117E+03 0.16978752143E+03 0.13164342095E+03 0.10110664502E+03 0.77411614339E+02
 0.59480546534E+02 0.46141782811E+02 0.36323384859E+02 0.29147954062E+02 0.23936931051E+02
 0.20178532870E+02 0.17488991476E+02 0.15555515138E+02 0.14269268712E+02 0.13392196547E+02
 0.12905932521E+02 0.12786481763E+02 0.13026271658E+02 0.13639815028E+02 0.14652434729E+02
 0.17603751634E+02 0.20346425795E+02 0.24244338073E+02 0.29745943943E+02 0.37473276034E+02
 0.48289710619E+02 0.63372863824E+02 0.84249035671E+02 0.11267787160E+03 0.15025019952E+03
 0.19759798982E+03 0.25354067931E+03 0.31539077140E+03 0.38113479146E+03 0.44777096710E+03
 0.49787688564E+03 0.50099757288E+03 0.45469777082E+03 0.38862459177E+03 0.32252175465E+03
 0.26017356185E+03 0.20343086770E+03 0.15503199882E+03 0.11637777817E+03 0.87002226438E+02
 0.65375690995E+02 0.49729660577E+02 0.38504121831E+02 0.30481118336E+02 0.24766536380E+02
 0.20715221329E+02 0.17862115324E+02 0.15847012903E+02 0.14530343939E+02 0.13665818491E+02
 0.13232948563E+02 0.13210417940E+02 0.13596897340E+02 0.14412161631E+02 0.15678385098E+02
 0.19127178645E+02 0.22536797531E+02 0.27426904749E+02 0.34409956307E+02 0.44365981436E+02
 0.58561284116E+02 0.78781472322E+02 0.10738053643E+03 0.14705346275E+03 0.19995036812E+03
 0.26571710222E+03 0.33894995686E+03 0.40973659309E+03 0.47285937593E+03 0.53367604589E+03
 0.57700774972E+03 0.56282444674E+03 0.50681665213E+03 0.44551364474E+03 0.37918966718E+03
 0.30607004639E+03 0.23510366070E+03 0.17474138981E+03 0.12788643601E+03 0.93464955286E+02
 0.68913071771E+02 0.51627824471E+02 0.39503551811E+02 0.30999047077E+02 0.25036448008E+02
 0.20867480414E+02 0.17969536572E+02 0.15959365492E+02 0.14660720003E+02 0.13848589793E+02
 0.13500590435E+02 0.13599491701E+02 0.14150686315E+02 0.15177145479E+02 0.16769770642E+02
 0.20616512267E+02 0.24701179097E+02 0.30598764292E+02 0.39098497252E+02 0.51367351813E+02
 0.69128464373E+02 0.94861005402E+02 0.13187515264E+03 0.18393182219E+03 0.25369289703E+03
 0.33907623504E+03 0.42832523924E+03 0.50197305349E+03 0.55634880241E+03 0.61813149729E+03
 0.65939661624E+03 0.61813149729E+03 0.55634880241E+03 0.50197305349E+03 0.42832523924E+03
 0.33907623504E+03 0.25369289703E+03 0.18393182219E+03 0.13187515264E+03 0.94861005402E+02
 0.69128464373E+02 0.51367351813E+02 0.39098497252E+02 0.30598764292E+02 0.24701179097E+02
 0.20616512267E+02 0.17804357732E+02 0.15886990435E+02 0.14657999061E+02 0.13936894442E+02
 0.13700462919E+02 0.13936894442E+02 0.14657999061E+02 0.15886990435E+02 0.17804357732E+02
 0.21940520917E+02 0.26627161133E+02 0.33415983810E+02 0.43250117989E+02 0.57545312865E+02
 0.78411651422E+02 0.10888890043E+03 0.15299185384E+03 0.21508409993E+03 0.29753456852E+03
 0.39544703080E+03 0.49057858019E+03 0.55923550393E+03 0.61478762566E+03 0.70319962830E+03
 0.73474494106E+03 0.65039718177E+03 0.58224649601E+03 0.52509233230E+03 0.43964876538E+03
 0.33987928018E+03 0.24925809544E+03 0.17813710033E+03 0.12654158493E+03 0.90552231889E+02
 0.65850635008E+02 0.48946109604E+02 0.37339986774E+02 0.29337290486E+02 0.23810405125E+02
 0.20001115801E+02 0.17393933693E+02 0.15643766778E+02 0.14532263558E+02 0.13933937494E+02
 0.13826474863E+02 0.14204458589E+02 0.15085008291E+02 0.16488277817E+02 0.18717876675E+02
 0.22954887682E+02 0.28079757600E+02 0.35493183071E+02 0.46225787329E+02 0.61815922214E+02
 0.84534575826E+02 0.11756609435E+03 0.16490149523E+03 0.23033032572E+03 0.31440099786E+03
 0.40864531504E+03 0.49180657059E+03 0.54688562347E+03 0.60503377729E+03 0.69025125722E+03
 0.68259515688E+03 0.59655223467E+03 0.54172940084E+03 0.48389419937E+03 0.39824219337E+03
 0.30429067097E+03 0.22209696949E+03 0.15880586174E+03 0.11326679986E+03 0.81567516544E+02
 0.59780507698E+02 0.44826792563E+02 0.34528144273E+02 0.27412652668E+02 0.22493860840E+02
 0.19105642301E+02 0.16734859396E+02 0.15260089844E+02 0.14303497805E+02 0.13848198493E+02
 0.13874772548E+02 0.14384570359E+02 0.15398313784E+02 0.17007468305E+02 0.19422381112E+02
 0.23531269087E+02 0.28855213849E+02 0.36505201862E+02 0.47495222516E+02 0.63310031208E+02
 0.86060471477E+02 0.11854132520E+03 0.16390232742E+03 0.22437326901E+03 0.29835665996E+03
 0.37662329257E+03 0.44416683389E+03 0.49939072295E+03 0.56722441399E+03 0.62401489095E+03
 0.59192400516E+03 0.51951881320E+03 0.46306156107E+03 0.40097673694E+03 0.32468335299E+03
 0.24780178805E+03 0.18234259206E+03 0.13208167398E+03 0.95651319216E+02 0.69998264326E+02
 0.52140762417E+02 0.39735250337E+02 0.31104372452E+02 0.25095845056E+02 0.20921239808E+02
 0.18036717981E+02 0.16051320414E+02 0.14777137443E+02 0.13997778839E+02 0.13691741879E+02
 0.13844293269E+02 0.14463244487E+02 0.15571009671E+02 0.17293057812E+02 0.19837516098E+02
 0.23596592708E+02 0.28844283906E+02 0.36293835721E+02 0.46845270137E+02 0.61763140792E+02
 0.82751363493E+02 0.11189045721E+03 0.15122923659E+03 0.20176178812E+03 0.26188058519E+03
 0.32698530077E+03 0.39409626441E+03 0.46859726356E+03 0.54640125285E+03 0.57830221157E+03
 0.53068468668E+03 0.45105195981E+03 0.37885722152E+03 0.31234330491E+03 0.24789816526E+03
 0.18959368796E+03 0.14152558694E+03 0.10459872868E+03 0.77460007516E+02 0.57990580359E+02
 0.44174420941E+02 0.34406867053E+02 0.27513473123E+02 0.22661622740E+02 0.19263065912E+02
 0.16901392218E+02 0.15291719983E+02 0.14240142315E+02 0.13643461465E+02 0.13479020501E+02
 0.13737982813E+02 0.14433741050E+02 0.15588758148E+02 0.17353209088E+02 0.19916183641E+02
 0.23153338347E+02 0.28069983605E+02 0.34936746847E+02 0.44478958312E+02 0.57668823169E+02
 0.75745459893E+02 0.10013496825E+03 0.13219992997E+03 0.17285343591E+03 0.22243681408E+03
 0.28161335402E+03 0.35232425355E+03 0.43172289268E+03 0.49539554538E+03 0.50306222403E+03
 0.44865928559E+03 0.36961783767E+03 0.29626069521E+03 0.23470707334E+03 0.18309305602E+03
 0.14047264852E+03 0.10655517884E+03 0.80568064671E+02 0.61215090748E+02 0.47055379466E+02
 0.36795971503E+02 0.29405004921E+02 0.24107063875E+02 0.20331629586E+02 0.17660528914E+02
 0.15767851708E+02 0.14519502752E+02 0.13692430873E+02 0.13268276209E+02 0.13226378473E+02
 0.13564244718E+02 0.14299641112E+02 0.15454077146E+02 0.17184736598E+02 0.19654929151E+02
 0.22284145106E+02 0.26685522823E+02 0.32721614078E+02 0.40938978463E+02 0.52046234035E+02
 0.66927348923E+02 0.86628989241E+02 0.11233212070E+03 0.14539952075E+03 0.18754813152E+03
 0.24059782811E+03 0.30365579492E+03 0.36601278908E+03 0.40369377990E+03 0.39555785197E+03
 0.34658372071E+03 0.28189009502E+03 0.22164028053E+03 0.17236657374E+03 0.13346211708E+03
 0.10301869479E+03 0.79455957352E+02 0.61485975825E+02 0.47971943779E+02 0.37917183788E+02
 0.30497063037E+02 0.25059916094E+02 0.21105243970E+02 0.18251598732E+02 0.16210335787E+02
 0.14775180151E+02 0.13789379185E+02 0.13171328126E+02 0.12897644609E+02 0.12951970448E+02
 0.13337867497E+02 0.14076214638E+02 0.15187350033E+02 0.16815182120E+02 0.19099795071E+02
 0.21129406056E+02 0.24926040499E+02 0.30043269743E+02 0.36887655641E+02 0.45982711801E+02
 0.58002005155E+02 0.73816158027E+02 0.94551893335E+02 0.12163156066E+03 0.15650746407E+03
 0.19936499305E+03 0.24612419099E+03 0.28558063944E+03 0.30252233207E+03 0.28883251021E+03
 0.25114258247E+03 0.20450659813E+03 0.16089915784E+03 0.12509956806E+03 0.97218981589E+02
 0.75853637146E+02 0.59553621044E+02 0.47159502204E+02 0.37776394420E+02 0.30710126270E+02
 0.25422883010E+02 0.21496618827E+02 0.18605266284E+02 0.16493932157E+02 0.14959037827E+02
 0.13888066579E+02 0.13143012930E+02 0.12706166961E+02 0.12553956649E+02 0.12675553284E+02
 0.13079721915E+02 0.13789334691E+02 0.14823992344E+02 0.16298179257E+02 0.18336065436E+02
 0.19849181749E+02 0.23038605996E+02 0.27279178696E+02 0.32882690624E+02 0.40257788061E+02
 0.49950225935E+02 0.62687376235E+02 0.79387735922E+02 0.10101176647E+03 0.12798712150E+03
 0.15895056364E+03 0.18922209121E+03 0.21083795420E+03 0.21609260684E+03 0.20286524887E+03
 0.17631057336E+03 0.14490608186E+03 0.11536370053E+03 0.90742206084E+02 0.71411645499E+02
 0.56595592805E+02 0.45314358490E+02 0.36729956936E+02 0.30200531578E+02 0.25246665294E+02
 0.21507048570E+02 0.18703267177E+02 0.16616552625E+02 0.15048703793E+02 0.13957290625E+02
 0.13146317702E+02 0.12607880404E+02 0.12318020243E+02 0.12256338182E+02 0.12417728098E+02
 0.12814966101E+02 0.13472001491E+02 0.14408444128E+02 0.15702099673E+02 0.17467530415E+02
 0.18583847137E+02 0.21221298546E+02 0.24697250047E+02 0.29260442902E+02 0.35238652754E+02
 0.43063780157E+02 0.53275557587E+02 0.66449469265E+02 0.82945638197E+02 0.10237676218E+03
 0.12288805056E+03 0.14079244920E+03 0.15143567391E+03 0.15143567391E+03 0.14079244920E+03
 0.12288805056E+03 0.10237676218E+03 0.82945638197E+02 0.66449469265E+02 0.53275557587E+02
 0.43063780157E+02 0.35238652754E+02 0.29260442902E+02 0.24697250047E+02 0.21221298546E+02
 0.18583847137E+02 0.16592449564E+02 0.15095927335E+02 0.13986713724E+02 0.13159426198E+02
 0.12570169939E+02 0.12198662363E+02 0.12020635041E+02 0.12020635041E+02 0.12198662363E+02
 0.12570169939E+02 0.13159426198E+02 0.13986713724E+02 0.15095927335E+02 0.16592449564E+02
 0.17433892840E+02 0.19597855288E+02 0.22435566462E+02 0.26146747216E+02 0.30986058063E+02
 0.37263798852E+02 0.45310893059E+02 0.55369423475E+02 0.67365559861E+02 0.80578743325E+02
 0.93378034931E+02 0.10335101985E+03 0.10806681834E+03 0.10621220611E+03 0.98316060975E+02
 0.86448898145E+02 0.73162233351E+02 0.60486058721E+02 0.49526560454E+02 0.40603606677E+02
 0.33578662162E+02 0.28140898322E+02 0.23963400511E+02 0.20765210380E+02 0.18323315977E+02
 0.16463695267E+02 0.15049527731E+02 0.13984820807E+02 0.13176440087E+02 0.12575025206E+02
 0.12164429652E+02 0.11920509397E+02 0.11822331643E+02 0.11859791357E+02 0.12036868186E+02
 0.12370371244E+02 0.12884217789E+02 0.13599656238E+02 0.14522873146E+02 0.15786969390E+02
 0.16450496289E+02 0.18218530997E+02 0.20528082918E+02 0.23533547916E+02 0.27418654222E+02
 0.32375414287E+02 0.38557180495E+02 0.45974955687E+02 0.54351315932E+02 0.62969887263E+02
 0.70649068097E+02 0.75964960779E+02 0.77735932052E+02 0.75532645544E+02 0.69886541169E+02
 0.62033692156E+02 0.53391322385E+02 0.45095088103E+02 0.37807448654E+02 0.31766204956E+02
 0.26937604400E+02 0.23159677723E+02 0.20240214669E+02 0.17997901102E+02 0.16281514074E+02
 0.14967886174E+02 0.13970228880E+02 0.13202659447E+02 0.12616782411E+02 0.12198408252E+02
 0.11924965686E+02 0.11773840876E+02 0.11729019038E+02 0.11785172348E+02 0.11948931105E+02
 0.12237295512E+02 0.12673244183E+02 0.13278846126E+02 0.14066827514E+02 0.15097066820E+02
 0.15645710521E+02 0.17082155077E+02 0.18948632588E+02 0.21357002604E+02 0.24425719635E+02
 0.28252609088E+02 0.32868368336E+02 0.38168106439E+02 0.43834107164E+02 0.49294577571E+02
 0.53778468594E+02 0.56496724299E+02 0.56904328984E+02 0.54915239051E+02 0.50938901737E+02
 0.45712053286E+02 0.40038908153E+02 0.34569406343E+02 0.29704943582E+02 0.25613795907E+02
 0.22301024214E+02 0.19685095490E+02 0.17651554593E+02 0.16083045986E+02 0.14877797237E+02
 0.13960327783E+02 0.13246909783E+02 0.12696669582E+02 0.12294453998E+02 0.12018689313E+02
 0.11846893665E+02 0.11760537013E+02 0.11748566119E+02 0.11809340172E+02 0.11950908692E+02
 0.12189625239E+02 0.12547137205E+02 0.13045921858E+02 0.13703878515E+02 0.14529067647E+02
 0.15007801470E+02 0.16160755344E+02 0.17648287414E+02 0.19545056234E+02 0.21916089843E+02
 0.24794156317E+02 0.28144904844E+02 0.31827175317E+02 0.35563788228E+02 0.38948213864E+02
 0.41508298997E+02 0.42822624409E+02 0.42654278933E+02 0.41034219615E+02 0.38250600865E+02
 0.34747716031E+02 0.30992276071E+02 0.27364923381E+02 0.24111306717E+02 0.21345674080E+02
 0.19084339361E+02 0.17284937322E+02 0.15878400822E+02 0.14771605176E+02 0.13962219151E+02
 0.13314165554E+02 0.12816627844E+02 0.12451624898E+02 0.12197208487E+02 0.12031050377E+02
 0.11933700321E+02 0.11891114876E+02 0.11896322880E+02 0.11950208409E+02 0.12061412948E+02
 0.12245356440E+02 0.12522376351E+02 0.12915018239E+02 0.13444658144E+02 0.14127930889E+02
 0.14519556345E+02 0.15418394388E+02 0.16577507119E+02 0.18035295173E+02 0.19819711837E+02
 0.21925196196E+02 0.24291497779E+02 0.26785384380E+02 0.29194839212E+02 0.31251010093E+02
 0.32675134812E+02 0.33249994055E+02 0.32881875094E+02 0.31631159770E+02 0.29692509759E+02
 0.27336796598E+02 0.24840870879E+02 0.22432027046E+02 0.20261088027E+02 0.18403242186E+02
 0.16874359998E+02 0.15652233571E+02 0.14694813516E+02 0.13969531528E+02 0.13401172297E+02
 0.12974440247E+02 0.12668662812E+02 0.12460578532E+02 0.12327083546E+02 0.12247616572E+02
 0.12206003351E+02 0.12191733680E+02 0.12200717194E+02 0.12235563403E+02 0.12305403903E+02
 0.12425245394E+02 0.12614813292E+02 0.12896835089E+02 0.13294766166E+02 0.13830099483E+02
 0.14155024763E+02 0.14826574843E+02 0.15694282541E+02 0.16779463727E+02 0.18081765108E+02
 0.19576683009E+02 0.21201418848E+02 0.22847927575E+02 0.24366425511E+02 0.25587560536E+02
 0.26351649271E+02 0.26550904138E+02 0.26155754467E+02 0.25224083100E+02 0.23884726668E+02
 0.22305485079E+02 0.20651174027E+02 0.19059676961E+02 0.17624035145E+02 0.16393213733E+02
 0.15361447365E+02 0.14585264133E+02 0.13965716343E+02 0.13496202779E+02 0.13161273065E+02
 0.12939608659E+02 0.12806874388E+02 0.12738319300E+02 0.12711008216E+02 0.12705612473E+02
 0.12707747938E+02 0.12708884185E+02 0.12706853574E+02 0.12705977401E+02 0.12716813157E+02
 0.12755514698E+02 0.12842783584E+02 0.13002381765E+02 0.13259189853E+02 0.13636841523E+02
 0.13885919250E+02 0.14359106616E+02 0.14973407463E+02 0.15718306339E+02 0.16650720686E+02
 0.17676534003E+02 0.18758142480E+02 0.19814714229E+02 0.20746741363E+02 0.21450955050E+02
 0.21839007982E+02 0.21859959525E+02 0.21511031880E+02 0.20838065674E+02 0.19926316696E+02
 0.18878558466E+02 0.17795145079E+02 0.16759943802E+02 0.15808190554E+02 0.15050052690E+02
 0.14420468344E+02 0.13931495567E+02 0.13582322232E+02 0.13361794783E+02 0.13251094194E+02
 0.13226361990E+02 0.13261201824E+02 0.13329036115E+02 0.13405300175E+02 0.13469423575E+02
 0.13506502259E+02 0.13508533211E+02 0.13475088474E+02 0.13413351446E+02 0.13337511077E+02
 0.13267583939E+02 0.13227784099E+02 0.13244570541E+02 0.13344473380E+02 0.13551754046E+02
 0.13720060042E+02 0.13987427810E+02 0.14380998847E+02 0.14888214752E+02 0.15484205113E+02
 0.16132012401E+02 0.16844621994E+02 0.17498464090E+02 0.18051205639E+02 0.18441131181E+02
 0.18621097882E+02 0.18569057126E+02 0.18291457436E+02 0.17822173639E+02 0.17216454323E+02
 0.16497227886E+02 0.15840522216E+02 0.15210459461E+02 0.14650059079E+02 0.14191022421E+02
 0.13852702281E+02 0.13642399577E+02 0.13556457673E+02 0.13581759032E+02 0.13697429068E+02
 0.13876731616E+02 0.14089242794E+02 0.14303385586E+02 0.14489297011E+02 0.14621824070E+02
 0.14683278092E+02 0.14665499838E+02 0.14570847506E+02 0.14411908889E+02 0.14209996406E+02
 0.13992720858E+02 0.13791076169E+02 0.13636463621E+02 0.13557958527E+02 0.13579941232E+02
 0.13663941600E+02 0.13725324635E+02 0.13904376950E+02 0.14185975939E+02 0.14545572096E+02
 0.14950466210E+02 0.15362048504E+02 0.15739153748E+02 0.16042393567E+02 0.16238952394E+02
 0.16307022017E+02 0.16238952394E+02 0.16042393567E+02 0.15739153748E+02 0.15362048504E+02
 0.14950466210E+02 0.14545572096E+02 0.14185975939E+02 0.13904376950E+02 0.13725324635E+02
 0.13663941600E+02 0.13725324635E+02 0.13904376950E+02 0.14185975939E+02 0.14545572096E+02
 0.14950466210E+02 0.15362048504E+02 0.15739153748E+02 0.16042393567E+02 0.16238952394E+02
 0.16307022017E+02 0.16238952394E+02 0.16042393567E+02 0.15739153748E+02 0.15362048504E+02
 0.14950466210E+02 0.14545572096E+02 0.14185975939E+02 0.13904376950E+02 0.13725324635E+02
 0.13720060042E+02 0.13579941232E+02 0.13557958527E+02 0.13636463621E+02 0.13791076169E+02
 0.13992720858E+02 0.14209996406E+02 0.14411908889E+02 0.14570847506E+02 0.14665499838E+02
 0.14683278092E+02 0.14621824070E+02 0.14489297011E+02 0.14303385586E+02 0.14089242794E+02
 0.13876731616E+02 0.13697429068E+02 0.13581759032E+02 0.13556457673E+02 0.13642399577E+02
 0.13852702281E+02 0.14191022421E+02 0.14650059079E+02 0.15210459461E+02 0.15840522216E+02
 0.16497227886E+02 0.17216454323E+02 0.17822173639E+02 0.18291457436E+02 0.18569057126E+02
 0.18621097882E+02 0.18441131181E+02 0.18051205639E+02 0.17498464090E+02 0.16844621994E+02
 0.16132012401E+02 0.15484205113E+02 0.14888214752E+02 0.14380998847E+02 0.13987427810E+02
 0.13885919250E+02 0.13551754046E+02 0.13344473380E+02 0.13244570541E+02 0.13227784099E+02
 0.13267583939E+02 0.13337511077E+02 0.13413351446E+02 0.13475088474E+02 0.13508533211E+02
 0.13506502259E+02 0.13469423575E+02 0.13405300175E+02 0.13329036115E+02 0.13261201824E+02
 0.13226361990E+02 0.13251094194E+02 0.13361794783E+02 0.13582322232E+02 0.13931495567E+02
 0.14420468344E+02 0.15050052690E+02 0.15808190554E+02 0.16759943802E+02 0.17795145079E+02
 0.18878558466E+02 0.19926316696E+02 0.20838065674E+02 0.21511031880E+02 0.21859959525E+02
 0.21839007982E+02 0.21450955050E+02 0.20746741363E+02 0.19814714229E+02 0.18758142480E+02
 0.17676534003E+02 0.16650720686E+02 0.15718306339E+02 0.14973407463E+02 0.14359106616E+02
 0.14155024763E+02 0.13636841523E+02 0.13259189853E+02 0.13002381765E+02 0.12842783584E+02
 0.12755514698E+02 0.12716813157E+02 0.12705977401E+02 0.12706853574E+02 0.12708884185E+02
 0.12707747938E+02 0.12705612473E+02 0.12711008216E+02 0.12738319300E+02 0.12806874388E+02
 0.12939608659E+02 0.13161273065E+02 0.13496202779E+02 0.13965716343E+02 0.14585264133E+02
 0.15361447365E+02 0.16393213733E+02 0.17624035145E+02 0.19059676961E+02 0.20651174027E+02
 0.22305485079E+02 0.23884726668E+02 0.25224083100E+02 0.26155754467E+02 0.26550904138E+02
 0.26351649271E+02 0.25587560536E+02 0.24366425511E+02 0.22847927575E+02 0.21201418848E+02
 0.19576683009E+02 0.18081765108E+02 0.16779463727E+02 0.15694282541E+02 0.14826574843E+02
 0.14519556345E+02 0.13830099483E+02 0.13294766166E+02 0.12896835089E+02 0.12614813292E+02
 0.12425245394E+02 0.12305403903E+02 0.12235563403E+02 0.12200717194E+02 0.12191733680E+02
 0.12206003351E+02 0.12247616572E+02 0.12327083546E+02 0.12460578532E+02 0.12668662812E+02
 0.12974440247E+02 0.13401172297E+02 0.13969531528E+02 0.14694813516E+02 0.15652233571E+02
 0.16874359998E+02 0.18403242186E+02 0.20261088027E+02 0.22432027046E+02 0.24840870879E+02