 vasp.5.4.4.18Apr17-6-g9f103f2a35 (build Apr 28 2018 00:24:27) complex          
  
 executed on             LinuxIFC date 2021.09.06  23:54:46
 running on   24 total cores
 distrk:  each k-point on   24 cores,    1 groups
 distr:  one band on NCORES_PER_BAND=   4 cores,    6 groups


--------------------------------------------------------------------------------------------------------


 INCAR:
 POTCAR:    PAW_PBE Fe_pv 02Aug2007               
 POTCAR:    PAW_PBE Fe_pv 02Aug2007               
   VRHFIN =Fe:  3pd7s1                                                          
   LEXCH  = PE                                                                  
   EATOM  =  2457.4239 eV,  180.6156 Ry                                         
                                                                                
   TITEL  = PAW_PBE Fe_pv 02Aug2007                                             
   LULTRA =        F    use ultrasoft PP ?                                      
   IUNSCR =        1    unscreen: 0-lin 1-nonlin 2-no                           
   RPACOR =    1.750    partial core radius                                     
   POMASS =   55.847; ZVAL   =   14.000    mass and valenz                      
   RCORE  =    2.200    outmost cutoff radius                                   
   RWIGS  =    2.200; RWIGS  =    1.164    wigner-seitz radius (au A)           
   ENMAX  =  293.238; ENMIN  =  219.928 eV                                      
   ICORE  =        3    local potential                                         
   LCOR   =        T    correct aug charges                                     
   LPAW   =        T    paw PP                                                  
   EAUG   =  578.342                                                            
   DEXC   =    0.000                                                            
   RMAX   =    2.249    core radius for proj-oper                               
   RAUG   =    1.300    factor for augmentation sphere                          
   RDEP   =    2.296    radius for radial grids                                 
   RDEPT  =    1.766    core radius for aug-charge                              
                                                                                
   Atomic configuration                                                         
    8 entries                                                                   
     n  l   j            E        occ.                                          
     1  0  0.50     -6993.8440   2.0000                                         
     2  0  0.50      -814.6047   2.0000                                         
     2  1  1.50      -693.3689   6.0000                                         
     3  0  0.50       -89.4732   2.0000                                         
     3  1  1.50       -55.6373   6.0000                                         
     3  2  2.50        -3.8151   7.0000                                         
     4  0  0.50        -4.2551   1.0000                                         
     4  3  2.50        -1.3606   0.0000                                         
   Description                                                                  
     l       E           TYP  RCUT    TYP  RCUT                                 
     1    -55.6372668     23  2.000                                             
     1     -5.4423304     23  2.000                                             
     2     -3.8151096     23  2.200                                             
     2     -5.1756922     23  2.200                                             
     0     -4.2550951     23  2.200                                             
     0     27.2116520     23  2.200                                             
     3     -1.3605826     23  2.200                                             
  local pseudopotential read in
  partial core-charges read in
  partial kinetic energy density read in
  atomic valenz-charges read in
  non local Contribution for L=           1  read in
    real space projection operators read in
  non local Contribution for L=           1  read in
    real space projection operators read in
  non local Contribution for L=           2  read in
    real space projection operators read in
  non local Contribution for L=           2  read in
    real space projection operators read in
  non local Contribution for L=           0  read in
    real space projection operators read in
  non local Contribution for L=           0  read in
    real space projection operators read in
    PAW grid and wavefunctions read in
 
   number of l-projection  operators is LMAX  =           6
   number of lm-projection operators is LMMAX =          18
 

 ----------------------------------------------------------------------------- 
|                                                                             |
|  ADVICE TO THIS USER RUNNING 'VASP/VAMP'   (HEAR YOUR MASTER'S VOICE ...):  |
|                                                                             |
|      You have a (more or less) 'small supercell' and for smaller cells      |
|      it is recommended  to use the reciprocal-space projection scheme!      |
|      The real space optimization is not  efficient for small cells and it   |
|      is also less accurate ...                                              |
|      Therefore set LREAL=.FALSE. in the  INCAR file                         |
|                                                                             |
 ----------------------------------------------------------------------------- 

 Optimization of the real space projectors (new method)

 maximal supplied QI-value         = 17.01
 optimisation between [QCUT,QGAM] = [ 11.74, 23.64] = [ 38.56,156.50] Ry 
 Optimized for a Real-space Cutoff    1.42 Angstroem

   l    n(q)    QCUT    max X(q) W(low)/X(q) W(high)/X(q)  e(spline) 
   1     10    11.735     4.267    0.99E-04    0.19E-03    0.15E-06
   1     10    11.735     5.750    0.15E-03    0.29E-03    0.23E-06
   2      9    11.735    53.656    0.10E-03    0.79E-04    0.18E-06
   2      9    11.735    49.521    0.11E-03    0.81E-04    0.18E-06
   0     10    11.735    31.246    0.60E-04    0.16E-04    0.76E-07
   0     10    11.735    12.201    0.43E-04    0.14E-04    0.64E-07
  PAW_PBE Fe_pv 02Aug2007               :
 energy of atom  1       EATOM=-2457.4239
 kinetic energy error for atom=    0.0060 (will be added to EATOM!!)
 
 
 POSCAR: Fe2                                     
  positions in direct lattice
  No initial velocities read in
 exchange correlation table for  LEXCH =        8
   RHO(1)=    0.500       N(1)  =     2000
   RHO(2)=  100.500       N(2)  =     4000
 


--------------------------------------------------------------------------------------------------------


 ion  position               nearest neighbor table
   1  0.000  0.000  0.000-   2 2.46   2 2.46   2 2.46   2 2.46   2 2.46   2 2.46   2 2.46   2 2.46

   2  0.500  0.500  0.500-   1 2.46   1 2.46   1 2.46   1 2.46   1 2.46   1 2.46   1 2.46   1 2.46

 
  LATTYP: Found a simple cubic cell.
 ALAT       =     2.8400520000
  
  Lattice vectors:
  
 A1 = (   2.8400520000,   0.0000000000,   0.0000000000)
 A2 = (   0.0000000000,   2.8400520000,   0.0000000000)
 A3 = (   0.0000000000,   0.0000000000,   2.8400520000)


Analysis of symmetry for initial positions (statically):
=====================================================================
 Subroutine PRICEL returns following result:
 
  LATTYP: Found a body centered cubic cell.
 ALAT       =     2.8400520000
  
  Lattice vectors:
  
 A1 = (   1.4200260000,   1.4200260000,   1.4200260000)
 A2 = (   1.4200260000,  -1.4200260000,  -1.4200260000)
 A3 = (  -1.4200260000,   1.4200260000,  -1.4200260000)
 
   2 primitive cells build up your supercell.
 

 Routine SETGRP: Setting up the symmetry group for a 
 simple cubic supercell.


 Subroutine GETGRP returns: Found 48 space group operations
 (whereof 48 operations were pure point group operations)
 out of a pool of 48 trial point group operations.


The static configuration has the point symmetry O_h .


Analysis of symmetry for dynamics (positions and initial velocities):
=====================================================================
 Subroutine PRICEL returns following result:
 
  LATTYP: Found a body centered cubic cell.
 ALAT       =     2.8400520000
  
  Lattice vectors:
  
 A1 = (   1.4200260000,   1.4200260000,   1.4200260000)
 A2 = (   1.4200260000,  -1.4200260000,  -1.4200260000)
 A3 = (  -1.4200260000,   1.4200260000,  -1.4200260000)
 
   2 primitive cells build up your supercell.
 

 Routine SETGRP: Setting up the symmetry group for a 
 simple cubic supercell.


 Subroutine GETGRP returns: Found 48 space group operations
 (whereof 48 operations were pure point group operations)
 out of a pool of 48 trial point group operations.


The dynamic configuration has the point symmetry O_h .


Analysis of structural, dynamic, and magnetic symmetry:
=====================================================================
 Subroutine PRICEL returns following result:
 
  LATTYP: Found a body centered cubic cell.
 ALAT       =     2.8400520000
  
  Lattice vectors:
  
 A1 = (   1.4200260000,   1.4200260000,   1.4200260000)
 A2 = (   1.4200260000,  -1.4200260000,  -1.4200260000)
 A3 = (  -1.4200260000,   1.4200260000,  -1.4200260000)
 
   2 primitive cells build up your supercell.
 

 Routine SETGRP: Setting up the symmetry group for a 
 simple cubic supercell.


 Subroutine GETGRP returns: Found 48 space group operations
 (whereof 48 operations were pure point group operations)
 out of a pool of 48 trial point group operations.


The magnetic configuration has the point symmetry O_h .


 Subroutine INISYM returns: Found 48 space group operations
 (whereof 48 operations are pure point group operations),
 and found     2 'primitive' translations

 
 
 KPOINTS: pymatgen with grid density = 2166 / numb

Automatic generation of k-mesh.
Space group operators:
 irot       det(A)        alpha          n_x          n_y          n_z        tau_x        tau_y        tau_z
    1     1.000000     0.000000     1.000000     0.000000     0.000000     0.000000     0.000000     0.000000
    2    -1.000000     0.000000     1.000000     0.000000     0.000000     0.000000     0.000000     0.000000
    3     1.000000   120.000000    -0.577350    -0.577350    -0.577350     0.000000     0.000000     0.000000
    4    -1.000000   120.000000    -0.577350    -0.577350    -0.577350     0.000000     0.000000     0.000000
    5     1.000000   120.000000     0.577350     0.577350     0.577350     0.000000     0.000000     0.000000
    6    -1.000000   120.000000     0.577350     0.577350     0.577350     0.000000     0.000000     0.000000
    7     1.000000    90.000000     0.000000     0.000000    -1.000000     0.000000     0.000000     0.000000
    8    -1.000000    90.000000     0.000000     0.000000    -1.000000     0.000000     0.000000     0.000000
    9     1.000000   180.000000     0.000000     0.707107     0.707107     0.000000     0.000000     0.000000
   10    -1.000000   180.000000     0.000000     0.707107     0.707107     0.000000     0.000000     0.000000
   11     1.000000    90.000000     0.000000     1.000000     0.000000     0.000000     0.000000     0.000000
   12    -1.000000    90.000000     0.000000     1.000000     0.000000     0.000000     0.000000     0.000000
   13     1.000000   180.000000     0.000000     0.000000     1.000000     0.000000     0.000000     0.000000
   14    -1.000000   180.000000     0.000000     0.000000     1.000000     0.000000     0.000000     0.000000
   15     1.000000   120.000000    -0.577350     0.577350     0.577350     0.000000     0.000000     0.000000
   16    -1.000000   120.000000    -0.577350     0.577350     0.577350     0.000000     0.000000     0.000000
   17     1.000000   120.000000    -0.577350     0.577350    -0.577350     0.000000     0.000000     0.000000
   18    -1.000000   120.000000    -0.577350     0.577350    -0.577350     0.000000     0.000000     0.000000
   19     1.000000    90.000000     0.000000     0.000000     1.000000     0.000000     0.000000     0.000000
   20    -1.000000    90.000000     0.000000     0.000000     1.000000     0.000000     0.000000     0.000000
   21     1.000000    90.000000    -1.000000     0.000000     0.000000     0.000000     0.000000     0.000000
   22    -1.000000    90.000000    -1.000000     0.000000     0.000000     0.000000     0.000000     0.000000
   23     1.000000   180.000000     0.707107     0.000000     0.707107     0.000000     0.000000     0.000000
   24    -1.000000   180.000000     0.707107     0.000000     0.707107     0.000000     0.000000     0.000000
   25     1.000000   120.000000     0.577350    -0.577350     0.577350     0.000000     0.000000     0.000000
   26    -1.000000   120.000000     0.577350    -0.577350     0.577350     0.000000     0.000000     0.000000
   27     1.000000   120.000000    -0.577350    -0.577350     0.577350     0.000000     0.000000     0.000000
   28    -1.000000   120.000000    -0.577350    -0.577350     0.577350     0.000000     0.000000     0.000000
   29     1.000000   180.000000     1.000000     0.000000     0.000000     0.000000     0.000000     0.000000
   30    -1.000000   180.000000     1.000000     0.000000     0.000000     0.000000     0.000000     0.000000
   31     1.000000    90.000000     0.000000    -1.000000     0.000000     0.000000     0.000000     0.000000
   32    -1.000000    90.000000     0.000000    -1.000000     0.000000     0.000000     0.000000     0.000000
   33     1.000000   180.000000     0.707107     0.707107     0.000000     0.000000     0.000000     0.000000
   34    -1.000000   180.000000     0.707107     0.707107     0.000000     0.000000     0.000000     0.000000
   35     1.000000    90.000000     1.000000     0.000000     0.000000     0.000000     0.000000     0.000000
   36    -1.000000    90.000000     1.000000     0.000000     0.000000     0.000000     0.000000     0.000000
   37     1.000000   120.000000     0.577350    -0.577350    -0.577350     0.000000     0.000000     0.000000
   38    -1.000000   120.000000     0.577350    -0.577350    -0.577350     0.000000     0.000000     0.000000
   39     1.000000   180.000000     0.000000     1.000000     0.000000     0.000000     0.000000     0.000000
   40    -1.000000   180.000000     0.000000     1.000000     0.000000     0.000000     0.000000     0.000000
   41     1.000000   120.000000     0.577350     0.577350    -0.577350     0.000000     0.000000     0.000000
   42    -1.000000   120.000000     0.577350     0.577350    -0.577350     0.000000     0.000000     0.000000
   43     1.000000   180.000000     0.000000    -0.707107     0.707107     0.000000     0.000000     0.000000
   44    -1.000000   180.000000     0.000000    -0.707107     0.707107     0.000000     0.000000     0.000000
   45     1.000000   180.000000     0.707107    -0.707107     0.000000     0.000000     0.000000     0.000000
   46    -1.000000   180.000000     0.707107    -0.707107     0.000000     0.000000     0.000000     0.000000
   47     1.000000   180.000000     0.707107     0.000000    -0.707107     0.000000     0.000000     0.000000
   48    -1.000000   180.000000     0.707107     0.000000    -0.707107     0.000000     0.000000     0.000000
 
 Subroutine IBZKPT returns following result:
 ===========================================
 
 Found     35 irreducible k-points:
 
 Following reciprocal coordinates:
            Coordinates               Weight
  0.050000  0.050000  0.050000      8.000000
  0.150000  0.050000  0.050000     24.000000
  0.250000  0.050000  0.050000     24.000000
  0.350000  0.050000  0.050000     24.000000
  0.450000  0.050000  0.050000     24.000000
  0.150000  0.150000  0.050000     24.000000
  0.250000  0.150000  0.050000     48.000000
  0.350000  0.150000  0.050000     48.000000
  0.450000  0.150000  0.050000     48.000000
  0.250000  0.250000  0.050000     24.000000
  0.350000  0.250000  0.050000     48.000000
  0.450000  0.250000  0.050000     48.000000
  0.350000  0.350000  0.050000     24.000000
  0.450000  0.350000  0.050000     48.000000
  0.450000  0.450000  0.050000     24.000000
  0.150000  0.150000  0.150000      8.000000
  0.250000  0.150000  0.150000     24.000000
  0.350000  0.150000  0.150000     24.000000
  0.450000  0.150000  0.150000     24.000000
  0.250000  0.250000  0.150000     24.000000
  0.350000  0.250000  0.150000     48.000000
  0.450000  0.250000  0.150000     48.000000
  0.350000  0.350000  0.150000     24.000000
  0.450000  0.350000  0.150000     48.000000
  0.450000  0.450000  0.150000     24.000000
  0.250000  0.250000  0.250000      8.000000
  0.350000  0.250000  0.250000     24.000000
  0.450000  0.250000  0.250000     24.000000
  0.350000  0.350000  0.250000     24.000000
  0.450000  0.350000  0.250000     48.000000
  0.450000  0.450000  0.250000     24.000000
  0.350000  0.350000  0.350000      8.000000
  0.450000  0.350000  0.350000     24.000000
  0.450000  0.450000  0.350000     24.000000
  0.450000  0.450000  0.450000      8.000000
 
 Following cartesian coordinates:
            Coordinates               Weight
  0.017605  0.017605  0.017605      8.000000
  0.052816  0.017605  0.017605     24.000000
  0.088027  0.017605  0.017605     24.000000
  0.123237  0.017605  0.017605     24.000000
  0.158448  0.017605  0.017605     24.000000
  0.052816  0.052816  0.017605     24.000000
  0.088027  0.052816  0.017605     48.000000
  0.123237  0.052816  0.017605     48.000000
  0.158448  0.052816  0.017605     48.000000
  0.088027  0.088027  0.017605     24.000000
  0.123237  0.088027  0.017605     48.000000
  0.158448  0.088027  0.017605     48.000000
  0.123237  0.123237  0.017605     24.000000
  0.158448  0.123237  0.017605     48.000000
  0.158448  0.158448  0.017605     24.000000
  0.052816  0.052816  0.052816      8.000000
  0.088027  0.052816  0.052816     24.000000
  0.123237  0.052816  0.052816     24.000000
  0.158448  0.052816  0.052816     24.000000
  0.088027  0.088027  0.052816     24.000000
  0.123237  0.088027  0.052816     48.000000
  0.158448  0.088027  0.052816     48.000000
  0.123237  0.123237  0.052816     24.000000
  0.158448  0.123237  0.052816     48.000000
  0.158448  0.158448  0.052816     24.000000
  0.088027  0.088027  0.088027      8.000000
  0.123237  0.088027  0.088027     24.000000
  0.158448  0.088027  0.088027     24.000000
  0.123237  0.123237  0.088027     24.000000
  0.158448  0.123237  0.088027     48.000000
  0.158448  0.158448  0.088027     24.000000
  0.123237  0.123237  0.123237      8.000000
  0.158448  0.123237  0.123237     24.000000
  0.158448  0.158448  0.123237     24.000000
  0.158448  0.158448  0.158448      8.000000
 
 TETIRR: Found    466 inequivalent tetrahedra from     6000


--------------------------------------------------------------------------------------------------------




 Dimension of arrays:
   k-points           NKPTS =     35   k-points in BZ     NKDIM =     35   number of bands    NBANDS=     24
   number of dos      NEDOS =    301   number of ions     NIONS =      2
   non local maximal  LDIM  =      6   non local SUM 2l+1 LMDIM =     18
   total plane-waves  NPLWV =  13824
   max r-space proj   IRMAX =   7268   max aug-charges    IRDMAX=  18070
   dimension x,y,z NGX =    24 NGY =   24 NGZ =   24
   dimension x,y,z NGXF=    48 NGYF=   48 NGZF=   48
   support grid    NGXF=    48 NGYF=   48 NGZF=   48
   ions per type =               2
   NGX,Y,Z   is equivalent  to a cutoff of  14.05, 14.05, 14.05 a.u.
   NGXF,Y,Z  is equivalent  to a cutoff of  28.10, 28.10, 28.10 a.u.

 SYSTEM =  unknown system                          
 POSCAR =  Fe2                                     

 Startparameter for this run:
   NWRITE =      2    write-flag & timer
   PREC   = accura    normal or accurate (medium, high low for compatibility)
   ISTART =      0    job   : 0-new  1-cont  2-samecut
   ICHARG =      2    charge: 1-file 2-atom 10-const
   ISPIN  =      2    spin polarized calculation?
   LNONCOLLINEAR =      F non collinear calculations
   LSORBIT =      F    spin-orbit coupling
   INIWAV =      1    electr: 0-lowe 1-rand  2-diag
   LASPH  =      F    aspherical Exc in radial PAW
   METAGGA=      F    non-selfconsistent MetaGGA calc.

 Electronic Relaxation 1
   ENCUT  =  540.0 eV  39.69 Ry    6.30 a.u.   5.38  5.38  5.38*2*pi/ulx,y,z
   ENINI  =  540.0     initial cutoff
   ENAUG  =  578.3 eV  augmentation charge cutoff
   NELM   =    100;   NELMIN=  2; NELMDL= -5     # of ELM steps 
   EDIFF  = 0.1E-06   stopping-criterion for ELM
   LREAL  =      T    real-space projection
   NLSPLINE    = F    spline interpolate recip. space projectors
   LCOMPAT=      F    compatible to vasp.4.4
   GGA_COMPAT  = T    GGA compatible to vasp.4.4-vasp.4.6
   LMAXPAW     = -100 max onsite density
   LMAXMIX     =    2 max onsite mixed and CHGCAR
   VOSKOWN=      0    Vosko Wilk Nusair interpolation
   ROPT   =   -0.00025
 Ionic relaxation
   EDIFFG = 0.1E-05   stopping-criterion for IOM
   NSW    =      0    number of steps for IOM
   NBLOCK =      1;   KBLOCK =      1    inner block; outer block 
   IBRION =     -1    ionic relax: 0-MD 1-quasi-New 2-CG
   NFREE  =      0    steps in history (QN), initial steepest desc. (CG)
   ISIF   =      3    stress and relaxation
   IWAVPR =     10    prediction:  0-non 1-charg 2-wave 3-comb
   ISYM   =      2    0-nonsym 1-usesym 2-fastsym
   LCORR  =      T    Harris-Foulkes like correction to forces

   POTIM  = 0.5000    time-step for ionic-motion
   TEIN   =    0.0    initial temperature
   TEBEG  =    0.0;   TEEND  =   0.0 temperature during run
   SMASS  =  -3.00    Nose mass-parameter (am)
   estimated Nose-frequenzy (Omega)   =  0.10E-29 period in steps =****** mass=  -0.184E-27a.u.
   SCALEE = 1.0000    scale energy and forces
   NPACO  =    256;   APACO  = 16.0  distance and # of slots for P.C.
   PSTRESS=    0.0 pullay stress

  Mass of Ions in am
   POMASS =  55.85
  Ionic Valenz
   ZVAL   =  14.00
  Atomic Wigner-Seitz radii
   RWIGS  =  -1.00
  virtual crystal weights 
   VCA    =   1.00
   NELECT =      28.0000    total number of electrons
   NUPDOWN=      -1.0000    fix difference up-down

 DOS related values:
   EMIN   =  10.00;   EMAX   =-10.00  energy-range for DOS
   EFERMI =   0.00
   ISMEAR =    -5;   SIGMA  =   0.05  broadening in eV -4-tet -1-fermi 0-gaus

 Electronic relaxation 2 (details)
   IALGO  =     38    algorithm
   LDIAG  =      T    sub-space diagonalisation (order eigenvalues)
   LSUBROT=      F    optimize rotation matrix (better conditioning)
   TURBO    =      0    0=normal 1=particle mesh
   IRESTART =      0    0=no restart 2=restart with 2 vectors
   NREBOOT  =      0    no. of reboots
   NMIN     =      0    reboot dimension
   EREF     =   0.00    reference energy to select bands
   IMIX   =      4    mixing-type and parameters
     AMIX     =   0.40;   BMIX     =  1.00
     AMIX_MAG =   1.60;   BMIX_MAG =  1.00
     AMIN     =   0.10
     WC   =   100.;   INIMIX=   1;  MIXPRE=   1;  MAXMIX= -45

 Intra band minimization:
   WEIMIN = 0.0000     energy-eigenvalue tresh-hold
   EBREAK =  0.10E-08  absolut break condition
   DEPER  =   0.30     relativ break condition  

   TIME   =   0.40     timestep for ELM

  volume/ion in A,a.u.               =      11.45        77.29
  Fermi-wavevector in a.u.,A,eV,Ry     =   1.750389  3.307755 41.686364  3.063861
  Thomas-Fermi vector in A             =   2.821117
 
 Write flags
   LWAVE        =      F    write WAVECAR
   LDOWNSAMPLE  =      F    k-point downsampling of WAVECAR
   LCHARG       =      F    write CHGCAR
   LVTOT        =      F    write LOCPOT, total local potential
   LVHAR        =      F    write LOCPOT, Hartree potential only
   LELF         =      F    write electronic localiz. function (ELF)
   LORBIT       =     11    0 simple, 1 ext, 2 COOP (PROOUT), +10 PAW based schemes


 Dipole corrections
   LMONO  =      F    monopole corrections only (constant potential shift)
   LDIPOL =      F    correct potential (dipole corrections)
   IDIPOL =      0    1-x, 2-y, 3-z, 4-all directions 
   EPSILON=  1.0000000 bulk dielectric constant

 Exchange correlation treatment:
   GGA     =    --    GGA type
   LEXCH   =     8    internal setting for exchange type
   VOSKOWN=      0    Vosko Wilk Nusair interpolation
   LHFCALC =     F    Hartree Fock is set to
   LHFONE  =     F    Hartree Fock one center treatment
   AEXX    =    0.0000 exact exchange contribution

 Linear response parameters
   LEPSILON=     F    determine dielectric tensor
   LRPA    =     F    only Hartree local field effects (RPA)
   LNABLA  =     F    use nabla operator in PAW spheres
   LVEL    =     F    velocity operator in full k-point grid
   LINTERFAST=   F  fast interpolation
   KINTER  =     0    interpolate to denser k-point grid
   CSHIFT  =0.1000    complex shift for real part using Kramers Kronig
   OMEGAMAX=  -1.0    maximum frequency
   DEG_THRESHOLD= 0.2000000E-02 threshold for treating states as degnerate
   RTIME   =   -0.100 relaxation time in fs
  (WPLASMAI=    0.000 imaginary part of plasma frequency in eV, 0.658/RTIME)
   DFIELD  = 0.0000000 0.0000000 0.0000000 field for delta impulse in time
 
 Orbital magnetization related:
   ORBITALMAG=     F  switch on orbital magnetization
   LCHIMAG   =     F  perturbation theory with respect to B field
   DQ        =  0.001000  dq finite difference perturbation B field
   LLRAUG    =     F  two centre corrections for induced B field



--------------------------------------------------------------------------------------------------------


 Static calculation
 charge density and potential will be updated during run
 spin polarized calculation
 Variant of blocked Davidson
 Davidson routine will perform the subspace rotation
 perform sub-space diagonalisation
    after iterative eigenvector-optimisation
 modified Broyden-mixing scheme, WC =      100.0
 initial mixing is a Kerker type mixing with AMIX =  0.4000 and BMIX =      1.0000
 Hartree-type preconditioning will be used
 using additional bands           10
 real space projection scheme for non local part
 use partial core corrections
 calculate Harris-corrections to forces 
   (improved forces if not selfconsistent)
 use gradient corrections 
 use of overlap-Matrix (Vanderbilt PP)
 Fermi weights with tetrahedron method with Bloechl corrections


--------------------------------------------------------------------------------------------------------


  energy-cutoff  :      540.00
  volume of cell :       22.91
      direct lattice vectors                 reciprocal lattice vectors
     2.840052000  0.000000000  0.000000000     0.352106229  0.000000000  0.000000000
     0.000000000  2.840052000  0.000000000     0.000000000  0.352106229  0.000000000
     0.000000000  0.000000000  2.840052000     0.000000000  0.000000000  0.352106229

  length of vectors
     2.840052000  2.840052000  2.840052000     0.352106229  0.352106229  0.352106229


 
 k-points in units of 2pi/SCALE and weight: pymatgen with grid density = 2166 / numb
   0.01760531  0.01760531  0.01760531       0.008
   0.05281593  0.01760531  0.01760531       0.024
   0.08802656  0.01760531  0.01760531       0.024
   0.12323718  0.01760531  0.01760531       0.024
   0.15844780  0.01760531  0.01760531       0.024
   0.05281593  0.05281593  0.01760531       0.024
   0.08802656  0.05281593  0.01760531       0.048
   0.12323718  0.05281593  0.01760531       0.048
   0.15844780  0.05281593  0.01760531       0.048
   0.08802656  0.08802656  0.01760531       0.024
   0.12323718  0.08802656  0.01760531       0.048
   0.15844780  0.08802656  0.01760531       0.048
   0.12323718  0.12323718  0.01760531       0.024
   0.15844780  0.12323718  0.01760531       0.048
   0.15844780  0.15844780  0.01760531       0.024
   0.05281593  0.05281593  0.05281593       0.008
   0.08802656  0.05281593  0.05281593       0.024
   0.12323718  0.05281593  0.05281593       0.024
   0.15844780  0.05281593  0.05281593       0.024
   0.08802656  0.08802656  0.05281593       0.024
   0.12323718  0.08802656  0.05281593       0.048
   0.15844780  0.08802656  0.05281593       0.048
   0.12323718  0.12323718  0.05281593       0.024
   0.15844780  0.12323718  0.05281593       0.048
   0.15844780  0.15844780  0.05281593       0.024
   0.08802656  0.08802656  0.08802656       0.008
   0.12323718  0.08802656  0.08802656       0.024
   0.15844780  0.08802656  0.08802656       0.024
   0.12323718  0.12323718  0.08802656       0.024
   0.15844780  0.12323718  0.08802656       0.048
   0.15844780  0.15844780  0.08802656       0.024
   0.12323718  0.12323718  0.12323718       0.008
   0.15844780  0.12323718  0.12323718       0.024
   0.15844780  0.15844780  0.12323718       0.024
   0.15844780  0.15844780  0.15844780       0.008
 
 k-points in reciprocal lattice and weights: pymatgen with grid density = 2166 / numb
   0.05000000  0.05000000  0.05000000       0.008
   0.15000000  0.05000000  0.05000000       0.024
   0.25000000  0.05000000  0.05000000       0.024
   0.35000000  0.05000000  0.05000000       0.024
   0.45000000  0.05000000  0.05000000       0.024
   0.15000000  0.15000000  0.05000000       0.024
   0.25000000  0.15000000  0.05000000       0.048
   0.35000000  0.15000000  0.05000000       0.048
   0.45000000  0.15000000  0.05000000       0.048
   0.25000000  0.25000000  0.05000000       0.024
   0.35000000  0.25000000  0.05000000       0.048
   0.45000000  0.25000000  0.05000000       0.048
   0.35000000  0.35000000  0.05000000       0.024
   0.45000000  0.35000000  0.05000000       0.048
   0.45000000  0.45000000  0.05000000       0.024
   0.15000000  0.15000000  0.15000000       0.008
   0.25000000  0.15000000  0.15000000       0.024
   0.35000000  0.15000000  0.15000000       0.024
   0.45000000  0.15000000  0.15000000       0.024
   0.25000000  0.25000000  0.15000000       0.024
   0.35000000  0.25000000  0.15000000       0.048
   0.45000000  0.25000000  0.15000000       0.048
   0.35000000  0.35000000  0.15000000       0.024
   0.45000000  0.35000000  0.15000000       0.048
   0.45000000  0.45000000  0.15000000       0.024
   0.25000000  0.25000000  0.25000000       0.008
   0.35000000  0.25000000  0.25000000       0.024
   0.45000000  0.25000000  0.25000000       0.024
   0.35000000  0.35000000  0.25000000       0.024
   0.45000000  0.35000000  0.25000000       0.048
   0.45000000  0.45000000  0.25000000       0.024
   0.35000000  0.35000000  0.35000000       0.008
   0.45000000  0.35000000  0.35000000       0.024
   0.45000000  0.45000000  0.35000000       0.024
   0.45000000  0.45000000  0.45000000       0.008
 
 position of ions in fractional coordinates (direct lattice) 
   0.00000000  0.00000000  0.00000000
   0.50000000  0.50000000  0.50000000
 
 position of ions in cartesian coordinates  (Angst):
   0.00000000  0.00000000  0.00000000
   1.42002600  1.42002600  1.42002600
 


--------------------------------------------------------------------------------------------------------


 k-point  1 :   0.0500 0.0500 0.0500  plane waves:     655
 k-point  2 :   0.1500 0.0500 0.0500  plane waves:     665
 k-point  3 :   0.2500 0.0500 0.0500  plane waves:     664
 k-point  4 :   0.3500 0.0500 0.0500  plane waves:     656
 k-point  5 :   0.4500 0.0500 0.0500  plane waves:     649
 k-point  6 :   0.1500 0.1500 0.0500  plane waves:     666
 k-point  7 :   0.2500 0.1500 0.0500  plane waves:     660
 k-point  8 :   0.3500 0.1500 0.0500  plane waves:     653
 k-point  9 :   0.4500 0.1500 0.0500  plane waves:     650
 k-point 10 :   0.2500 0.2500 0.0500  plane waves:     656
 k-point 11 :   0.3500 0.2500 0.0500  plane waves:     653
 k-point 12 :   0.4500 0.2500 0.0500  plane waves:     650
 k-point 13 :   0.3500 0.3500 0.0500  plane waves:     653
 k-point 14 :   0.4500 0.3500 0.0500  plane waves:     652
 k-point 15 :   0.4500 0.4500 0.0500  plane waves:     654
 k-point 16 :   0.1500 0.1500 0.1500  plane waves:     669
 k-point 17 :   0.2500 0.1500 0.1500  plane waves:     664
 k-point 18 :   0.3500 0.1500 0.1500  plane waves:     651
 k-point 19 :   0.4500 0.1500 0.1500  plane waves:     650
 k-point 20 :   0.2500 0.2500 0.1500  plane waves:     656
 k-point 21 :   0.3500 0.2500 0.1500  plane waves:     650
 k-point 22 :   0.4500 0.2500 0.1500  plane waves:     649
 k-point 23 :   0.3500 0.3500 0.1500  plane waves:     650
 k-point 24 :   0.4500 0.3500 0.1500  plane waves:     651
 k-point 25 :   0.4500 0.4500 0.1500  plane waves:     645
 k-point 26 :   0.2500 0.2500 0.2500  plane waves:     654
 k-point 27 :   0.3500 0.2500 0.2500  plane waves:     651
 k-point 28 :   0.4500 0.2500 0.2500  plane waves:     652
 k-point 29 :   0.3500 0.3500 0.2500  plane waves:     644
 k-point 30 :   0.4500 0.3500 0.2500  plane waves:     649
 k-point 31 :   0.4500 0.4500 0.2500  plane waves:     651
 k-point 32 :   0.3500 0.3500 0.3500  plane waves:     645
 k-point 33 :   0.4500 0.3500 0.3500  plane waves:     655
 k-point 34 :   0.4500 0.4500 0.3500  plane waves:     650
 k-point 35 :   0.4500 0.4500 0.4500  plane waves:     654

 maximum and minimum number of plane-waves per node :       176      155

 maximum number of plane-waves:       669
 maximum index in each direction: 
   IXMAX=    5   IYMAX=    5   IZMAX=    5
   IXMIN=   -5   IYMIN=   -5   IZMIN=   -5


 real space projection operators:
  total allocation   :       1962.84 KBytes
  max/ min on nodes  :        501.19        475.03


 parallel 3D FFT for wavefunctions:
    minimum data exchange during FFTs selected (reduces bandwidth)
 parallel 3D FFT for charge:
    minimum data exchange during FFTs selected (reduces bandwidth)


 total amount of memory used by VASP MPI-rank0    32630. kBytes
=======================================================================

   base      :      30000. kBytes
   nonlr-proj:        828. kBytes
   fftplans  :        261. kBytes
   grid      :        623. kBytes
   one-center:         31. kBytes
   wavefun   :        887. kBytes
 
     INWAV:  cpu time    0.0000: real time    0.0001
 Broyden mixing: mesh for mixing (old mesh)
   NGX = 11   NGY = 11   NGZ = 11
  (NGX  = 48   NGY  = 48   NGZ  = 48)
  gives a total of   1331 points

 initial charge density was supplied:
 charge density of overlapping atoms calculated
 number of electron      28.0000000 magnetization      10.0000000
 keeping initial charge density in first step


--------------------------------------------------------------------------------------------------------


 Maximum index for non-local projection operator         1689
 Maximum index for augmentation-charges          805 (set IRDMAX)


--------------------------------------------------------------------------------------------------------


 First call to EWALD:  gamma=   0.624
 Maximum number of real-space cells 3x 3x 3
 Maximum number of reciprocal cells 3x 3x 3

    FEWALD:  cpu time    0.0012: real time    0.0013


--------------------------------------- Iteration      1(   1)  ---------------------------------------


    POTLOK:  cpu time    0.0091: real time    0.0131
    SETDIJ:  cpu time    0.0062: real time    0.0063
     EDDAV:  cpu time    0.4634: real time    0.4694
 BZINTS: Fermi energy: 20.095810; 28.000000 electrons
         Band energy:-117.147595;  BLOECHL correction: -0.154301
       DOS:  cpu time    0.0356: real time    0.0357
    --------------------------------------------
      LOOP:  cpu time    0.5144: real time    0.5244

 eigenvalue-minimisations  :  3576
 total energy-change (2. order) : 0.2052710E+03  (-0.1831882E+04)
 number of electron      28.0000000 magnetization      10.0000000
 augmentation part       28.0000000 magnetization      10.0000000

 Free energy of the ion-electron system (eV)
  ---------------------------------------------------
  alpha Z        PSCENC =       218.87048721
  Ewald energy   TEWEN  =     -3616.56080017
  -Hartree energ DENC   =     -1162.86386254
  -exchange      EXHF   =         0.00000000
  -V(xc)+E(xc)   XCENC  =       147.54621923
  PAW double counting   =      3997.93860218    -4177.34792201
  entropy T*S    EENTRO =         0.00000000
  eigenvalues    EBANDS =      -117.14759469
  atomic energy  EATOM  =      4914.83588457
  Solvation  Ediel_sol  =         0.00000000
  ---------------------------------------------------
  free energy    TOTEN  =       205.27101377 eV

  energy without entropy =      205.27101377  energy(sigma->0) =      205.27101377


--------------------------------------------------------------------------------------------------------




--------------------------------------- Iteration      1(   2)  ---------------------------------------


     EDDAV:  cpu time    0.4389: real time    0.4439
 BZINTS: Fermi energy: 12.182913; 28.000000 electrons
         Band energy:-332.752253;  BLOECHL correction: -0.070762
       DOS:  cpu time    0.0338: real time    0.0339
    --------------------------------------------
      LOOP:  cpu time    0.4727: real time    0.4778

 eigenvalue-minimisations  :  3408
 total energy-change (2. order) :-0.2156047E+03  (-0.2063183E+03)
 number of electron      28.0000000 magnetization      10.0000000
 augmentation part       28.0000000 magnetization      10.0000000

 Free energy of the ion-electron system (eV)
  ---------------------------------------------------
  alpha Z        PSCENC =       218.87048721
  Ewald energy   TEWEN  =     -3616.56080017
  -Hartree energ DENC   =     -1162.86386254
  -exchange      EXHF   =         0.00000000
  -V(xc)+E(xc)   XCENC  =       147.54621923
  PAW double counting   =      3997.93860218    -4177.34792201
  entropy T*S    EENTRO =         0.00000000
  eigenvalues    EBANDS =      -332.75225300
  atomic energy  EATOM  =      4914.83588457
  Solvation  Ediel_sol  =         0.00000000
  ---------------------------------------------------
  free energy    TOTEN  =       -10.33364453 eV

  energy without entropy =      -10.33364453  energy(sigma->0) =      -10.33364453


--------------------------------------------------------------------------------------------------------




--------------------------------------- Iteration      1(   3)  ---------------------------------------


     EDDAV:  cpu time    0.4753: real time    0.4767
 BZINTS: Fermi energy: 12.037400; 28.000000 electrons
         Band energy:-338.644026;  BLOECHL correction: -0.071287
       DOS:  cpu time    0.0346: real time    0.0346
    --------------------------------------------
      LOOP:  cpu time    0.5098: real time    0.5113

 eigenvalue-minimisations  :  3792
 total energy-change (2. order) :-0.5891773E+01  (-0.5881102E+01)
 number of electron      28.0000000 magnetization      10.0000000
 augmentation part       28.0000000 magnetization      10.0000000

 Free energy of the ion-electron system (eV)
  ---------------------------------------------------
  alpha Z        PSCENC =       218.87048721
  Ewald energy   TEWEN  =     -3616.56080017
  -Hartree energ DENC   =     -1162.86386254
  -exchange      EXHF   =         0.00000000
  -V(xc)+E(xc)   XCENC  =       147.54621923
  PAW double counting   =      3997.93860218    -4177.34792201
  entropy T*S    EENTRO =         0.00000000
  eigenvalues    EBANDS =      -338.64402633
  atomic energy  EATOM  =      4914.83588457
  Solvation  Ediel_sol  =         0.00000000
  ---------------------------------------------------
  free energy    TOTEN  =       -16.22541786 eV

  energy without entropy =      -16.22541786  energy(sigma->0) =      -16.22541786


--------------------------------------------------------------------------------------------------------




--------------------------------------- Iteration      1(   4)  ---------------------------------------


     EDDAV:  cpu time    0.4764: real time    0.4777
 BZINTS: Fermi energy: 12.036987; 28.000000 electrons
         Band energy:-338.691006;  BLOECHL correction: -0.071286
       DOS:  cpu time    0.0346: real time    0.0347
    --------------------------------------------
      LOOP:  cpu time    0.5110: real time    0.5124

 eigenvalue-minimisations  :  3792
 total energy-change (2. order) :-0.4697926E-01  (-0.4698254E-01)
 number of electron      28.0000000 magnetization      10.0000000
 augmentation part       28.0000000 magnetization      10.0000000

 Free energy of the ion-electron system (eV)
  ---------------------------------------------------
  alpha Z        PSCENC =       218.87048721
  Ewald energy   TEWEN  =     -3616.56080017
  -Hartree energ DENC   =     -1162.86386254
  -exchange      EXHF   =         0.00000000
  -V(xc)+E(xc)   XCENC  =       147.54621923
  PAW double counting   =      3997.93860218    -4177.34792201
  entropy T*S    EENTRO =         0.00000000
  eigenvalues    EBANDS =      -338.69100558
  atomic energy  EATOM  =      4914.83588457
  Solvation  Ediel_sol  =         0.00000000
  ---------------------------------------------------
  free energy    TOTEN  =       -16.27239712 eV

  energy without entropy =      -16.27239712  energy(sigma->0) =      -16.27239712


--------------------------------------------------------------------------------------------------------




--------------------------------------- Iteration      1(   5)  ---------------------------------------


     EDDAV:  cpu time    0.4776: real time    0.4788
 BZINTS: Fermi energy: 12.036986; 28.000000 electrons
         Band energy:-338.691886;  BLOECHL correction: -0.071286
       DOS:  cpu time    0.0356: real time    0.0357
    CHARGE:  cpu time    0.0140: real time    0.0141
    MIXING:  cpu time    0.0006: real time    0.0007
    --------------------------------------------
      LOOP:  cpu time    0.5277: real time    0.5292

 eigenvalue-minimisations  :  3816
 total energy-change (2. order) :-0.8808218E-03  (-0.8808540E-03)
 number of electron      28.0000000 magnetization       4.3578932
 augmentation part       15.9048571 magnetization       2.8340037

 Broyden mixing:
  rms(total) = 0.24980E+01    rms(broyden)= 0.24980E+01
  rms(prec ) = 0.39505E+01
  weight for this iteration     100.00

 Free energy of the ion-electron system (eV)
  ---------------------------------------------------
  alpha Z        PSCENC =       218.87048721
  Ewald energy   TEWEN  =     -3616.56080017
  -Hartree energ DENC   =     -1162.86386254
  -exchange      EXHF   =         0.00000000
  -V(xc)+E(xc)   XCENC  =       147.54621923
  PAW double counting   =      3997.93860218    -4177.34792201
  entropy T*S    EENTRO =         0.00000000
  eigenvalues    EBANDS =      -338.69188640
  atomic energy  EATOM  =      4914.83588457
  Solvation  Ediel_sol  =         0.00000000
  ---------------------------------------------------
  free energy    TOTEN  =       -16.27327794 eV

  energy without entropy =      -16.27327794  energy(sigma->0) =      -16.27327794


--------------------------------------------------------------------------------------------------------




--------------------------------------- Iteration      1(   6)  ---------------------------------------


    POTLOK:  cpu time    0.0059: real time    0.0059
    SETDIJ:  cpu time    0.0052: real time    0.0052
     EDDAV:  cpu time    0.4419: real time    0.4431
 BZINTS: Fermi energy:  9.266255; 28.000000 electrons
         Band energy:-409.567791;  BLOECHL correction: -0.036188
       DOS:  cpu time    0.0362: real time    0.0362
    CHARGE:  cpu time    0.0138: real time    0.0138
    MIXING:  cpu time    0.0005: real time    0.0005
    --------------------------------------------
      LOOP:  cpu time    0.5034: real time    0.5048

 eigenvalue-minimisations  :  3420
 total energy-change (2. order) :-0.1821329E+00  (-0.7492482E+00)
 number of electron      27.9999999 magnetization       4.5320474
 augmentation part       17.0681453 magnetization       3.5501074

 Broyden mixing:
  rms(total) = 0.69029E+00    rms(broyden)= 0.69018E+00
  rms(prec ) = 0.86566E+00
  weight for this iteration     100.00

 eigenvalues of (default mixing * dielectric matrix)
  average eigenvalue GAMMA=   0.8373
  0.8373

 Free energy of the ion-electron system (eV)
  ---------------------------------------------------
  alpha Z        PSCENC =       218.87048721
  Ewald energy   TEWEN  =     -3616.56080017
  -Hartree energ DENC   =     -1089.08991236
  -exchange      EXHF   =         0.00000000
  -V(xc)+E(xc)   XCENC  =       140.63940209
  PAW double counting   =      4113.66443473    -4289.24711591
  entropy T*S    EENTRO =         0.00000000
  eigenvalues    EBANDS =      -409.56779102
  atomic energy  EATOM  =      4914.83588457
  Solvation  Ediel_sol  =         0.00000000
  ---------------------------------------------------
  free energy    TOTEN  =       -16.45541087 eV

  energy without entropy =      -16.45541087  energy(sigma->0) =      -16.45541087


--------------------------------------------------------------------------------------------------------




--------------------------------------- Iteration      1(   7)  ---------------------------------------


    POTLOK:  cpu time    0.0068: real time    0.0070
    SETDIJ:  cpu time    0.0052: real time    0.0052
     EDDAV:  cpu time    0.4317: real time    0.4327
 BZINTS: Fermi energy:  9.762993; 28.000000 electrons
         Band energy:-395.176684;  BLOECHL correction: -0.033717
       DOS:  cpu time    0.0343: real time    0.0344
    CHARGE:  cpu time    0.0136: real time    0.0136
    MIXING:  cpu time    0.0003: real time    0.0003
    --------------------------------------------
      LOOP:  cpu time    0.4918: real time    0.4931

 eigenvalue-minimisations  :  3432
 total energy-change (2. order) :-0.5631128E-01  (-0.6139914E-01)
 number of electron      27.9999999 magnetization       4.4437720
 augmentation part       16.7744005 magnetization       3.5268230

 Broyden mixing:
  rms(total) = 0.43026E+00    rms(broyden)= 0.43023E+00
  rms(prec ) = 0.52572E+00
  weight for this iteration     100.00

 eigenvalues of (default mixing * dielectric matrix)
  average eigenvalue GAMMA=   0.7673
  0.9881  0.5465

 Free energy of the ion-electron system (eV)
  ---------------------------------------------------
  alpha Z        PSCENC =       218.87048721
  Ewald energy   TEWEN  =     -3616.56080017
  -Hartree energ DENC   =     -1099.08590700
  -exchange      EXHF   =         0.00000000
  -V(xc)+E(xc)   XCENC  =       141.33164988
  PAW double counting   =      4219.63424409    -4400.36059645
  entropy T*S    EENTRO =         0.00000000
  eigenvalues    EBANDS =      -395.17668428
  atomic energy  EATOM  =      4914.83588457
  Solvation  Ediel_sol  =         0.00000000
  ---------------------------------------------------
  free energy    TOTEN  =       -16.51172215 eV

  energy without entropy =      -16.51172215  energy(sigma->0) =      -16.51172215


--------------------------------------------------------------------------------------------------------




--------------------------------------- Iteration      1(   8)  ---------------------------------------


    POTLOK:  cpu time    0.0058: real time    0.0060
    SETDIJ:  cpu time    0.0048: real time    0.0048
     EDDAV:  cpu time    0.4593: real time    0.4606
 BZINTS: Fermi energy:  9.689100; 28.000000 electrons
         Band energy:-397.451058;  BLOECHL correction: -0.033975
       DOS:  cpu time    0.0342: real time    0.0343
    CHARGE:  cpu time    0.0136: real time    0.0136
    MIXING:  cpu time    0.0003: real time    0.0003
    --------------------------------------------
      LOOP:  cpu time    0.5181: real time    0.5196

 eigenvalue-minimisations  :  3660
 total energy-change (2. order) :-0.1001342E-01  (-0.1495063E-02)
 number of electron      27.9999999 magnetization       4.3701548
 augmentation part       16.8106128 magnetization       3.4533894

 Broyden mixing:
  rms(total) = 0.13690E+00    rms(broyden)= 0.13689E+00
  rms(prec ) = 0.21427E+00
  weight for this iteration     100.00

 eigenvalues of (default mixing * dielectric matrix)
  average eigenvalue GAMMA=   1.0473
  1.6983  0.8569  0.5866

 Free energy of the ion-electron system (eV)
  ---------------------------------------------------
  alpha Z        PSCENC =       218.87048721
  Ewald energy   TEWEN  =     -3616.56080017
  -Hartree energ DENC   =     -1095.15878014
  -exchange      EXHF   =         0.00000000
  -V(xc)+E(xc)   XCENC  =       141.10730122
  PAW double counting   =      4267.67396276    -4449.83873339
  entropy T*S    EENTRO =         0.00000000
  eigenvalues    EBANDS =      -397.45105764
  atomic energy  EATOM  =      4914.83588457
  Solvation  Ediel_sol  =         0.00000000
  ---------------------------------------------------
  free energy    TOTEN  =       -16.52173557 eV

  energy without entropy =      -16.52173557  energy(sigma->0) =      -16.52173557


--------------------------------------------------------------------------------------------------------




--------------------------------------- Iteration      1(   9)  ---------------------------------------


    POTLOK:  cpu time    0.0059: real time    0.0060
    SETDIJ:  cpu time    0.0048: real time    0.0048
     EDDAV:  cpu time    0.4640: real time    0.4651
 BZINTS: Fermi energy:  9.610720; 28.000000 electrons
         Band energy:-399.747247;  BLOECHL correction: -0.034529
       DOS:  cpu time    0.0351: real time    0.0352
    CHARGE:  cpu time    0.0136: real time    0.0136
    MIXING:  cpu time    0.0003: real time    0.0003
    --------------------------------------------
      LOOP:  cpu time    0.5237: real time    0.5251

 eigenvalue-minimisations  :  3708
 total energy-change (2. order) : 0.8181518E-02  (-0.5141517E-03)
 number of electron      27.9999999 magnetization       4.4018796
 augmentation part       16.8468295 magnetization       3.4831467

 Broyden mixing:
  rms(total) = 0.33707E-01    rms(broyden)= 0.33702E-01
  rms(prec ) = 0.45925E-01
  weight for this iteration     100.00

 eigenvalues of (default mixing * dielectric matrix)
  average eigenvalue GAMMA=   1.1854
  2.3399  1.0617  0.6987  0.6415

 Free energy of the ion-electron system (eV)
  ---------------------------------------------------
  alpha Z        PSCENC =       218.87048721
  Ewald energy   TEWEN  =     -3616.56080017
  -Hartree energ DENC   =     -1090.24519411
  -exchange      EXHF   =         0.00000000
  -V(xc)+E(xc)   XCENC  =       140.86465853
  PAW double counting   =      4344.07534151    -4528.60668441
  entropy T*S    EENTRO =         0.00000000
  eigenvalues    EBANDS =      -399.74724718
  atomic energy  EATOM  =      4914.83588457
  Solvation  Ediel_sol  =         0.00000000
  ---------------------------------------------------
  free energy    TOTEN  =       -16.51355405 eV

  energy without entropy =      -16.51355405  energy(sigma->0) =      -16.51355405


--------------------------------------------------------------------------------------------------------




--------------------------------------- Iteration      1(  10)  ---------------------------------------


    POTLOK:  cpu time    0.0058: real time    0.0059
    SETDIJ:  cpu time    0.0048: real time    0.0048
     EDDAV:  cpu time    0.4292: real time    0.4304
 BZINTS: Fermi energy:  9.625044; 28.000000 electrons
         Band energy:-399.208656;  BLOECHL correction: -0.034686
       DOS:  cpu time    0.0333: real time    0.0334
    CHARGE:  cpu time    0.0135: real time    0.0136
    MIXING:  cpu time    0.0004: real time    0.0004
    --------------------------------------------
      LOOP:  cpu time    0.4870: real time    0.4884

 eigenvalue-minimisations  :  3420
 total energy-change (2. order) : 0.1729799E-03  (-0.2248250E-03)
 number of electron      27.9999999 magnetization       4.4066818
 augmentation part       16.8348498 magnetization       3.4852004

 Broyden mixing:
  rms(total) = 0.44102E-02    rms(broyden)= 0.44101E-02
  rms(prec ) = 0.54526E-02
  weight for this iteration     100.00

 eigenvalues of (default mixing * dielectric matrix)
  average eigenvalue GAMMA=   1.1291
  2.4320  1.0997  0.7826  0.6972  0.6338

 Free energy of the ion-electron system (eV)
  ---------------------------------------------------
  alpha Z        PSCENC =       218.87048721
  Ewald energy   TEWEN  =     -3616.56080017
  -Hartree energ DENC   =     -1089.85511703
  -exchange      EXHF   =         0.00000000
  -V(xc)+E(xc)   XCENC  =       140.87196226
  PAW double counting   =      4372.93550608    -4558.40264802
  entropy T*S    EENTRO =         0.00000000
  eigenvalues    EBANDS =      -399.20865597
  atomic energy  EATOM  =      4914.83588457
  Solvation  Ediel_sol  =         0.00000000
  ---------------------------------------------------
  free energy    TOTEN  =       -16.51338107 eV

  energy without entropy =      -16.51338107  energy(sigma->0) =      -16.51338107


--------------------------------------------------------------------------------------------------------




--------------------------------------- Iteration      1(  11)  ---------------------------------------


    POTLOK:  cpu time    0.0059: real time    0.0060
    SETDIJ:  cpu time    0.0048: real time    0.0048
     EDDAV:  cpu time    0.4536: real time    0.4547
 BZINTS: Fermi energy:  9.623484; 28.000000 electrons
         Band energy:-399.240733;  BLOECHL correction: -0.034703
       DOS:  cpu time    0.0333: real time    0.0334
    CHARGE:  cpu time    0.0135: real time    0.0135
    MIXING:  cpu time    0.0004: real time    0.0004
    --------------------------------------------
      LOOP:  cpu time    0.5114: real time    0.5127

 eigenvalue-minimisations  :  3612
 total energy-change (2. order) :-0.5916385E-04  (-0.4828421E-05)
 number of electron      27.9999999 magnetization       4.4060759
 augmentation part       16.8353979 magnetization       3.4848601

 Broyden mixing:
  rms(total) = 0.24261E-02    rms(broyden)= 0.24259E-02
  rms(prec ) = 0.32740E-02
  weight for this iteration     100.00

 eigenvalues of (default mixing * dielectric matrix)
  average eigenvalue GAMMA=   1.2936
  2.3007  2.3007  1.0746  0.6331  0.7545  0.6978

 Free energy of the ion-electron system (eV)
  ---------------------------------------------------
  alpha Z        PSCENC =       218.87048721
  Ewald energy   TEWEN  =     -3616.56080017
  -Hartree energ DENC   =     -1089.84754488
  -exchange      EXHF   =         0.00000000
  -V(xc)+E(xc)   XCENC  =       140.87437460
  PAW double counting   =      4374.15924850    -4559.60435709
  entropy T*S    EENTRO =         0.00000000
  eigenvalues    EBANDS =      -399.24073297
  atomic energy  EATOM  =      4914.83588457
  Solvation  Ediel_sol  =         0.00000000
  ---------------------------------------------------
  free energy    TOTEN  =       -16.51344024 eV

  energy without entropy =      -16.51344024  energy(sigma->0) =      -16.51344024


--------------------------------------------------------------------------------------------------------




--------------------------------------- Iteration      1(  12)  ---------------------------------------


    POTLOK:  cpu time    0.0060: real time    0.0061
    SETDIJ:  cpu time    0.0049: real time    0.0049
     EDDAV:  cpu time    0.4904: real time    0.4917
 BZINTS: Fermi energy:  9.621963; 28.000000 electrons
         Band energy:-399.274845;  BLOECHL correction: -0.034716
       DOS:  cpu time    0.0342: real time    0.0343
    CHARGE:  cpu time    0.0137: real time    0.0138
    MIXING:  cpu time    0.0005: real time    0.0005
    --------------------------------------------
      LOOP:  cpu time    0.5497: real time    0.5512

 eigenvalue-minimisations  :  3840
 total energy-change (2. order) :-0.8102545E-05  (-0.4844311E-06)
 number of electron      27.9999999 magnetization       4.4057988
 augmentation part       16.8361048 magnetization       3.4848453

 Broyden mixing:
  rms(total) = 0.95622E-03    rms(broyden)= 0.95617E-03
  rms(prec ) = 0.13518E-02
  weight for this iteration     100.00

 eigenvalues of (default mixing * dielectric matrix)
  average eigenvalue GAMMA=   1.2306
  2.3867  2.3867  1.0833  0.7884  0.7175  0.6259  0.6259

 Free energy of the ion-electron system (eV)
  ---------------------------------------------------
  alpha Z        PSCENC =       218.87048721
  Ewald energy   TEWEN  =     -3616.56080017
  -Hartree energ DENC   =     -1089.89910255
  -exchange      EXHF   =         0.00000000
  -V(xc)+E(xc)   XCENC  =       140.87704322
  PAW double counting   =      4375.22774293    -4560.58985824
  entropy T*S    EENTRO =         0.00000000
  eigenvalues    EBANDS =      -399.27484531
  atomic energy  EATOM  =      4914.83588457
  Solvation  Ediel_sol  =         0.00000000
  ---------------------------------------------------
  free energy    TOTEN  =       -16.51344834 eV

  energy without entropy =      -16.51344834  energy(sigma->0) =      -16.51344834


--------------------------------------------------------------------------------------------------------




--------------------------------------- Iteration      1(  13)  ---------------------------------------


    POTLOK:  cpu time    0.0060: real time    0.0064
    SETDIJ:  cpu time    0.0050: real time    0.0050
     EDDAV:  cpu time    0.4425: real time    0.4436
 BZINTS: Fermi energy:  9.622565; 28.000000 electrons
         Band energy:-399.262463;  BLOECHL correction: -0.034708
       DOS:  cpu time    0.0333: real time    0.0334
    CHARGE:  cpu time    0.0135: real time    0.0135
    MIXING:  cpu time    0.0004: real time    0.0004
    --------------------------------------------
      LOOP:  cpu time    0.5008: real time    0.5024

 eigenvalue-minimisations  :  3528
 total energy-change (2. order) : 0.6774658E-05  (-0.1336417E-06)
 number of electron      27.9999999 magnetization       4.4055981
 augmentation part       16.8358033 magnetization       3.4845347

 Broyden mixing:
  rms(total) = 0.24533E-03    rms(broyden)= 0.24529E-03
  rms(prec ) = 0.33484E-03
  weight for this iteration     100.00

 eigenvalues of (default mixing * dielectric matrix)
  average eigenvalue GAMMA=   1.2909
  2.5236  2.4539  1.4772  1.0638  0.8081  0.6260  0.6875  0.6875

 Free energy of the ion-electron system (eV)
  ---------------------------------------------------
  alpha Z        PSCENC =       218.87048721
  Ewald energy   TEWEN  =     -3616.56080017
  -Hartree energ DENC   =     -1089.90616615
  -exchange      EXHF   =         0.00000000
  -V(xc)+E(xc)   XCENC  =       140.87693916
  PAW double counting   =      4375.34919488    -4560.71651757
  entropy T*S    EENTRO =         0.00000000
  eigenvalues    EBANDS =      -399.26246350
  atomic energy  EATOM  =      4914.83588457
  Solvation  Ediel_sol  =         0.00000000
  ---------------------------------------------------
  free energy    TOTEN  =       -16.51344156 eV

  energy without entropy =      -16.51344156  energy(sigma->0) =      -16.51344156


--------------------------------------------------------------------------------------------------------




--------------------------------------- Iteration      1(  14)  ---------------------------------------


    POTLOK:  cpu time    0.0059: real time    0.0060
    SETDIJ:  cpu time    0.0048: real time    0.0048
     EDDAV:  cpu time    0.3712: real time    0.3722
 BZINTS: Fermi energy:  9.622803; 28.000000 electrons
         Band energy:-399.257678;  BLOECHL correction: -0.034706
       DOS:  cpu time    0.0361: real time    0.0362
    CHARGE:  cpu time    0.0134: real time    0.0135
    MIXING:  cpu time    0.0005: real time    0.0005
    --------------------------------------------
      LOOP:  cpu time    0.4319: real time    0.4331

 eigenvalue-minimisations  :  2676
 total energy-change (2. order) : 0.1540495E-05  (-0.1533991E-07)
 number of electron      27.9999999 magnetization       4.4056160
 augmentation part       16.8356906 magnetization       3.4845192

 Broyden mixing:
  rms(total) = 0.61494E-04    rms(broyden)= 0.61277E-04
  rms(prec ) = 0.81336E-04
  weight for this iteration     100.00

 eigenvalues of (default mixing * dielectric matrix)
  average eigenvalue GAMMA=   1.2120
  2.6077  2.4668  1.2858  1.0497  0.8269  0.6318  0.6672  0.6858  0.6858

 Free energy of the ion-electron system (eV)
  ---------------------------------------------------
  alpha Z        PSCENC =       218.87048721
  Ewald energy   TEWEN  =     -3616.56080017
  -Hartree energ DENC   =     -1089.90859401
  -exchange      EXHF   =         0.00000000
  -V(xc)+E(xc)   XCENC  =       140.87677344
  PAW double counting   =      4375.34977466    -4560.71928818
  entropy T*S    EENTRO =         0.00000000
  eigenvalues    EBANDS =      -399.25767755
  atomic energy  EATOM  =      4914.83588457
  Solvation  Ediel_sol  =         0.00000000
  ---------------------------------------------------
  free energy    TOTEN  =       -16.51344002 eV

  energy without entropy =      -16.51344002  energy(sigma->0) =      -16.51344002


--------------------------------------------------------------------------------------------------------




--------------------------------------- Iteration      1(  15)  ---------------------------------------


    POTLOK:  cpu time    0.0059: real time    0.0060
    SETDIJ:  cpu time    0.0048: real time    0.0048
     EDDAV:  cpu time    0.2842: real time    0.2848
 BZINTS: Fermi energy:  9.622770; 28.000000 electrons
         Band energy:-399.258565;  BLOECHL correction: -0.034706
       DOS:  cpu time    0.0351: real time    0.0352
    --------------------------------------------
      LOOP:  cpu time    0.3300: real time    0.3309

 eigenvalue-minimisations  :  1740
 total energy-change (2. order) :-0.3399691E-08  (-0.1159454E-08)
 number of electron      27.9999999 magnetization       4.4056160
 augmentation part       16.8356906 magnetization       3.4845192

 Free energy of the ion-electron system (eV)
  ---------------------------------------------------
  alpha Z        PSCENC =       218.87048721
  Ewald energy   TEWEN  =     -3616.56080017
  -Hartree energ DENC   =     -1089.90819760
  -exchange      EXHF   =         0.00000000
  -V(xc)+E(xc)   XCENC  =       140.87680449
  PAW double counting   =      4375.34552642    -4560.71457956
  entropy T*S    EENTRO =         0.00000000
  eigenvalues    EBANDS =      -399.25856539
  atomic energy  EATOM  =      4914.83588457
  Solvation  Ediel_sol  =         0.00000000
  ---------------------------------------------------
  free energy    TOTEN  =       -16.51344003 eV

  energy without entropy =      -16.51344003  energy(sigma->0) =      -16.51344003


--------------------------------------------------------------------------------------------------------




 average (electrostatic) potential at core
  the test charge radii are     0.9500
  (the norm of the test charge is              1.0000)
       1 -73.6651       2 -73.6651
 
 
 
 E-fermi :   9.6228     XC(G=0): -13.6245     alpha+bet :-17.4163


 spin component 1

 k-point     1 :       0.0500    0.0500    0.0500
  band No.  band energies     occupation 
      1     -44.5598      1.00000
      2     -44.5598      1.00000
      3     -44.5455      1.00000
      4     -44.2887      1.00000
      5     -44.2740      1.00000
      6     -44.2740      1.00000
      7       1.3980      1.00000
      8       4.9388      1.00000
      9       4.9388      1.00000
     10       7.3051      1.00000
     11       7.3051      1.00000
     12       7.4311      1.00000
     13       8.5806      1.00000
     14       8.5806      1.00000
     15       9.4948      1.00000
     16       9.6872      0.60093
     17       9.6872      0.00980
     18      19.1993      0.00000
     19      19.1993      0.00000
     20      19.4413      0.00000
     21      25.8103      0.00000
     22      25.8103      0.00000
     23      30.6981      0.00000
     24      33.3490      0.00000

 k-point     2 :       0.1500    0.0500    0.0500
  band No.  band energies     occupation 
      1     -44.5658      1.00000
      2     -44.5451      1.00000
      3     -44.5235      1.00000
      4     -44.3205      1.00000
      5     -44.2872      1.00000
      6     -44.2795      1.00000
      7       1.8016      1.00000
      8       5.1066      1.00000
      9       5.1088      1.00000
     10       7.2466      1.00000
     11       7.2948      1.00000
     12       7.5993      1.00000
     13       8.4145      1.00000
     14       8.6556      1.00000
     15       9.1041      1.00000
     16       9.3726      1.02105
     17       9.6657      0.13629
     18      17.0986      0.00000
     19      19.9182      0.00000
     20      20.0954      0.00000
     21      25.9619      0.00000
     22      27.1440      0.00000
     23      31.5528      0.00000
     24      32.1505      0.00000

 k-point     3 :       0.2500    0.0500    0.0500
  band No.  band energies     occupation 
      1     -44.5630      1.00000
      2     -44.5172      1.00000
      3     -44.4927      1.00000
      4     -44.3682      1.00000
      5     -44.3126      1.00000
      6     -44.2995      1.00000
      7       2.5671      1.00000
      8       5.3679      1.00000
      9       5.4279      1.00000
     10       7.2426      1.00000
     11       7.2876      1.00000
     12       7.8418      1.00000
     13       8.1081      1.00000
     14       8.6067      1.00000
     15       8.7949      1.00000
     16       8.8890      1.00000
     17       9.4859      1.03937
     18      14.5755      0.00000
     19      21.1874      0.00000
     20      21.3582      0.00000
     21      26.2946      0.00000
     22      27.9721      0.00000
     23      29.6289      0.00000
     24      31.2960      0.00000

 k-point     4 :       0.3500    0.0500    0.0500
  band No.  band energies     occupation 
      1     -44.5486      1.00000
      2     -44.4794      1.00000
      3     -44.4547      1.00000
      4     -44.4235      1.00000
      5     -44.3479      1.00000
      6     -44.3309      1.00000
      7       3.5893      1.00000
      8       5.5405      1.00000
      9       5.8729      1.00000
     10       7.2460      1.00000
     11       7.3215      1.00000
     12       7.7682      1.00000
     13       8.1305      1.00000
     14       8.1504      1.00000
     15       8.3930      1.00000
     16       9.0194      1.00000
     17       9.2004      1.03864
     18      12.2832      0.00000
     19      22.7943      0.00000
     20      23.0071      0.00000
     21      26.8755      0.00000
     22      27.8749      0.00000
     23      28.6107      0.00000
     24      29.1474      0.00000

 k-point     5 :       0.4500    0.0500    0.0500
  band No.  band energies     occupation 
      1     -44.5198      1.00000
      2     -44.4767      1.00000
      3     -44.4355      1.00000
      4     -44.4125      1.00000
      5     -44.3902      1.00000
      6     -44.3698      1.00000
      7       4.6411      1.00000
      8       5.3583      1.00000
      9       6.3950      1.00000
     10       6.9178      1.00000
     11       7.4993      1.00000
     12       7.7313      1.00000
     13       7.7627      1.00000
     14       7.9857      1.00000
     15       8.4992      1.00000
     16       8.8575      1.00000
     17       9.4834      0.98552
     18      10.5197      0.00000
     19      24.5322      0.00000
     20      24.9044      0.00000
     21      26.2267      0.00000
     22      26.9672      0.00000
     23      27.8213      0.00000
     24      29.2508      0.00000

 k-point     6 :       0.1500    0.1500    0.0500
  band No.  band energies     occupation 
      1     -44.5799      1.00000
      2     -44.5363      1.00000
      3     -44.4911      1.00000
      4     -44.3620      1.00000
      5     -44.2974      1.00000
      6     -44.2740      1.00000
      7       2.1895      1.00000
      8       5.2396      1.00000
      9       5.2983      1.00000
     10       7.0940      1.00000
     11       7.2377      1.00000
     12       7.8702      1.00000
     13       8.4388      1.00000
     14       8.6108      1.00000
     15       8.6247      1.00000
     16       9.1497      1.00690
     17       9.7348      0.03151
     18      17.1957      0.00000
     19      18.2809      0.00000
     20      20.6505      0.00000
     21      26.6284      0.00000
     22      28.5394      0.00000
     23      29.9220      0.00000
     24      31.9696      0.00000

 k-point     7 :       0.2500    0.1500    0.0500
  band No.  band energies     occupation 
      1     -44.5891      1.00000
      2     -44.5107      1.00000
      3     -44.4533      1.00000
      4     -44.4167      1.00000
      5     -44.3204      1.00000
      6     -44.2815      1.00000
      7       2.9158      1.00000
      8       5.4558      1.00000
      9       5.6210      1.00000
     10       6.9884      1.00000
     11       7.1827      1.00000
     12       8.1059      1.00000
     13       8.2003      1.00000
     14       8.2828      1.00000
     15       8.7217      1.00000
     16       8.7246      1.00000
     17       9.6886      0.28943
     18      14.9837      0.00000
     19      19.0119      0.00000
     20      21.7954      0.00000
     21      27.0201      0.00000
     22      27.7478      0.00000
     23      29.9241      0.00000
     24      30.6413      0.00000

 k-point     8 :       0.3500    0.1500    0.0500
  band No.  band energies     occupation 
      1     -44.5850      1.00000
      2     -44.4752      1.00000
      3     -44.4745      1.00000
      4     -44.4126      1.00000
      5     -44.3529      1.00000
      6     -44.3024      1.00000
      7       3.8581      1.00000
      8       5.5958      1.00000
      9       6.0120      1.00000
     10       6.9648      1.00000
     11       7.1191      1.00000
     12       7.6672      1.00000
     13       8.0934      1.00000
     14       8.3378      1.00000
     15       8.5644      1.00000
     16       8.9634      1.00000
     17       9.4969      0.92407
     18      12.6532      0.00000
     19      20.3760      0.00000
     20      23.3118      0.00000
     21      25.6605      0.00000
     22      27.5892      0.00000
     23      28.7791      0.00000
     24      30.9265      0.00000

 k-point     9 :       0.4500    0.1500    0.0500
  band No.  band energies     occupation 
      1     -44.5641      1.00000
      2     -44.5260      1.00000
      3     -44.4342      1.00000
      4     -44.3920      1.00000
      5     -44.3716      1.00000
      6     -44.3337      1.00000
      7       4.7818      1.00000
      8       5.4047      1.00000
      9       6.4370      1.00000
     10       6.8153      1.00000
     11       7.1500      1.00000
     12       7.3559      1.00000
     13       8.0552      1.00000
     14       8.1287      1.00000
     15       8.8894      1.00000
     16       9.2082      1.00000
     17       9.5413      0.77861
     18      10.7643      0.00000
     19      21.9648      0.00000
     20      23.7292      0.00000
     21      25.0472      0.00000
     22      26.8831      0.00000
     23      28.4947      0.00000
     24      29.8474      0.00000

 k-point    10 :       0.2500    0.2500    0.0500
  band No.  band energies     occupation 
      1     -44.6123      1.00000
      2     -44.4901      1.00000
      3     -44.4764      1.00000
      4     -44.4104      1.00000
      5     -44.3382      1.00000
      6     -44.2741      1.00000
      7       3.5388      1.00000
      8       5.5108      1.00000
      9       6.0144      1.00000
     10       6.7717      1.00000
     11       7.1539      1.00000
     12       7.5989      1.00000
     13       8.4265      1.00000
     14       8.4289      1.00000
     15       8.6231      1.00000
     16       8.6651      1.00000
     17       9.8080     -0.03386
     18      14.8628      0.00000
     19      17.4659      0.00000
     20      22.7545      0.00000
     21      25.3835      0.00000
     22      27.3664      0.00000
     23      30.0595      0.00000
     24      32.3853      0.00000

 k-point    11 :       0.3500    0.2500    0.0500
  band No.  band energies     occupation 
      1     -44.6215      1.00000
      2     -44.5346      1.00000
      3     -44.4612      1.00000
      4     -44.3688      1.00000
      5     -44.3635      1.00000
      6     -44.2813      1.00000
      7       4.2636      1.00000
      8       5.4681      1.00000
      9       6.4675      1.00000
     10       6.6642      1.00000
     11       7.1895      1.00000
     12       7.2438      1.00000
     13       8.2729      1.00000
     14       8.4048      1.00000
     15       8.8099      1.00000
     16       9.0699      1.02186
     17       9.7580      0.00405
     18      13.0481      0.00000
     19      18.1035      0.00000
     20      23.1679      0.00000
     21      24.0660      0.00000
     22      27.8482      0.00000
     23      28.7851      0.00000
     24      31.4418      0.00000

 k-point    12 :       0.4500    0.2500    0.0500
  band No.  band energies     occupation 
      1     -44.6118      1.00000
      2     -44.5819      1.00000
      3     -44.4281      1.00000
      4     -44.3944      1.00000
      5     -44.3316      1.00000
      6     -44.3014      1.00000
      7       4.8668      1.00000
      8       5.2599      1.00000
      9       6.6825      1.00000
     10       6.7711      1.00000
     11       7.0124      1.00000
     12       7.2244      1.00000
     13       8.3126      1.00000
     14       8.3955      1.00000
     15       9.1812      1.00000
     16       9.5469      0.95181
     17       9.7288      0.02984
     18      11.1093      0.00000
     19      19.4888      0.00000
     20      21.1931      0.00000
     21      25.5957      0.00000
     22      27.2068      0.00000
     23      28.6470      0.00000
     24      29.8691      0.00000

 k-point    13 :       0.3500    0.3500    0.0500
  band No.  band energies     occupation 
      1     -44.6447      1.00000
      2     -44.5891      1.00000
      3     -44.4419      1.00000
      4     -44.3790      1.00000
      5     -44.3305      1.00000
      6     -44.2742      1.00000
      7       4.6034      1.00000
      8       5.2504      1.00000
      9       6.4675      1.00000
     10       6.7903      1.00000
     11       7.0691      1.00000
     12       7.8005      1.00000
     13       8.3291      1.00000
     14       8.5821      1.00000
     15       8.7315      1.00000
     16       9.5046      0.96295
     17       9.8585     -0.00497
     18      12.6724      0.00000
     19      17.0754      0.00000
     20      20.9326      0.00000
     21      25.1100      0.00000
     22      28.2079      0.00000
     23      28.4080      0.00000
     24      30.7487      0.00000

 k-point    14 :       0.4500    0.3500    0.0500
  band No.  band energies     occupation 
      1     -44.6479      1.00000
      2     -44.6288      1.00000
      3     -44.4201      1.00000
      4     -44.3984      1.00000
      5     -44.3005      1.00000
      6     -44.2811      1.00000
      7       4.8280      1.00000
      8       5.0277      1.00000
      9       6.4162      1.00000
     10       6.5256      1.00000
     11       7.6337      1.00000
     12       8.0158      1.00000
     13       8.4772      1.00000
     14       8.6084      1.00000
     15       9.2345      1.00000
     16       9.7476      0.31716
     17      10.0490      0.00000
     18      11.2873      0.00000
     19      17.6523      0.00000
     20      19.0565      0.00000
     21      26.3161      0.00000
     22      27.4991      0.00000
     23      28.8183      0.00000
     24      29.7270      0.00000

 k-point    15 :       0.4500    0.4500    0.0500
  band No.  band energies     occupation 
      1     -44.6646      1.00000
      2     -44.6580      1.00000
      3     -44.4117      1.00000
      4     -44.4043      1.00000
      5     -44.2810      1.00000
      6     -44.2743      1.00000
      7       4.7958      1.00000
      8       4.8573      1.00000
      9       6.2869      1.00000
     10       6.3244      1.00000
     11       8.3606      1.00000
     12       8.5985      1.00000
     13       8.6196      1.00000
     14       8.7804      1.00000
     15       9.2763      1.00000
     16       9.7025      0.28345
     17      10.4351      0.00000
     18      10.9856      0.00000
     19      16.9430      0.00000
     20      17.5291      0.00000
     21      27.0344      0.00000
     22      27.4879      0.00000
     23      29.0846      0.00000
     24      29.4296      0.00000

 k-point    16 :       0.1500    0.1500    0.1500
  band No.  band energies     occupation 
      1     -44.5642      1.00000
      2     -44.5642      1.00000
      3     -44.4553      1.00000
      4     -44.3995      1.00000
      5     -44.2882      1.00000
      6     -44.2882      1.00000
      7       2.5667      1.00000
      8       5.4268      1.00000
      9       5.4268      1.00000
     10       7.0365      1.00000
     11       7.0365      1.00000
     12       8.0862      1.00000
     13       8.1863      1.00000
     14       8.5284      1.00000
     15       8.5284      1.00000
     16       9.4249      0.99979
     17       9.4249      1.11247
     18      17.8410      0.00000
     19      17.8410      0.00000
     20      19.2370      0.00000
     21      28.7875      0.00000
     22      28.7875      0.00000
     23      29.7386      0.00000
     24      29.7386      0.00000

 k-point    17 :       0.2500    0.1500    0.1500
  band No.  band energies     occupation 
      1     -44.5844      1.00000
      2     -44.5344      1.00000
      3     -44.4509      1.00000
      4     -44.4172      1.00000
      5     -44.3154      1.00000
      6     -44.2877      1.00000
      7       3.2655      1.00000
      8       5.6660      1.00000
      9       5.7001      1.00000
     10       6.9039      1.00000
     11       6.9352      1.00000
     12       7.5735      1.00000
     13       8.3826      1.00000
     14       8.5852      1.00000
     15       8.6829      1.00000
     16       8.9720      1.00000
     17       9.5064      0.95283
     18      15.4700      0.00000
     19      18.9549      0.00000
     20      19.8768      0.00000
     21      27.5256      0.00000
     22      28.5415      0.00000
     23      29.3031      0.00000
     24      30.5093      0.00000

 k-point    18 :       0.3500    0.1500    0.1500
  band No.  band energies     occupation 
      1     -44.5905      1.00000
      2     -44.5038      1.00000
      3     -44.4940      1.00000
      4     -44.3803      1.00000
      5     -44.3534      1.00000
      6     -44.2983      1.00000
      7       4.1487      1.00000
      8       5.8195      1.00000
      9       5.9792      1.00000
     10       6.7956      1.00000
     11       6.9297      1.00000
     12       7.2683      1.00000
     13       8.2263      1.00000
     14       8.5460      1.00000
     15       8.8084      1.00000
     16       9.1281      1.00000
     17       9.4068      0.92712
     18      13.1243      0.00000
     19      20.3546      0.00000
     20      21.0651      0.00000
     21      25.4924      0.00000
     22      26.4578      0.00000
     23      30.1155      0.00000
     24      31.4558      0.00000

 k-point    19 :       0.4500    0.1500    0.1500
  band No.  band energies     occupation 
      1     -44.5789      1.00000
      2     -44.5489      1.00000
      3     -44.4471      1.00000
      4     -44.3987      1.00000
      5     -44.3468      1.00000
      6     -44.3187      1.00000
      7       4.9805      1.00000
      8       5.5625      1.00000
[...]
     19      18.3222      0.00000
     20      20.7970      0.00000
     21      22.3836      0.00000
     22      24.8363      0.00000
     23      26.2505      0.00000
     24      30.1359      0.00000

 k-point    30 :       0.4500    0.3500    0.2500
  band No.  band energies     occupation 
      1     -42.0270      1.00000
      2     -42.0267      1.00000
      3     -41.8755      1.00000
      4     -41.8242      1.00000
      5     -41.7180      1.00000
      6     -41.7137      1.00000
      7       6.7331      1.00000
      8       7.0454      1.00000
      9       7.9679      1.00000
     10       7.9787      1.00000
     11       8.3648      1.00000
     12       8.4915      1.00000
     13      11.1844      0.00000
     14      11.2349      0.00000
     15      11.5151      0.00000
     16      11.5335      0.00000
     17      13.8174      0.00000
     18      14.8897      0.00000
     19      19.1261      0.00000
     20      20.5767      0.00000
     21      21.9128      0.00000
     22      23.4381      0.00000
     23      26.7659      0.00000
     24      28.2362      0.00000

 k-point    31 :       0.4500    0.4500    0.2500
  band No.  band energies     occupation 
      1     -42.0349      1.00000
      2     -42.0342      1.00000
      3     -41.8561      1.00000
      4     -41.8353      1.00000
      5     -41.7244      1.00000
      6     -41.7206      1.00000
      7       6.8533      1.00000
      8       6.9338      1.00000
      9       7.8851      1.00000
     10       7.9001      1.00000
     11       8.6614      1.00000
     12       8.7306      1.00000
     13      11.3011      0.00000
     14      11.3258      0.00000
     15      11.5266      0.00000
     16      11.5392      0.00000
     17      14.4941      0.00000
     18      15.0169      0.00000
     19      18.3897      0.00000
     20      19.0493      0.00000
     21      23.0061      0.00000
     22      24.1214      0.00000
     23      25.2328      0.00000
     24      26.3291      0.00000

 k-point    32 :       0.3500    0.3500    0.3500
  band No.  band energies     occupation 
      1     -42.0110      1.00000
      2     -41.9607      1.00000
      3     -41.9607      1.00000
      4     -41.7720      1.00000
      5     -41.7720      1.00000
      6     -41.7219      1.00000
      7       6.9265      1.00000
      8       7.5008      1.00000
      9       7.9281      1.00000
     10       7.9281      1.00000
     11       8.0745      1.00000
     12       8.0745      1.00000
     13      11.3766      0.00000
     14      11.3766      0.00000
     15      11.4154      0.00000
     16      11.4154      0.00000
     17      13.8657      0.00000
     18      17.4973      0.00000
     19      17.4973      0.00000
     20      19.8865      0.00000
     21      22.8236      0.00000
     22      22.8236      0.00000
     23      24.1459      0.00000
     24      28.0396      0.00000

 k-point    33 :       0.4500    0.3500    0.3500
  band No.  band energies     occupation 
      1     -42.0057      1.00000
      2     -41.9898      1.00000
      3     -41.8979      1.00000
      4     -41.8329      1.00000
      5     -41.7557      1.00000
      6     -41.7369      1.00000
      7       7.2801      1.00000
      8       7.3825      1.00000
      9       7.8726      1.00000
     10       7.9209      1.00000
     11       8.0471      1.00000
     12       8.2174      1.00000
     13      11.3599      0.00000
     14      11.3852      0.00000
     15      11.5030      0.00000
     16      11.5142      0.00000
     17      14.8064      0.00000
     18      16.0278      0.00000
     19      19.1308      0.00000
     20      20.4298      0.00000
     21      20.9114      0.00000
     22      21.6694      0.00000
     23      24.5508      0.00000
     24      26.0867      0.00000

 k-point    34 :       0.4500    0.4500    0.3500
  band No.  band energies     occupation 
      1     -41.9884      1.00000
      2     -41.9773      1.00000
      3     -41.8842      1.00000
      4     -41.8479      1.00000
      5     -41.7783      1.00000
      6     -41.7637      1.00000
      7       7.4287      1.00000
      8       7.4424      1.00000
      9       7.8028      1.00000
     10       7.8458      1.00000
     11       8.1733      1.00000
     12       8.2616      1.00000
     13      11.4438      0.00000
     14      11.4546      0.00000
     15      11.5335      0.00000
     16      11.5378      0.00000
     17      15.8061      0.00000
     18      16.5886      0.00000
     19      18.5409      0.00000
     20      19.5006      0.00000
     21      21.0125      0.00000
     22      22.1184      0.00000
     23      22.9692      0.00000
     24      24.1593      0.00000

 k-point    35 :       0.4500    0.4500    0.4500
  band No.  band energies     occupation 
      1     -41.9436      1.00000
      2     -41.9112      1.00000
      3     -41.9112      1.00000
      4     -41.8426      1.00000
      5     -41.8426      1.00000
      6     -41.8100      1.00000
      7       7.6630      1.00000
      8       7.8095      1.00000
      9       7.8095      1.00000
     10       7.9083      1.00000
     11       7.9536      1.00000
     12       7.9536      1.00000
     13      11.5394      0.00000
     14      11.5394      0.00000
     15      11.5425      0.00000
     16      11.5425      0.00000
     17      17.1205      0.00000
     18      18.3147      0.00000
     19      18.3147      0.00000
     20      20.0019      0.00000
     21      20.1675      0.00000
     22      20.1675      0.00000
     23      21.5179      0.00000
     24      22.3096      0.00000


--------------------------------------------------------------------------------------------------------


 soft charge-density along one line, spin component           1
         0         1         2         3         4         5         6         7         8         9
 total charge-density along one line
 
 soft charge-density along one line, spin component           2
         0         1         2         3         4         5         6         7         8         9
 total charge-density along one line
 
 pseudopotential strength for first ion, spin component:           1
-44.857   0.000  -0.000   7.570  -0.000   0.000  -0.000   0.000
  0.000 -44.857   0.000  -0.000   7.570  -0.000  -0.000   0.000
 -0.000   0.000 -44.857   0.000  -0.000   7.570   0.000  -0.000
  7.570  -0.000   0.000   5.638  -0.000  -0.000   0.000  -0.000
 -0.000   7.570  -0.000  -0.000   5.638  -0.000   0.000  -0.000
  0.000  -0.000   7.570  -0.000  -0.000   5.638  -0.000   0.000
 -0.000  -0.000   0.000   0.000   0.000  -0.000  -1.981   0.000
  0.000   0.000  -0.000  -0.000  -0.000   0.000   0.000  -1.981
 -0.000   0.000   0.000   0.000  -0.000  -0.000   0.000   0.000
 -0.000  -0.000   0.000   0.000  -0.000  -0.000   0.000   0.000
 -0.000   0.000  -0.000   0.000  -0.000  -0.000   0.000  -0.000
  0.000  -0.000   0.000  -0.000   0.000  -0.000  -2.496   0.000
  0.000   0.000  -0.000  -0.000  -0.000   0.000   0.000  -2.496
 -0.000   0.000   0.000   0.000  -0.000  -0.000   0.000   0.000
 -0.000   0.000   0.000   0.000  -0.000  -0.000   0.000   0.000
 -0.000   0.000  -0.000   0.000  -0.000   0.000   0.000  -0.000
 -0.000  -0.000   0.000  -0.000  -0.000  -0.000   0.000  -0.000
 -0.000  -0.000  -0.000  -0.000  -0.000  -0.000   0.000  -0.000
 pseudopotential strength for first ion, spin component:           2
-42.886   0.000  -0.000   6.737  -0.000   0.000  -0.000   0.000
  0.000 -42.886   0.000  -0.000   6.737  -0.000  -0.000   0.000
 -0.000   0.000 -42.886   0.000  -0.000   6.737   0.000  -0.000
  6.737  -0.000   0.000   5.866  -0.000  -0.000   0.000  -0.000
 -0.000   6.737  -0.000  -0.000   5.866  -0.000   0.000  -0.000
  0.000  -0.000   6.737  -0.000  -0.000   5.866  -0.000   0.000
 -0.000  -0.000   0.000   0.000   0.000  -0.000  -0.455   0.000
  0.000   0.000  -0.000  -0.000  -0.000   0.000   0.000  -0.455
 -0.000   0.000   0.000   0.000  -0.000  -0.000   0.000   0.000
 -0.000  -0.000   0.000   0.000   0.000  -0.000   0.000   0.000
 -0.000   0.000  -0.000   0.000  -0.000   0.000  -0.000  -0.000
 -0.000  -0.000   0.000   0.000   0.000  -0.000  -0.995   0.000
  0.000   0.000  -0.000  -0.000  -0.000   0.000   0.000  -0.995
 -0.000   0.000   0.000   0.000  -0.000  -0.000   0.000   0.000
 -0.000  -0.000   0.000   0.000   0.000  -0.000   0.000   0.000
 -0.000   0.000  -0.000   0.000  -0.000   0.000  -0.000  -0.000
 -0.000  -0.000   0.000  -0.000  -0.000   0.000   0.000  -0.000
 -0.000  -0.000   0.000  -0.000  -0.000   0.000   0.000  -0.000
 total augmentation occupancy for first ion, spin component:           1
  1.992   0.000   0.000  -0.027   0.000   0.000   0.000   0.000  -0.000   0.000   0.000   0.000   0.000   0.000   0.000   0.000
  0.000   1.992   0.000   0.000  -0.027   0.000  -0.000   0.000   0.000   0.000   0.000  -0.000   0.000   0.000   0.000  -0.000
  0.000   0.000   1.992   0.000  -0.000  -0.027   0.000   0.000   0.000   0.000   0.000   0.000   0.000   0.000   0.000   0.000
 -0.027   0.000   0.000   0.201   0.000  -0.000   0.000   0.000   0.000   0.000  -0.000   0.000   0.000   0.000   0.000   0.000
  0.000  -0.027   0.000   0.000   0.201   0.000  -0.000   0.000   0.000   0.000  -0.000  -0.000   0.000   0.000   0.000   0.000
  0.000  -0.000  -0.027  -0.000  -0.000   0.201   0.000   0.000   0.000   0.000   0.000   0.000   0.000   0.000   0.000   0.000
  0.000   0.000   0.000   0.000   0.000   0.000   2.169   0.000   0.000  -0.000  -0.000  -1.221   0.000   0.000  -0.000   0.000
  0.000   0.000  -0.000   0.000   0.000  -0.000  -0.000   2.169  -0.000  -0.000   0.000  -0.000  -1.221   0.000  -0.000   0.000
 -0.000   0.000   0.000   0.000   0.000   0.000   0.000  -0.000   3.408  -0.000  -0.000   0.000   0.000  -2.183  -0.000   0.000
 -0.000   0.000   0.000  -0.000   0.000   0.000  -0.000  -0.000  -0.000   2.169   0.000   0.000  -0.000   0.000  -1.221  -0.000
 -0.000   0.000  -0.000  -0.000  -0.000   0.000   0.000   0.000   0.000   0.000   3.408  -0.000   0.000   0.000  -0.000  -2.183
  0.000  -0.000   0.000   0.000   0.000   0.000  -1.221   0.000   0.000  -0.000  -0.000   1.647  -0.000  -0.000   0.000   0.000
  0.000   0.000  -0.000   0.000   0.000   0.000  -0.000  -1.221   0.000  -0.000   0.000  -0.000   1.647   0.000  -0.000   0.000
  0.000   0.000  -0.000   0.000   0.000  -0.000   0.000   0.000  -2.183   0.000   0.000   0.000   0.000   2.222   0.000   0.000
  0.000   0.000   0.000   0.000   0.000   0.000   0.000   0.000  -0.000  -1.221  -0.000   0.000   0.000  -0.000   1.647   0.000
 -0.000   0.000   0.000   0.000  -0.000   0.000   0.000   0.000   0.000   0.000  -2.183  -0.000   0.000   0.000   0.000   2.222
 -0.000  -0.000  -0.000   0.000   0.000   0.000  -0.000   0.000  -0.000  -0.000  -0.000   0.000  -0.000   0.000   0.000  -0.000
 -0.000  -0.000  -0.000   0.000   0.000   0.000   0.000  -0.000  -0.000  -0.000   0.000   0.000   0.000   0.000   0.000   0.000
 total augmentation occupancy for first ion, spin component:           2
 -0.002   0.000   0.000  -0.009  -0.000  -0.000   0.000   0.000   0.000   0.000   0.000   0.000   0.000   0.000  -0.000   0.000
  0.000  -0.002   0.000  -0.000  -0.009   0.000  -0.000   0.000   0.000   0.000   0.000   0.000   0.000   0.000   0.000   0.000
  0.000   0.000  -0.002  -0.000   0.000  -0.009   0.000   0.000   0.000   0.000   0.000   0.000   0.000   0.000   0.000   0.000
 -0.009  -0.000  -0.000  -0.020   0.000  -0.000   0.000   0.000  -0.000   0.000   0.000   0.000   0.000   0.000   0.000  -0.000
 -0.000  -0.009   0.000   0.000  -0.020   0.000  -0.000   0.000   0.000   0.000   0.000  -0.000   0.000   0.000   0.000   0.000
 -0.000  -0.000  -0.009   0.000  -0.000  -0.020   0.000  -0.000   0.000   0.000   0.000   0.000  -0.000   0.000   0.000  -0.000
  0.000  -0.000   0.000   0.000  -0.000   0.000   1.761  -0.000   0.000   0.000  -0.000  -0.663  -0.000  -0.000  -0.000   0.000
  0.000   0.000   0.000   0.000   0.000  -0.000  -0.000   1.761  -0.000   0.000  -0.000   0.000  -0.663   0.000  -0.000   0.000
  0.000   0.000   0.000  -0.000   0.000  -0.000   0.000  -0.000   2.824  -0.000   0.000   0.000   0.000  -1.165  -0.000   0.000
  0.000   0.000   0.000  -0.000   0.000   0.000   0.000  -0.000   0.000   1.761  -0.000   0.000   0.000   0.000  -0.663  -0.000
  0.000   0.000   0.000   0.000   0.000   0.000   0.000  -0.000   0.000   0.000   2.824  -0.000   0.000   0.000   0.000  -1.165
  0.000   0.000   0.000   0.000   0.000   0.000  -0.663   0.000  -0.000  -0.000   0.000  -0.005  -0.000  -0.000  -0.000   0.000
  0.000   0.000  -0.000   0.000   0.000  -0.000  -0.000  -0.663  -0.000   0.000   0.000  -0.000  -0.005  -0.000   0.000   0.000
  0.000   0.000  -0.000  -0.000   0.000  -0.000   0.000  -0.000  -1.165  -0.000  -0.000  -0.000  -0.000   0.240   0.000   0.000
 -0.000   0.000   0.000   0.000   0.000   0.000  -0.000  -0.000  -0.000  -0.663   0.000  -0.000  -0.000   0.000  -0.005  -0.000
  0.000  -0.000  -0.000   0.000   0.000   0.000  -0.000  -0.000   0.000  -0.000  -1.165  -0.000   0.000   0.000  -0.000   0.240
  0.000   0.000   0.000   0.000   0.000   0.000  -0.000  -0.000  -0.000  -0.000  -0.000   0.000   0.000  -0.000  -0.000   0.000
  0.000   0.000   0.000   0.000   0.000   0.000  -0.000   0.000  -0.000   0.000   0.000   0.000   0.000   0.000   0.000   0.000


------------------------ aborting loop because EDIFF is reached ----------------------------------------


 


 total charge     
 
# of ion       s       p       d       tot
------------------------------------------
    1        0.385   6.378   6.074  12.837
    2        0.385   6.378   6.074  12.837
--------------------------------------------------
tot          0.770  12.755  12.149  25.674
 


 magnetization (x)
 
# of ion       s       p       d       tot
------------------------------------------
    1       -0.008  -0.042   2.292   2.243
    2       -0.008  -0.042   2.292   2.243
--------------------------------------------------
tot         -0.016  -0.083   4.584   4.485
 
    CHARGE:  cpu time    0.0136: real time    0.0136
    FORLOC:  cpu time    0.0001: real time    0.0001
    FORNL :  cpu time    0.0817: real time    0.0820
    STRESS:  cpu time    0.2421: real time    0.2427
    FORCOR:  cpu time    0.0055: real time    0.0056
    FORHAR:  cpu time    0.0007: real time    0.0008
    MIXING:  cpu time    0.0005: real time    0.0005
    OFIELD:  cpu time    0.0001: real time    0.0001

  FORCE on cell =-STRESS in cart. coord.  units (eV):
  Direction    XX          YY          ZZ          XY          YZ          ZX
  --------------------------------------------------------------------------------------
  Alpha Z   218.87049   218.87049   218.87049
  Ewald   -1205.52018 -1205.52018 -1205.52018    -0.00000    -0.00000    -0.00000
  Hartree   363.30278   363.30278   363.30278    -0.00000    -0.00000    -0.00000
  E(xc)    -179.78000  -179.78000  -179.78000    -0.00000     0.00000    -0.00000
  Local     289.63662   289.63662   289.63662     0.00000    -0.00000    -0.00000
  n-local   -60.14218   -54.13200   -50.52404     2.76346    -1.55439     0.58556
  augment   285.44974   285.44974   285.44974    -0.00000    -0.00000     0.00000
  Kinetic   283.96026   282.51260   281.76853     2.95700    -0.75545    -0.07784
  Fock        0.00000     0.00000     0.00000     0.00000     0.00000     0.00000
  -------------------------------------------------------------------------------------
  Total      -0.22615    -0.22615    -0.22615    -0.00000    -0.00000     0.00000
  in kB     -15.81748   -15.81748   -15.81748    -0.00000    -0.00000     0.00000
  external pressure =      -15.82 kB  Pullay stress =        0.00 kB


 VOLUME and BASIS-vectors are now :
 -----------------------------------------------------------------------------
  energy-cutoff  :      540.00
  volume of cell :       22.91
      direct lattice vectors                 reciprocal lattice vectors
     2.840052000  0.000000000  0.000000000     0.352106229  0.000000000  0.000000000
     0.000000000  2.840052000  0.000000000     0.000000000  0.352106229  0.000000000
     0.000000000  0.000000000  2.840052000     0.000000000  0.000000000  0.352106229

  length of vectors
     2.840052000  2.840052000  2.840052000     0.352106229  0.352106229  0.352106229


 FORCES acting on ions
    electron-ion (+dipol)            ewald-force                    non-local-force                 convergence-correction
 -----------------------------------------------------------------------------------------------
   -.294E-13 -.180E-13 -.631E-13   -.529E-15 -.103E-14 -.897E-14   0.000E+00 -.258E-25 0.000E+00   -.747E-15 -.450E-14 -.213E-13
   0.789E-12 0.136E-11 -.578E-11   0.472E-14 0.447E-14 0.926E-14   0.000E+00 -.129E-25 0.000E+00   -.122E-13 -.178E-13 -.355E-14
 -----------------------------------------------------------------------------------------------
   0.759E-12 0.134E-11 -.584E-11   0.419E-14 0.343E-14 0.284E-15   0.000E+00 -.388E-25 0.000E+00   -.129E-13 -.223E-13 -.248E-13
 
 
 POSITION                                       TOTAL-FORCE (eV/Angst)
 -----------------------------------------------------------------------------------
      0.00000      0.00000      0.00000        -0.000000     -0.000000     -0.000000
      1.42003      1.42003      1.42003         0.000000      0.000000      0.000000
 -----------------------------------------------------------------------------------
    total drift:                                0.000000      0.000000     -0.000000


--------------------------------------------------------------------------------------------------------



  FREE ENERGIE OF THE ION-ELECTRON SYSTEM (eV)
  ---------------------------------------------------
  free  energy   TOTEN  =       -16.51344003 eV

  energy  without entropy=      -16.51344003  energy(sigma->0) =      -16.51344003
 


--------------------------------------------------------------------------------------------------------


    POTLOK:  cpu time    0.0105: real time    0.0105


--------------------------------------------------------------------------------------------------------


     LOOP+:  cpu time    7.7515: real time    7.7873
    4ORBIT:  cpu time    0.0000: real time    0.0000
 


 total charge     
 
# of ion       s       p       d       tot
------------------------------------------
    1        0.385   6.378   6.074  12.837
    2        0.385   6.378   6.074  12.837
--------------------------------------------------
tot          0.770  12.755  12.149  25.674
 


 magnetization (x)
 
# of ion       s       p       d       tot
------------------------------------------
    1       -0.008  -0.042   2.292   2.243
    2       -0.008  -0.042   2.292   2.243
--------------------------------------------------
tot         -0.016  -0.083   4.584   4.485
 
 BZINTS: Fermi energy:  9.622770; 28.000000 electrons
         Band energy:-399.258565;  BLOECHL correction: -0.034706

 total amount of memory used by VASP MPI-rank0    32630. kBytes
=======================================================================

   base      :      30000. kBytes
   nonlr-proj:        828. kBytes
   fftplans  :        261. kBytes
   grid      :        623. kBytes
   one-center:         31. kBytes
   wavefun   :        887. kBytes
 
  
  
 General timing and accounting informations for this job:
 ========================================================
  
                  Total CPU time used (sec):        9.224
                            User time (sec):        8.961
                          System time (sec):        0.263
                         Elapsed time (sec):       11.229
  
                   Maximum memory used (kb):       55080.
                   Average memory used (kb):           0.
  
                          Minor page faults:        13234
                          Major page faults:            0
                 Voluntary context switches:         1486
