<?xml version="1.0" encoding="ISO-8859-1"?>
<modeling>
 <generator>
  <i name="program" type="string">vasp </i>
  <i name="version" type="string">5.4.4.18Apr17-6-g9f103f2a35  </i>
  <i name="subversion" type="string">(build Apr 28 2018 00:24:27) complex            parallel </i>
  <i name="platform" type="string">LinuxIFC </i>
  <i name="date" type="string">2021 09 07 </i>
  <i name="time" type="string">01:10:41 </i>
 </generator>
 <incar>
  <i type="string" name="PREC">accurate</i>
  <i type="string" name="ALGO"> Normal</i>
  <i type="int" name="ISPIN">     2</i>
  <i type="int" name="NELM">   100</i>
  <i type="int" name="IBRION">    -1</i>
  <i name="EDIFF">      0.00000010</i>
  <i type="int" name="NSW">     0</i>
  <i type="int" name="ISIF">     3</i>
  <i name="ENCUT">    540.00000000</i>
  <v name="MAGMOM">      5.00000000      5.00000000</v>
  <i type="string" name="LREAL"> Auto</i>
  <i type="int" name="ISMEAR">    -5</i>
  <i name="SIGMA">      0.05000000</i>
  <i type="logical" name="LWAVE"> F  </i>
  <i type="logical" name="LCHARG"> F  </i>
  <i type="logical" name="LVHAR"> F  </i>
  <i type="int" name="LORBIT">    11</i>
  <i type="logical" name="LASPH"> F  </i>
  <i type="logical" name="LAECHG"> F  </i>
  <v type="int" name="KPOINT_BSE">    -1     0     0     0</v>
  <i type="int" name="NELM">   100</i>
  <i type="logical" name="LASPH"> F  </i>
  <i type="int" name="LMAXTAU">     0</i>
 </incar>
 <structure name="primitive_cell" >
  <crystal>
   <varray name="basis" >
    <v>       1.42002600       1.42002600       1.42002600 </v>
    <v>       1.42002600      -1.42002600      -1.42002600 </v>
    <v>      -1.42002600       1.42002600      -1.42002600 </v>
   </varray>
   <i name="volume">     11.45378113 </i>
   <varray name="rec_basis" >
    <v>       0.35210623       0.35210623       0.00000000 </v>
    <v>       0.35210623       0.00000000      -0.35210623 </v>
    <v>       0.00000000       0.35210623      -0.35210623 </v>
   </varray>
  </crystal>
  <varray name="positions" >
   <v>       0.00000000       0.00000000       0.00000000 </v>
  </varray>
 </structure>
 <varray name="primitive_index" >
  <v type="int" >        1 </v>
 </varray>
 <kpoints>
  <generation param="Monkhorst-Pack">
   <v type="int" name="divisions">      10       10       10 </v>
   <v name="usershift">      0.00000000       0.00000000       0.00000000 </v>
   <v name="genvec1">      0.10000000       0.00000000       0.00000000 </v>
   <v name="genvec2">      0.00000000       0.10000000       0.00000000 </v>
   <v name="genvec3">      0.00000000       0.00000000       0.10000000 </v>
   <v name="shift">      0.50000000       0.50000000       0.50000000 </v>
  </generation>
  <varray name="kpointlist" >
   <v>       0.05000000       0.05000000       0.05000000 </v>
   <v>       0.15000000       0.05000000       0.05000000 </v>
   <v>       0.25000000       0.05000000       0.05000000 </v>
   <v>       0.35000000       0.05000000       0.05000000 </v>
   <v>       0.45000000       0.05000000       0.05000000 </v>
   <v>       0.15000000       0.15000000       0.05000000 </v>
   <v>       0.25000000       0.15000000       0.05000000 </v>
   <v>       0.35000000       0.15000000       0.05000000 </v>
   <v>       0.45000000       0.15000000       0.05000000 </v>
   <v>       0.25000000       0.25000000       0.05000000 </v>
   <v>       0.35000000       0.25000000       0.05000000 </v>
   <v>       0.45000000       0.25000000       0.05000000 </v>
   <v>       0.35000000       0.35000000       0.05000000 </v>
   <v>       0.45000000       0.35000000       0.05000000 </v>
   <v>       0.45000000       0.45000000       0.05000000 </v>
   <v>       0.15000000       0.15000000       0.15000000 </v>
   <v>       0.25000000       0.15000000       0.15000000 </v>
   <v>       0.35000000       0.15000000       0.15000000 </v>
   <v>       0.45000000       0.15000000       0.15000000 </v>
   <v>       0.25000000       0.25000000       0.15000000 </v>
   <v>       0.35000000       0.25000000       0.15000000 </v>
   <v>       0.45000000       0.25000000       0.15000000 </v>
   <v>       0.35000000       0.35000000       0.15000000 </v>
   <v>       0.45000000       0.35000000       0.15000000 </v>
   <v>       0.45000000       0.45000000       0.15000000 </v>
   <v>       0.25000000       0.25000000       0.25000000 </v>
   <v>       0.35000000       0.25000000       0.25000000 </v>
   <v>       0.45000000       0.25000000       0.25000000 </v>
   <v>       0.35000000       0.35000000       0.25000000 </v>
   <v>       0.45000000       0.35000000       0.25000000 </v>
   <v>       0.45000000       0.45000000       0.25000000 </v>
   <v>       0.35000000       0.35000000       0.35000000 </v>
   <v>       0.45000000       0.35000000       0.35000000 </v>
   <v>       0.45000000       0.45000000       0.35000000 </v>
   <v>       0.45000000       0.45000000       0.45000000 </v>
  </varray>
  <varray name="weights" >
   <v>       0.00800000 </v>
   <v>       0.02400000 </v>
   <v>       0.02400000 </v>
   <v>       0.02400000 </v>
   <v>       0.02400000 </v>
   <v>       0.02400000 </v>
   <v>       0.04800000 </v>
   <v>       0.04800000 </v>
   <v>       0.04800000 </v>
   <v>       0.02400000 </v>
   <v>       0.04800000 </v>
   <v>       0.04800000 </v>
   <v>       0.02400000 </v>
   <v>       0.04800000 </v>
   <v>       0.02400000 </v>
   <v>       0.00800000 </v>
   <v>       0.02400000 </v>
   <v>       0.02400000 </v>
   <v>       0.02400000 </v>
   <v>       0.02400000 </v>
   <v>       0.04800000 </v>
   <v>       0.04800000 </v>
   <v>       0.02400000 </v>
   <v>       0.04800000 </v>
   <v>       0.02400000 </v>
   <v>       0.00800000 </v>
   <v>       0.02400000 </v>
   <v>       0.02400000 </v>
   <v>       0.02400000 </v>
   <v>       0.04800000 </v>
   <v>       0.02400000 </v>
   <v>       0.00800000 </v>
   <v>       0.02400000 </v>
   <v>       0.02400000 </v>
   <v>       0.00800000 </v>
  </varray>
  <varray name="tetrahedronlist"  type="int" >
   <v type="int" >       24        1        2        2        6 </v>
   <v type="int" >       18        2        2        6        6 </v>
   <v type="int" >       12        2        6        6       16 </v>
   <v type="int" >       12        2        3        6        7 </v>
   <v type="int" >       24        2        6        6        7 </v>
   <v type="int" >       12        6        6        7       16 </v>
   <v type="int" >       24        3        6        7        7 </v>
   <v type="int" >       24        6        7        7       17 </v>
   <v type="int" >       24        6        7       16       17 </v>
   <v type="int" >       12        3        4        7        8 </v>
   <v type="int" >       24        3        7        7        8 </v>
   <v type="int" >       12        7        7        8       17 </v>
   <v type="int" >       24        4        7        8        8 </v>
   <v type="int" >       12        7        8        8       18 </v>
   <v type="int" >       12        7        8       17       18 </v>
   <v type="int" >       12        4        5        8        9 </v>
   <v type="int" >       24        4        8        8        9 </v>
   <v type="int" >       12        8        8        9       18 </v>
   <v type="int" >       24        5        8        9        9 </v>
   <v type="int" >       12        8        9        9       19 </v>
   <v type="int" >       12        8        9       18       19 </v>
   <v type="int" >       30        5        5        9        9 </v>
   <v type="int" >       36        5        9        9        9 </v>
   <v type="int" >       12        9        9        9       19 </v>
   <v type="int" >        6        9        9       19       19 </v>
   <v type="int" >       18        1        1        2        2 </v>
   <v type="int" >       24        1        2        2        2 </v>
   <v type="int" >       12        2        2        2        6 </v>
   <v type="int" >       12        6        7       10       16 </v>
   <v type="int" >       12        7       10       16       17 </v>
   <v type="int" >       12       10       16       17       20 </v>
   <v type="int" >       12        7        8       11       17 </v>
   <v type="int" >       12        7       10       11       17 </v>
   <v type="int" >       12       10       11       17       20 </v>
   <v type="int" >       12        8       11       17       18 </v>
   <v type="int" >       12       11       17       18       21 </v>
   <v type="int" >       12       11       17       20       21 </v>
   <v type="int" >       12        8        9       12       18 </v>
   <v type="int" >       12        8       11       12       18 </v>
   <v type="int" >       12       11       12       18       21 </v>
   <v type="int" >       12        9       12       18       19 </v>
   <v type="int" >       12       12       18       19       22 </v>
   <v type="int" >       12       12       18       21       22 </v>
   <v type="int" >       12        9        9       12       19 </v>
   <v type="int" >       12        9       12       12       19 </v>
   <v type="int" >       12       12       12       19       22 </v>
   <v type="int" >       12        9       12       19       19 </v>
   <v type="int" >       12       12       19       19       22 </v>
   <v type="int" >       12       12       19       22       22 </v>
   <v type="int" >       12        8        9       11       19 </v>
   <v type="int" >       12        9       11       12       19 </v>
   <v type="int" >       12       11       12       19       22 </v>
   <v type="int" >       12        8       11       18       19 </v>
   <v type="int" >       12       11       18       19       21 </v>
   <v type="int" >       12       11       19       21       22 </v>
   <v type="int" >       12        7        8       10       18 </v>
   <v type="int" >       12        8       10       11       18 </v>
   <v type="int" >       12       10       11       18       21 </v>
   <v type="int" >       12        7       10       17       18 </v>
   <v type="int" >       12       10       17       18       20 </v>
   <v type="int" >       12       10       18       20       21 </v>
   <v type="int" >       12        7        7       10       17 </v>
   <v type="int" >       12        7       10       17       20 </v>
   <v type="int" >       12        7       16       17       17 </v>
   <v type="int" >       12        7       17       17       20 </v>
   <v type="int" >       12        2        3        6       16 </v>
   <v type="int" >       12        3        6        7       16 </v>
   <v type="int" >       12        3        7       16       17 </v>
   <v type="int" >       12        2        2        3        6 </v>
   <v type="int" >       12        2        3        3        6 </v>
   <v type="int" >       12        3        3        6        7 </v>
   <v type="int" >       12        2        3        6        6 </v>
   <v type="int" >       12        3        6        6        7 </v>
   <v type="int" >       12       10       11       13       20 </v>
   <v type="int" >       12       11       13       20       21 </v>
   <v type="int" >       12       13       20       21       23 </v>
   <v type="int" >       12       11       12       14       21 </v>
   <v type="int" >       12       11       13       14       21 </v>
   <v type="int" >       12       13       14       21       23 </v>
   <v type="int" >       12       12       14       21       22 </v>
   <v type="int" >       12       14       21       22       24 </v>
   <v type="int" >       12       14       21       23       24 </v>
   <v type="int" >       12       12       12       14       22 </v>
   <v type="int" >       12       12       14       14       22 </v>
   <v type="int" >       12       14       14       22       24 </v>
   <v type="int" >       12       12       14       22       22 </v>
   <v type="int" >       12       14       22       22       24 </v>
   <v type="int" >       12       14       22       24       24 </v>
   <v type="int" >       12       11       12       13       22 </v>
   <v type="int" >       12       12       13       14       22 </v>
   <v type="int" >       12       13       14       22       24 </v>
   <v type="int" >       12       11       13       21       22 </v>
   <v type="int" >       12       13       21       22       23 </v>
   <v type="int" >       12       13       22       23       24 </v>
   <v type="int" >       12       10       11       11       21 </v>
   <v type="int" >       12       11       11       13       21 </v>
   <v type="int" >       12       11       13       21       23 </v>
   <v type="int" >       12       10       11       20       21 </v>
   <v type="int" >       12       11       20       21       21 </v>
   <v type="int" >       12       11       21       21       23 </v>
   <v type="int" >       12        7        8       10       20 </v>
   <v type="int" >       12        8       10       11       20 </v>
   <v type="int" >       12        8       11       20       21 </v>
   <v type="int" >       12        7        8       17       20 </v>
   <v type="int" >       12        8       17       18       20 </v>
   <v type="int" >       12        8       18       20       21 </v>
   <v type="int" >       12        3        4        7       17 </v>
   <v type="int" >       12        4        7        8       17 </v>
   <v type="int" >       12        4        8       17       18 </v>
   <v type="int" >       12        3        3        4        7 </v>
   <v type="int" >       12        3        4        4        7 </v>
   <v type="int" >       12        4        4        7        8 </v>
   <v type="int" >       12        3        4        7        7 </v>
   <v type="int" >       12        4        7        7        8 </v>
   <v type="int" >       12       13       14       15       23 </v>
   <v type="int" >       12       14       15       23       24 </v>
   <v type="int" >       12       15       23       24       25 </v>
   <v type="int" >       24       14       14       15       24 </v>
   <v type="int" >       12       14       15       15       24 </v>
   <v type="int" >       12       15       15       24       25 </v>
   <v type="int" >       12       14       15       24       24 </v>
   <v type="int" >       12       15       24       24       25 </v>
   <v type="int" >       12       15       24       25       25 </v>
   <v type="int" >       12       13       14       14       24 </v>
   <v type="int" >       12       14       15       24       25 </v>
   <v type="int" >       12       13       14       23       24 </v>
   <v type="int" >       12       14       23       24       24 </v>
   <v type="int" >       24       14       24       24       25 </v>
   <v type="int" >       12       11       12       13       23 </v>
   <v type="int" >       12       12       13       14       23 </v>
   <v type="int" >       12       12       14       23       24 </v>
   <v type="int" >       12       11       12       21       23 </v>
   <v type="int" >       12       12       21       22       23 </v>
   <v type="int" >       12       12       22       23       24 </v>
   <v type="int" >       12        8        9       11       21 </v>
   <v type="int" >       12        9       11       12       21 </v>
   <v type="int" >       12        9       12       21       22 </v>
   <v type="int" >       12        8        9       18       21 </v>
   <v type="int" >       12        9       18       19       21 </v>
   <v type="int" >       12        9       19       21       22 </v>
   <v type="int" >       12        4        5        8       18 </v>
   <v type="int" >       12        5        8        9       18 </v>
   <v type="int" >       12        5        9       18       19 </v>
   <v type="int" >       12        4        4        5        8 </v>
   <v type="int" >       12        4        5        5        8 </v>
   <v type="int" >       12        5        5        8        9 </v>
   <v type="int" >       12        4        5        8        8 </v>
   <v type="int" >       12        5        8        8        9 </v>
   <v type="int" >       12       15       15       15       25 </v>
   <v type="int" >       12       15       15       25       25 </v>
   <v type="int" >       12       15       25       25       25 </v>
   <v type="int" >       12       14       14       15       25 </v>
   <v type="int" >       12       14       15       15       25 </v>
   <v type="int" >       12       14       15       25       25 </v>
   <v type="int" >       12       14       14       24       25 </v>
   <v type="int" >       12       14       24       25       25 </v>
   <v type="int" >       12       12       12       14       24 </v>
   <v type="int" >       12       12       14       14       24 </v>
   <v type="int" >       12       12       14       24       24 </v>
   <v type="int" >       12       12       12       22       24 </v>
   <v type="int" >       12       12       22       22       24 </v>
   <v type="int" >       12       12       22       24       24 </v>
   <v type="int" >       12        9        9       12       22 </v>
   <v type="int" >       12        9       12       12       22 </v>
   <v type="int" >       12        9       12       22       22 </v>
   <v type="int" >       12        9        9       19       22 </v>
   <v type="int" >       12        9       19       19       22 </v>
   <v type="int" >       12        9       19       22       22 </v>
   <v type="int" >       12        5        5        9       19 </v>
   <v type="int" >       12        5        9        9       19 </v>
   <v type="int" >       12        5        9       19       19 </v>
   <v type="int" >       24        5        5        5        9 </v>
   <v type="int" >       12       13       14       15       25 </v>
   <v type="int" >       12       13       14       24       25 </v>
   <v type="int" >       12       13       23       24       25 </v>
   <v type="int" >       12       11       12       14       24 </v>
   <v type="int" >       12       11       13       14       24 </v>
   <v type="int" >       12       11       13       23       24 </v>
   <v type="int" >       12       11       12       22       24 </v>
   <v type="int" >       12       11       21       22       24 </v>
   <v type="int" >       12       11       21       23       24 </v>
   <v type="int" >       12        8        9       12       22 </v>
   <v type="int" >       12        8       11       12       22 </v>
   <v type="int" >       12        8       11       21       22 </v>
   <v type="int" >       12        8        9       19       22 </v>
   <v type="int" >       12        8       18       19       22 </v>
   <v type="int" >       12        8       18       21       22 </v>
   <v type="int" >       12        4        5        9       19 </v>
   <v type="int" >       12        4        8        9       19 </v>
   <v type="int" >       12        4        8       18       19 </v>
   <v type="int" >       12        4        5        5        9 </v>
   <v type="int" >       12        4        4        5        9 </v>
   <v type="int" >       12        4        4        8        9 </v>
   <v type="int" >       12        4        5        9        9 </v>
   <v type="int" >       12        4        8        9        9 </v>
   <v type="int" >       12       10       11       13       23 </v>
   <v type="int" >       12       10       11       21       23 </v>
   <v type="int" >       12       10       20       21       23 </v>
   <v type="int" >       12        7        8       11       21 </v>
   <v type="int" >       12        7       10       11       21 </v>
   <v type="int" >       12        7       10       20       21 </v>
   <v type="int" >       12        7        8       18       21 </v>
   <v type="int" >       12        7       17       18       21 </v>
   <v type="int" >       12        7       17       20       21 </v>
   <v type="int" >       12        3        4        8       18 </v>
   <v type="int" >       12        3        7        8       18 </v>
   <v type="int" >       12        3        7       17       18 </v>
   <v type="int" >       12        3        4        4        8 </v>
   <v type="int" >       12        3        3        4        8 </v>
   <v type="int" >       12        3        3        7        8 </v>
   <v type="int" >       12        3        4        8        8 </v>
   <v type="int" >       12        3        7        8        8 </v>
   <v type="int" >       12        6        7       10       20 </v>
   <v type="int" >       12        6        7       17       20 </v>
   <v type="int" >       12        6       16       17       20 </v>
   <v type="int" >       12        2        3        7       17 </v>
   <v type="int" >       12        2        6        7       17 </v>
   <v type="int" >       12        2        6       16       17 </v>
   <v type="int" >       12        2        3        3        7 </v>
   <v type="int" >       12        2        2        3        7 </v>
   <v type="int" >       12        2        2        6        7 </v>
   <v type="int" >       12        2        3        7        7 </v>
   <v type="int" >       12        2        6        7        7 </v>
   <v type="int" >       12        1        2        6       16 </v>
   <v type="int" >       12        1        1        2        6 </v>
   <v type="int" >       12        1        2        6        6 </v>
   <v type="int" >       12        1        1        1        2 </v>
   <v type="int" >       12       16       17       17       20 </v>
   <v type="int" >       12       17       17       20       20 </v>
   <v type="int" >       12       17       20       20       26 </v>
   <v type="int" >       12       17       18       20       21 </v>
   <v type="int" >       12       17       20       20       21 </v>
   <v type="int" >       12       20       20       21       26 </v>
   <v type="int" >       12       18       20       21       21 </v>
   <v type="int" >       24       20       21       21       27 </v>
   <v type="int" >       24       20       21       26       27 </v>
   <v type="int" >       12       18       19       21       22 </v>
   <v type="int" >       12       18       21       21       22 </v>
   <v type="int" >       12       21       21       22       27 </v>
   <v type="int" >       12       19       21       22       22 </v>
   <v type="int" >       12       21       22       22       28 </v>
   <v type="int" >       12       21       22       27       28 </v>
   <v type="int" >        6       19       19       22       22 </v>
   <v type="int" >       12       19       22       22       22 </v>
   <v type="int" >       12       22       22       22       28 </v>
   <v type="int" >        6       22       22       28       28 </v>
   <v type="int" >        6        6        6        7        7 </v>
   <v type="int" >       12        6        7        7        7 </v>
   <v type="int" >       12        7        7        7       10 </v>
   <v type="int" >        6        7        7       10       10 </v>
   <v type="int" >       12       20       21       23       26 </v>
   <v type="int" >       12       21       23       26       27 </v>
   <v type="int" >       12       23       26       27       29 </v>
   <v type="int" >       12       21       22       24       27 </v>
   <v type="int" >       12       21       23       24       27 </v>
   <v type="int" >       12       23       24       27       29 </v>
   <v type="int" >       12       22       24       27       28 </v>
   <v type="int" >       12       24       27       28       30 </v>
   <v type="int" >       12       24       27       29       30 </v>
   <v type="int" >       12       22       22       24       28 </v>
   <v type="int" >       12       22       24       24       28 </v>
   <v type="int" >       12       24       24       28       30 </v>
   <v type="int" >       12       22       24       28       28 </v>
   <v type="int" >       12       24       28       28       30 </v>
   <v type="int" >       12       24       28       30       30 </v>
   <v type="int" >       12       21       22       23       28 </v>
   <v type="int" >       12       22       23       24       28 </v>
   <v type="int" >       12       23       24       28       30 </v>
   <v type="int" >       12       21       23       27       28 </v>
   <v type="int" >       12       23       27       28       29 </v>
   <v type="int" >       12       23       28       29       30 </v>
   <v type="int" >       12       21       21       23       27 </v>
   <v type="int" >       12       21       23       27       29 </v>
   <v type="int" >       12       21       26       27       27 </v>
   <v type="int" >       12       21       27       27       29 </v>
   <v type="int" >       12       17       18       20       26 </v>
   <v type="int" >       12       18       20       21       26 </v>
   <v type="int" >       12       18       21       26       27 </v>
   <v type="int" >       12        7        7        8       10 </v>
   <v type="int" >       12        7        8        8       10 </v>
   <v type="int" >       12        8        8       10       11 </v>
   <v type="int" >       12        7        8       10       10 </v>
   <v type="int" >       12        8       10       10       11 </v>
   <v type="int" >       12        8       10       11       11 </v>
   <v type="int" >       12       23       24       25       29 </v>
   <v type="int" >       12       24       25       29       30 </v>
   <v type="int" >       12       25       29       30       31 </v>
   <v type="int" >       24       24       24       25       30 </v>
   <v type="int" >       12       24       25       25       30 </v>
   <v type="int" >       12       25       25       30       31 </v>
   <v type="int" >       12       24       25       30       30 </v>
   <v type="int" >       12       25       30       30       31 </v>
   <v type="int" >       12       25       30       31       31 </v>
   <v type="int" >       12       23       24       24       30 </v>
   <v type="int" >       12       24       25       30       31 </v>
   <v type="int" >       12       23       24       29       30 </v>
   <v type="int" >       12       24       29       30       30 </v>
   <v type="int" >       24       24       30       30       31 </v>
   <v type="int" >       12       21       22       23       29 </v>
   <v type="int" >       12       22       23       24       29 </v>
   <v type="int" >       12       22       24       29       30 </v>
   <v type="int" >       12       21       22       27       29 </v>
   <v type="int" >       12       22       27       28       29 </v>
   <v type="int" >       12       22       28       29       30 </v>
   <v type="int" >       12       18       19       21       27 </v>
   <v type="int" >       12       19       21       22       27 </v>
   <v type="int" >       12       19       22       27       28 </v>
   <v type="int" >       12        8        8        9       11 </v>
   <v type="int" >       12        8        9        9       11 </v>
   <v type="int" >       12        9        9       11       12 </v>
   <v type="int" >       12        8        9       11       11 </v>
   <v type="int" >       12        9       11       11       12 </v>
   <v type="int" >       12        9       11       12       12 </v>
   <v type="int" >       12       25       25       25       31 </v>
   <v type="int" >       12       25       25       31       31 </v>
   <v type="int" >       12       25       31       31       31 </v>
   <v type="int" >       12       24       24       25       31 </v>
   <v type="int" >       12       24       25       25       31 </v>
   <v type="int" >       12       24       25       31       31 </v>
   <v type="int" >       12       24       24       30       31 </v>
   <v type="int" >       12       24       30       31       31 </v>
   <v type="int" >       12       22       22       24       30 </v>
   <v type="int" >       12       22       24       24       30 </v>
   <v type="int" >       12       22       24       30       30 </v>
   <v type="int" >       12       22       22       28       30 </v>
   <v type="int" >       12       22       28       28       30 </v>
   <v type="int" >       12       22       28       30       30 </v>
   <v type="int" >       12       19       19       22       28 </v>
   <v type="int" >       12       19       22       22       28 </v>
   <v type="int" >       12       19       22       28       28 </v>
   <v type="int" >       24        9        9        9       12 </v>
   <v type="int" >       24        9        9       12       12 </v>
   <v type="int" >       24        9       12       12       12 </v>
   <v type="int" >       12       23       24       25       31 </v>
   <v type="int" >       12       23       24       30       31 </v>
   <v type="int" >       12       23       29       30       31 </v>
   <v type="int" >       12       21       22       24       30 </v>
   <v type="int" >       12       21       23       24       30 </v>
   <v type="int" >       12       21       23       29       30 </v>
   <v type="int" >       12       21       22       28       30 </v>
   <v type="int" >       12       21       27       28       30 </v>
   <v type="int" >       12       21       27       29       30 </v>
   <v type="int" >       12       18       19       22       28 </v>
   <v type="int" >       12       18       21       22       28 </v>
   <v type="int" >       12       18       21       27       28 </v>
   <v type="int" >       12        8        9        9       12 </v>
   <v type="int" >       12        8        8        9       12 </v>
   <v type="int" >       12        8        8       11       12 </v>
   <v type="int" >       12        8        9       12       12 </v>
   <v type="int" >       12        8       11       12       12 </v>
   <v type="int" >       12        8       11       11       12 </v>
   <v type="int" >       12       20       21       23       29 </v>
   <v type="int" >       12       20       21       27       29 </v>
   <v type="int" >       12       20       26       27       29 </v>
   <v type="int" >       12       17       18       21       27 </v>
   <v type="int" >       12       17       20       21       27 </v>
   <v type="int" >       12       17       20       26       27 </v>
   <v type="int" >       12        7        8        8       11 </v>
   <v type="int" >       12        7        7        8       11 </v>
   <v type="int" >       12        7        7       10       11 </v>
   <v type="int" >       12        7        8       11       11 </v>
   <v type="int" >       12        7       10       11       11 </v>
   <v type="int" >       12        7       10       10       11 </v>
   <v type="int" >       12       16       17       20       26 </v>
   <v type="int" >       12        6        7        7       10 </v>
   <v type="int" >       12        6        6        7       10 </v>
   <v type="int" >       12        6        7       10       10 </v>
   <v type="int" >       12        2        2        2        3 </v>
   <v type="int" >       12        2        2        3        3 </v>
   <v type="int" >       12        2        3        3        3 </v>
   <v type="int" >       12       26       27       27       29 </v>
   <v type="int" >       12       27       27       29       29 </v>
   <v type="int" >       12       27       29       29       32 </v>
   <v type="int" >       12       27       28       29       30 </v>
   <v type="int" >       12       27       29       29       30 </v>
   <v type="int" >       12       29       29       30       32 </v>
   <v type="int" >       12       28       29       30       30 </v>
   <v type="int" >       24       29       30       30       33 </v>
   <v type="int" >       24       29       30       32       33 </v>
   <v type="int" >        6       28       28       30       30 </v>
   <v type="int" >       12       28       30       30       30 </v>
   <v type="int" >       12       30       30       30       33 </v>
   <v type="int" >        6       30       30       33       33 </v>
   <v type="int" >        6       10       10       11       11 </v>
   <v type="int" >       12       10       11       11       11 </v>
   <v type="int" >       12       11       11       11       13 </v>
   <v type="int" >        6       11       11       13       13 </v>
   <v type="int" >       12       29       30       31       32 </v>
   <v type="int" >       12       30       31       32       33 </v>
   <v type="int" >       12       31       32       33       34 </v>
   <v type="int" >       24       30       30       31       33 </v>
   <v type="int" >       12       30       31       31       33 </v>
   <v type="int" >       12       31       31       33       34 </v>
   <v type="int" >       12       30       31       33       33 </v>
   <v type="int" >       12       31       33       33       34 </v>
   <v type="int" >       12       31       33       34       34 </v>
   <v type="int" >       12       30       31       33       34 </v>
   <v type="int" >       12       30       32       33       33 </v>
   <v type="int" >       24       30       33       33       34 </v>
   <v type="int" >       12       27       28       29       32 </v>
   <v type="int" >       12       28       29       30       32 </v>
   <v type="int" >       12       28       30       32       33 </v>
   <v type="int" >       12       11       11       12       13 </v>
   <v type="int" >       12       11       12       12       13 </v>
   <v type="int" >       12       12       12       13       14 </v>
   <v type="int" >       12       11       12       13       13 </v>
   <v type="int" >       12       12       13       13       14 </v>
   <v type="int" >       12       12       13       14       14 </v>
   <v type="int" >       12       31       31       31       34 </v>
   <v type="int" >       12       31       31       34       34 </v>
   <v type="int" >       12       31       34       34       34 </v>
   <v type="int" >       12       30       30       31       34 </v>
   <v type="int" >       12       30       31       31       34 </v>
   <v type="int" >       12       30       31       34       34 </v>
   <v type="int" >       12       30       30       33       34 </v>
   <v type="int" >       12       30       33       34       34 </v>
   <v type="int" >       12       28       28       30       33 </v>
   <v type="int" >       12       28       30       30       33 </v>
   <v type="int" >       12       28       30       33       33 </v>
   <v type="int" >       24       12       12       12       14 </v>
   <v type="int" >       24       12       12       14       14 </v>
   <v type="int" >       24       12       14       14       14 </v>
   <v type="int" >       12       29       30       31       34 </v>
   <v type="int" >       12       29       30       33       34 </v>
   <v type="int" >       12       29       32       33       34 </v>
   <v type="int" >       12       27       28       30       33 </v>
   <v type="int" >       12       27       29       30       33 </v>
   <v type="int" >       12       27       29       32       33 </v>
   <v type="int" >       12       11       12       12       14 </v>
   <v type="int" >       12       11       11       12       14 </v>
   <v type="int" >       12       11       11       13       14 </v>
   <v type="int" >       12       11       12       14       14 </v>
   <v type="int" >       12       11       13       14       14 </v>
   <v type="int" >       12       11       13       13       14 </v>
   <v type="int" >       12       26       27       29       32 </v>
   <v type="int" >       12       10       11       11       13 </v>
   <v type="int" >       12       10       10       11       13 </v>
   <v type="int" >       12       10       11       13       13 </v>
   <v type="int" >       12        3        3        3        4 </v>
   <v type="int" >       12        3        3        4        4 </v>
   <v type="int" >       12        3        4        4        4 </v>
   <v type="int" >       12       32       33       33       34 </v>
   <v type="int" >       18       33       33       34       34 </v>
   <v type="int" >       24       33       34       34       35 </v>
   <v type="int" >       12       33       34       34       34 </v>
   <v type="int" >       24       34       34       34       35 </v>
   <v type="int" >       18       34       34       35       35 </v>
   <v type="int" >        6       13       13       14       14 </v>
   <v type="int" >       12       13       14       14       14 </v>
   <v type="int" >       36       14       14       14       15 </v>
   <v type="int" >       30       14       14       15       15 </v>
   <v type="int" >       12       34       35       35       35 </v>
   <v type="int" >       12       33       33       34       35 </v>
   <v type="int" >       12       33       34       35       35 </v>
   <v type="int" >       24       14       15       15       15 </v>
   <v type="int" >       12       32       33       34       35 </v>
   <v type="int" >       12       13       14       14       15 </v>
   <v type="int" >       12       13       13       14       15 </v>
   <v type="int" >       12       13       14       15       15 </v>
   <v type="int" >       12        4        4        4        5 </v>
   <v type="int" >       12        4        4        5        5 </v>
   <v type="int" >       12        4        5        5        5 </v>
   <v type="int" >        6       35       35       35       35 </v>
   <v type="int" >       18       15       15       15       15 </v>
   <v type="int" >       18        5        5        5        5 </v>
   <v type="int" >        6        1        1        1        1 </v>
  </varray>
  <i name="volumeweight">      0.00016667 </i>
 </kpoints>
 <parameters>
  <separator name="general" >
   <i type="string" name="SYSTEM">unknown system</i>
   <i type="logical" name="LCOMPAT"> F  </i>
  </separator>
  <separator name="electronic" >
   <i type="string" name="PREC">accura</i>
   <i name="ENMAX">    540.00000000</i>
   <i name="ENAUG">    578.34200000</i>
   <i name="EDIFF">      0.00000010</i>
   <i type="int" name="IALGO">    38</i>
   <i type="int" name="IWAVPR">    10</i>
   <i type="int" name="NBANDS">    24</i>
   <i name="NELECT">     28.00000000</i>
   <i type="int" name="TURBO">     0</i>
   <i type="int" name="IRESTART">     0</i>
   <i type="int" name="NREBOOT">     0</i>
   <i type="int" name="NMIN">     0</i>
   <i name="EREF">      0.00000000</i>
   <separator name="electronic smearing" >
    <i type="int" name="ISMEAR">    -5</i>
    <i name="SIGMA">      0.05000000</i>
    <i name="KSPACING">      0.50000000</i>
    <i type="logical" name="KGAMMA"> T  </i>
   </separator>
   <separator name="electronic projectors" >
    <i type="logical" name="LREAL"> T  </i>
    <v name="ROPT">     -0.00025000</v>
    <i type="int" name="LMAXPAW">  -100</i>
    <i type="int" name="LMAXMIX">     2</i>
    <i type="logical" name="NLSPLINE"> F  </i>
   </separator>
   <separator name="electronic startup" >
    <i type="int" name="ISTART">     0</i>
    <i type="int" name="ICHARG">     2</i>
    <i type="int" name="INIWAV">     1</i>
   </separator>
   <separator name="electronic spin" >
    <i type="int" name="ISPIN">     2</i>
    <i type="logical" name="LNONCOLLINEAR"> F  </i>
    <v name="MAGMOM">      5.00000000      5.00000000</v>
    <i name="NUPDOWN">     -1.00000000</i>
    <i type="logical" name="LSORBIT"> F  </i>
    <v name="SAXIS">      0.00000000      0.00000000      1.00000000</v>
    <i type="logical" name="LSPIRAL"> F  </i>
    <v name="QSPIRAL">      0.00000000      0.00000000      0.00000000</v>
    <i type="logical" name="LZEROZ"> F  </i>
   </separator>
   <separator name="electronic exchange-correlation" >
    <i type="logical" name="LASPH"> F  </i>
    <i type="logical" name="LMETAGGA"> F  </i>
   </separator>
   <separator name="electronic convergence" >
    <i type="int" name="NELM">   100</i>
    <i type="int" name="NELMDL">    -5</i>
    <i type="int" name="NELMIN">     2</i>
    <i name="ENINI">    540.00000000</i>
    <separator name="electronic convergence detail" >
     <i type="logical" name="LDIAG"> T  </i>
     <i type="logical" name="LSUBROT"> F  </i>
     <i name="WEIMIN">      0.00000000</i>
     <i name="EBREAK">      0.00000000</i>
     <i name="DEPER">      0.30000000</i>
     <i type="int" name="NRMM">     4</i>
     <i name="TIME">      0.40000000</i>
    </separator>
   </separator>
   <separator name="electronic mixer" >
    <i name="AMIX">      0.40000000</i>
    <i name="BMIX">      1.00000000</i>
    <i name="AMIN">      0.10000000</i>
    <i name="AMIX_MAG">      1.60000000</i>
    <i name="BMIX_MAG">      1.00000000</i>
    <separator name="electronic mixer details" >
     <i type="int" name="IMIX">     4</i>
     <i type="logical" name="MIXFIRST"> F  </i>
     <i type="int" name="MAXMIX">   -45</i>
     <i name="WC">    100.00000000</i>
     <i type="int" name="INIMIX">     1</i>
     <i type="int" name="MIXPRE">     1</i>
     <i type="int" name="MREMOVE">     5</i>
    </separator>
   </separator>
   <separator name="electronic dipolcorrection" >
    <i type="logical" name="LDIPOL"> F  </i>
    <i type="logical" name="LMONO"> F  </i>
    <i type="int" name="IDIPOL">     0</i>
    <i name="EPSILON">      1.00000000</i>
    <v name="DIPOL">   -100.00000000   -100.00000000   -100.00000000</v>
    <i name="EFIELD">      0.00000000</i>
   </separator>
  </separator>
  <separator name="grids" >
   <i type="int" name="NGX">    24</i>
   <i type="int" name="NGY">    24</i>
   <i type="int" name="NGZ">    24</i>
   <i type="int" name="NGXF">    48</i>
   <i type="int" name="NGYF">    48</i>
   <i type="int" name="NGZF">    48</i>
   <i type="logical" name="ADDGRID"> F  </i>
  </separator>
  <separator name="ionic" >
   <i type="int" name="NSW">     0</i>
   <i type="int" name="IBRION">    -1</i>
   <i type="int" name="MDALGO">     0</i>
   <i type="int" name="ISIF">     3</i>
   <i name="PSTRESS">      0.00000000</i>
   <i name="EDIFFG">      0.00000100</i>
   <i type="int" name="NFREE">     0</i>
   <i name="POTIM">      0.50000000</i>
   <i name="SMASS">     -3.00000000</i>
   <i name="SCALEE">      1.00000000</i>
  </separator>
  <separator name="ionic md" >
   <i name="TEBEG">      0.00010000</i>
   <i name="TEEND">      0.00010000</i>
   <i type="int" name="NBLOCK">     1</i>
   <i type="int" name="KBLOCK">     1</i>
   <i type="int" name="NPACO">   256</i>
   <i name="APACO">     16.00000000</i>
  </separator>
  <separator name="symmetry" >
   <i type="int" name="ISYM">     2</i>
   <i name="SYMPREC">      0.00001000</i>
  </separator>
  <separator name="dos" >
   <i type="int" name="LORBIT">    11</i>
   <v name="RWIGS">     -1.00000000</v>
   <i type="int" name="NEDOS">   301</i>
   <i name="EMIN">     10.00000000</i>
   <i name="EMAX">    -10.00000000</i>
   <i name="EFERMI">      0.00000000</i>
  </separator>
  <separator name="writing" >
   <i type="int" name="NWRITE">     2</i>
   <i type="logical" name="LWAVE"> F  </i>
   <i type="logical" name="LDOWNSAMPLE"> F  </i>
   <i type="logical" name="LCHARG"> F  </i>
   <i type="logical" name="LPARD"> F  </i>
   <i type="logical" name="LVTOT"> F  </i>
   <i type="logical" name="LVHAR"> F  </i>
   <i type="logical" name="LELF"> F  </i>
   <i type="logical" name="LOPTICS"> F  </i>
   <v name="STM">      0.00000000      0.00000000      0.00000000      0.00000000      0.00000000      0.00000000      0.00000000</v>
  </separator>
  <separator name="performance" >
   <i type="int" name="NPAR">     6</i>
   <i type="int" name="NSIM">     4</i>
   <i type="int" name="NBLK">    -1</i>
   <i type="logical" name="LPLANE"> T  </i>
   <i type="logical" name="LSCALAPACK"> T  </i>
   <i type="logical" name="LSCAAWARE"> F  </i>
   <i type="logical" name="LSCALU"> F  </i>
   <i type="logical" name="LASYNC"> F  </i>
   <i type="logical" name="LORBITALREAL"> F  </i>
  </separator>
  <separator name="miscellaneous" >
   <i type="int" name="IDIOT">     3</i>
   <i type="int" name="ISPECIAL">     0</i>
   <i type="logical" name="LMUSIC"> F  </i>
   <v name="POMASS">     55.84700000</v>
   <v name="DARWINR">      0.00000000</v>
   <v name="DARWINV">      1.00000000</v>
   <i type="logical" name="LCORR"> T  </i>
  </separator>
  <i type="logical" name="GGA_COMPAT"> T  </i>
  <i type="logical" name="LBERRY"> F  </i>
  <i type="int" name="ICORELEVEL">     0</i>
  <i type="logical" name="LDAU"> F  </i>
  <i type="int" name="I_CONSTRAINED_M">     0</i>
  <separator name="electronic exchange-correlation" >
   <i type="string" name="GGA">--</i>
   <i type="int" name="VOSKOWN">     0</i>
   <i type="logical" name="LHFCALC"> F  </i>
   <i type="string" name="PRECFOCK"></i>
   <i type="logical" name="LSYMGRAD"> F  </i>
   <i type="logical" name="LHFONE"> F  </i>
   <i type="logical" name="LRHFCALC"> F  </i>
   <i type="logical" name="LTHOMAS"> F  </i>
   <i type="logical" name="LMODELHF"> F  </i>
   <i name="ENCUT4O">     -1.00000000</i>
   <i type="int" name="EXXOEP">     0</i>
   <i type="int" name="FOURORBIT">     0</i>
   <i name="AEXX">      0.00000000</i>
   <i name="HFALPHA">      0.00000000</i>
   <i name="MCALPHA">      0.00000000</i>
   <i name="ALDAX">      1.00000000</i>
   <i name="AGGAX">      1.00000000</i>
   <i name="ALDAC">      1.00000000</i>
   <i name="AGGAC">      1.00000000</i>
   <i type="int" name="NKREDX">     1</i>
   <i type="int" name="NKREDY">     1</i>
   <i type="int" name="NKREDZ">     1</i>
   <i type="logical" name="SHIFTRED"> F  </i>
   <i type="logical" name="ODDONLY"> F  </i>
   <i type="logical" name="EVENONLY"> F  </i>
   <i type="int" name="LMAXFOCK">     0</i>
   <i type="int" name="NMAXFOCKAE">     0</i>
   <i type="logical" name="LFOCKAEDFT"> F  </i>
   <i name="HFSCREEN">      0.00000000</i>
   <i name="HFSCREENC">      0.00000000</i>
   <i type="int" name="NBANDSGWLOW">     0</i>
  </separator>
  <separator name="vdW DFT" >
   <i type="logical" name="LUSE_VDW"> F  </i>
   <i name="Zab_VDW">     -0.84910000</i>
   <i name="PARAM1">      0.12340000</i>
   <i name="PARAM2">      1.00000000</i>
   <i name="PARAM3">      0.00000000</i>
  </separator>
  <separator name="model GW" >
   <i type="int" name="MODEL_GW">     0</i>
   <i name="MODEL_EPS0">      6.87226868</i>
   <i name="MODEL_ALPHA">      1.00000000</i>
  </separator>
  <separator name="linear response parameters" >
   <i type="logical" name="LEPSILON"> F  </i>
   <i type="logical" name="LRPA"> F  </i>
   <i type="logical" name="LNABLA"> F  </i>
   <i type="logical" name="LVEL"> F  </i>
   <i type="int" name="KINTER">     0</i>
   <i name="CSHIFT">      0.10000000</i>
   <i name="OMEGAMAX">     -1.00000000</i>
   <i name="DEG_THRESHOLD">      0.00200000</i>
   <i name="RTIME">     -0.10000000</i>
   <i name="WPLASMAI">      0.00000000</i>
   <v name="DFIELD">      0.00000000      0.00000000      0.00000000</v>
   <v name="WPLASMA">      0.00000000      0.00000000      0.00000000      0.00000000      0.00000000      0.00000000      0.00000000      0.00000000      0.00000000</v>
  </separator>
  <separator name="orbital magnetization" >
   <i type="logical" name="NUCIND"> F  </i>
   <v name="MAGPOS">      0.00000000      0.00000000      0.00000000</v>
   <i type="logical" name="LNICSALL"> T  </i>
   <i type="logical" name="ORBITALMAG"> F  </i>
   <i type="logical" name="LMAGBLOCH"> F  </i>
   <i type="logical" name="LCHIMAG"> F  </i>
   <i type="logical" name="LGAUGE"> T  </i>
   <i type="int" name="MAGATOM">     0</i>
   <v name="MAGDIPOL">      0.00000000      0.00000000      0.00000000</v>
   <v name="AVECCONST">      0.00000000      0.00000000      0.00000000</v>
  </separator>
  <separator name="response functions" >
   <i type="logical" name="LADDER"> F  </i>
   <i type="logical" name="LRPAFORCE"> F  </i>
   <i type="logical" name="LFXC"> F  </i>
   <i type="logical" name="LHARTREE"> T  </i>
   <i type="int" name="IBSE">     0</i>
   <v type="int" name="KPOINT">    -1     0     0     0</v>
   <i type="logical" name="LTCTE"> F  </i>
   <i type="logical" name="LTETE"> F  </i>
   <i type="logical" name="LTRIPLET"> F  </i>
   <i type="logical" name="LFXCEPS"> F  </i>
   <i type="logical" name="LFXHEG"> F  </i>
   <i type="int" name="NATURALO">     2</i>
   <i type="logical" name="L2ORDER"> F  </i>
   <i type="logical" name="LMP2LT"> F  </i>
   <i type="logical" name="LUSEW"> F  </i>
   <i name="ENCUTGW">     -2.00000000</i>
   <i name="ENCUTGWSOFT">     -2.00000000</i>
   <i name="ENCUTLF">     -1.00000000</i>
   <i type="int" name="LMAXMP2">    -1</i>
   <i name="SCISSOR">      0.00000000</i>
   <i type="int" name="NOMEGA">     0</i>
   <i type="int" name="NOMEGAR">     0</i>
   <i type="int" name="NBANDSGW">    -1</i>
   <i type="int" name="NBANDSO">    -1</i>
   <i type="int" name="NBANDSV">    -1</i>
   <i type="int" name="NELM">   100</i>
   <i type="int" name="NELMHF">     1</i>
   <i type="int" name="DIM">     3</i>
   <i type="int" name="ANTIRES">     0</i>
   <i name="OMEGAMAX">    -30.00000000</i>
   <i name="OMEGAMIN">    -30.00000000</i>
   <i name="OMEGATL">   -200.00000000</i>
   <i type="int" name="OMEGAGRID">   140</i>
   <i name="CSHIFT">     -0.10000000</i>
   <i type="logical" name="SELFENERGY"> F  </i>
   <i type="logical" name="LSPECTRAL"> F  </i>
   <i type="logical" name="LSPECTRALGW"> F  </i>
   <i type="logical" name="LSINGLES"> F  </i>
   <i type="logical" name="LFERMIGW"> F  </i>
   <i type="logical" name="ODDONLYGW"> F  </i>
   <i type="logical" name="EVENONLYGW"> F  </i>
   <i type="int" name="NKREDLFX">     1</i>
   <i type="int" name="NKREDLFY">     1</i>
   <i type="int" name="NKREDLFZ">     1</i>
   <i type="int" name="MAXMEM">  2800</i>
   <i type="int" name="TELESCOPE">     0</i>
   <i type="int" name="TAUPAR">     1</i>
   <i type="int" name="OMEGAPAR">    -1</i>
   <i name="LAMBDA">      1.00000000</i>
  </separator>
  <separator name="External order field" >
   <i name="OFIELD_KAPPA">      0.00000000</i>
   <v name="OFIELD_K">      0.00000000      0.00000000      0.00000000</v>
   <i name="OFIELD_Q6_NEAR">      0.00000000</i>
   <i name="OFIELD_Q6_FAR">      0.00000000</i>
   <i name="OFIELD_A">      0.00000000</i>
  </separator>
 </parameters>
 <atominfo>
  <atoms>       2 </atoms>
  <types>       1 </types>
  <array name="atoms" >
   <dimension dim="1">ion</dimension>
   <field type="string">element</field>
   <field type="int">atomtype</field>
   <set>
    <rc><c>Fe</c><c>   1</c></rc>
    <rc><c>Fe</c><c>   1</c></rc>
   </set>
  </array>
  <array name="atomtypes" >
   <dimension dim="1">type</dimension>
   <field type="int">atomspertype</field>
   <field type="string">element</field>
   <field>mass</field>
   <field>valence</field>
   <field type="string">pseudopotential</field>
   <set>
    <rc><c>   2</c><c>Fe</c><c>     55.84700000</c><c>     14.00000000</c><c>  PAW_PBE Fe_pv 02Aug2007               </c></rc>
   </set>
  </array>
 </atominfo>
 <structure name="initialpos" >
  <crystal>
   <varray name="basis" >
    <v>       2.84005200       0.00000000       0.00000000 </v>
    <v>       0.00000000       2.84005200       0.00000000 </v>
    <v>       0.00000000       0.00000000       2.84005200 </v>
   </varray>
   <i name="volume">     22.90756226 </i>
   <varray name="rec_basis" >
    <v>       0.35210623       0.00000000       0.00000000 </v>
    <v>       0.00000000       0.35210623       0.00000000 </v>
    <v>       0.00000000       0.00000000       0.35210623 </v>
   </varray>
  </crystal>
  <varray name="positions" >
   <v>       0.00000000       0.00000000       0.00000000 </v>
   <v>       0.50000000       0.50000000       0.50000000 </v>
  </varray>
 </structure>
 <calculation>
  <scstep>
   <time name="dav">    0.46    0.47</time>
   <time name="total">    0.51    0.52</time>
   <energy>
    <i name="alphaZ">    218.87048721 </i>
    <i name="ewald">  -3616.56080017 </i>
    <i name="hartreedc">  -1162.86386254 </i>
    <i name="XCdc">    147.54621923 </i>
    <i name="pawpsdc">   3997.93860218 </i>
    <i name="pawaedc">  -4177.34792201 </i>
    <i name="eentropy">      0.00000000 </i>
    <i name="bandstr">   -117.14759469 </i>
    <i name="atom">   4914.83588457 </i>
    <i name="e_fr_energy">    205.27101377 </i>
    <i name="e_wo_entrp">    205.27101377 </i>
    <i name="e_0_energy">    205.27101377 </i>
   </energy>
  </scstep>
  <scstep>
   <time name="dav">    0.44    0.44</time>
   <time name="total">    0.47    0.47</time>
   <energy>
    <i name="e_fr_energy">    -10.33364453 </i>
    <i name="e_wo_entrp">    -10.33364453 </i>
    <i name="e_0_energy">    -10.33364453 </i>
   </energy>
  </scstep>
  <scstep>
   <time name="dav">    0.48    0.48</time>
   <time name="total">    0.51    0.51</time>
   <energy>
    <i name="e_fr_energy">    -16.22541786 </i>
    <i name="e_wo_entrp">    -16.22541786 </i>
    <i name="e_0_energy">    -16.22541786 </i>
   </energy>
  </scstep>
  <scstep>
   <time name="dav">    0.48    0.48</time>
   <time name="total">    0.51    0.51</time>
   <energy>
    <i name="e_fr_energy">    -16.27239712 </i>
    <i name="e_wo_entrp">    -16.27239712 </i>
    <i name="e_0_energy">    -16.27239712 </i>
   </energy>
  </scstep>
  <scstep>
   <time name="dav">    0.48    0.48</time>
   <time name="total">    0.53    0.53</time>
   <energy>
    <i name="e_fr_energy">    -16.27327794 </i>
    <i name="e_wo_entrp">    -16.27327794 </i>
    <i name="e_0_energy">    -16.27327794 </i>
   </energy>
  </scstep>
  <scstep>
   <time name="dav">    0.43    0.43</time>
   <time name="total">    0.49    0.49</time>
   <energy>
    <i name="e_fr_energy">    -16.45541087 </i>
    <i name="e_wo_entrp">    -16.45541087 </i>
    <i name="e_0_energy">    -16.45541087 </i>
   </energy>
  </scstep>
  <scstep>
   <time name="dav">    0.44    0.44</time>
   <time name="total">    0.49    0.50</time>
   <energy>
    <i name="e_fr_energy">    -16.51172215 </i>
    <i name="e_wo_entrp">    -16.51172215 </i>
    <i name="e_0_energy">    -16.51172215 </i>
   </energy>
  </scstep>
  <scstep>
   <time name="dav">    0.46    0.46</time>
   <time name="total">    0.52    0.52</time>
   <energy>
    <i name="e_fr_energy">    -16.52173557 </i>
    <i name="e_wo_entrp">    -16.52173557 </i>
    <i name="e_0_energy">    -16.52173557 </i>
   </energy>
  </scstep>
  <scstep>
   <time name="dav">    0.46    0.47</time>
   <time name="total">    0.52    0.53</time>
   <energy>
    <i name="e_fr_energy">    -16.51355405 </i>
    <i name="e_wo_entrp">    -16.51355405 </i>
    <i name="e_0_energy">    -16.51355405 </i>
   </energy>
  </scstep>
  <scstep>
   <time name="dav">    0.43    0.43</time>
   <time name="total">    0.49    0.49</time>
   <energy>
    <i name="e_fr_energy">    -16.51338107 </i>
    <i name="e_wo_entrp">    -16.51338107 </i>
    <i name="e_0_energy">    -16.51338107 </i>
   </energy>
  </scstep>
  <scstep>
   <time name="dav">    0.45    0.45</time>
   <time name="total">    0.51    0.51</time>
   <energy>
    <i name="e_fr_energy">    -16.51344024 </i>
    <i name="e_wo_entrp">    -16.51344024 </i>
    <i name="e_0_energy">    -16.51344024 </i>
   </energy>
  </scstep>
  <scstep>
   <time name="dav">    0.48    0.48</time>
   <time name="total">    0.54    0.54</time>
   <energy>
    <i name="e_fr_energy">    -16.51344834 </i>
    <i name="e_wo_entrp">    -16.51344834 </i>
    <i name="e_0_energy">    -16.51344834 </i>
   </energy>
  </scstep>
  <scstep>
   <time name="dav">    0.44    0.44</time>
   <time name="total">    0.50    0.50</time>
   <energy>
    <i name="e_fr_energy">    -16.51344156 </i>
    <i name="e_wo_entrp">    -16.51344156 </i>
    <i name="e_0_energy">    -16.51344156 </i>
   </energy>
  </scstep>
  <scstep>
   <time name="dav">    0.37    0.37</time>
   <time name="total">    0.43    0.44</time>
   <energy>
    <i name="e_fr_energy">    -16.51344002 </i>
    <i name="e_wo_entrp">    -16.51344002 </i>
    <i name="e_0_energy">    -16.51344002 </i>
   </energy>
  </scstep>
  <scstep>
   <time name="dav">    0.28    0.29</time>
   <time name="total">    0.33    0.33</time>
   <energy>
    <i name="alphaZ">    218.87048721 </i>
    <i name="ewald">  -3616.56080017 </i>
    <i name="hartreedc">  -1089.90819760 </i>
    <i name="XCdc">    140.87680449 </i>
    <i name="pawpsdc">   4375.34552642 </i>
    <i name="pawaedc">  -4560.71457956 </i>
    <i name="eentropy">      0.00000000 </i>
    <i name="bandstr">   -399.25856539 </i>
    <i name="atom">   4914.83588457 </i>
    <i name="e_fr_energy">    -16.51344003 </i>
    <i name="e_wo_entrp">    -16.51344003 </i>
    <i name="e_0_energy">    -16.51344003 </i>
   </energy>
  </scstep>
  <structure>
   <crystal>
    <varray name="basis" >
     <v>       2.84005200       0.00000000       0.00000000 </v>
     <v>       0.00000000       2.84005200       0.00000000 </v>
     <v>       0.00000000       0.00000000       2.84005200 </v>
    </varray>
    <i name="volume">     22.90756226 </i>
    <varray name="rec_basis" >
     <v>       0.35210623       0.00000000       0.00000000 </v>
     <v>       0.00000000       0.35210623       0.00000000 </v>
     <v>       0.00000000       0.00000000       0.35210623 </v>
    </varray>
   </crystal>
   <varray name="positions" >
    <v>       0.00000000       0.00000000       0.00000000 </v>
    <v>       0.50000000       0.50000000       0.50000000 </v>
   </varray>
  </structure>
  <varray name="forces" >
   <v>      -0.00000000      -0.00000000      -0.00000000 </v>
   <v>       0.00000000       0.00000000       0.00000000 </v>
  </varray>
  <varray name="stress" >
   <v>     -15.81748233       0.00000000       0.00000000 </v>
   <v>      -0.00000000     -15.81748233      -0.00000000 </v>
   <v>       0.00000000      -0.00000000     -15.81748233 </v>
  </varray>
  <energy>
   <i name="e_fr_energy">    -16.51344003 </i>
   <i name="e_wo_entrp">    -16.51344003 </i>
   <i name="e_0_energy">      0.00000000 </i>
  </energy>
  <time name="totalsc">    7.74    7.77</time>
  <eigenvalues>
   <array>
    <dimension dim="1">band</dimension>
    <dimension dim="2">kpoint</dimension>
    <dimension dim="3">spin</dimension>
    <field>eigene</field>
    <field>occ</field>
    <set>
     <set comment="spin 1">
      <set comment="kpoint 1">
       <r>  -44.5598    1.0000 </r>
       <r>  -44.5598    1.0000 </r>
       <r>  -44.5455    1.0000 </r>
       <r>  -44.2887    1.0000 </r>
       <r>  -44.2740    1.0000 </r>
       <r>  -44.2740    1.0000 </r>
       <r>    1.3980    1.0000 </r>
       <r>    4.9388    1.0000 </r>
       <r>    4.9388    1.0000 </r>
       <r>    7.3051    1.0000 </r>
       <r>    7.3051    1.0000 </r>
       <r>    7.4311    1.0000 </r>
       <r>    8.5806    1.0000 </r>
       <r>    8.5806    1.0000 </r>
       <r>    9.4948    1.0000 </r>
       <r>    9.6872    0.6009 </r>
       <r>    9.6872    0.0098 </r>
       <r>   19.1993    0.0000 </r>
       <r>   19.1993    0.0000 </r>
       <r>   19.4413    0.0000 </r>
       <r>   25.8103    0.0000 </r>
       <r>   25.8103    0.0000 </r>
       <r>   30.6981    0.0000 </r>
       <r>   33.3490    0.0000 </r>
      </set>
      <set comment="kpoint 2">
       <r>  -44.5658    1.0000 </r>
       <r>  -44.5451    1.0000 </r>
       <r>  -44.5235    1.0000 </r>
       <r>  -44.3205    1.0000 </r>
       <r>  -44.2872    1.0000 </r>
       <r>  -44.2795    1.0000 </r>
       <r>    1.8016    1.0000 </r>
       <r>    5.1066    1.0000 </r>
       <r>    5.1088    1.0000 </r>
       <r>    7.2466    1.0000 </r>
       <r>    7.2948    1.0000 </r>
       <r>    7.5993    1.0000 </r>
       <r>    8.4145    1.0000 </r>
       <r>    8.6556    1.0000 </r>
       <r>    9.1041    1.0000 </r>
       <r>    9.3726    1.0210 </r>
       <r>    9.6657    0.1363 </r>
       <r>   17.0986    0.0000 </r>
       <r>   19.9182    0.0000 </r>
       <r>   20.0954    0.0000 </r>
       <r>   25.9619    0.0000 </r>
       <r>   27.1440    0.0000 </r>
       <r>   31.5528    0.0000 </r>
       <r>   32.1505    0.0000 </r>
      </set>
      <set comment="kpoint 3">
       <r>  -44.5630    1.0000 </r>
       <r>  -44.5172    1.0000 </r>
       <r>  -44.4927    1.0000 </r>
       <r>  -44.3682    1.0000 </r>
       <r>  -44.3126    1.0000 </r>
       <r>  -44.2995    1.0000 </r>
       <r>    2.5671    1.0000 </r>
       <r>    5.3679    1.0000 </r>
       <r>    5.4279    1.0000 </r>
       <r>    7.2426    1.0000 </r>
       <r>    7.2876    1.0000 </r>
       <r>    7.8418    1.0000 </r>
       <r>    8.1081    1.0000 </r>
       <r>    8.6067    1.0000 </r>
       <r>    8.7949    1.0000 </r>
       <r>    8.8890    1.0000 </r>
       <r>    9.4859    1.0394 </r>
       <r>   14.5755    0.0000 </r>
       <r>   21.1874    0.0000 </r>
       <r>   21.3582    0.0000 </r>
       <r>   26.2946    0.0000 </r>
       <r>   27.9721    0.0000 </r>
       <r>   29.6289    0.0000 </r>
       <r>   31.2960    0.0000 </r>
      </set>
      <set comment="kpoint 4">
       <r>  -44.5486    1.0000 </r>
       <r>  -44.4794    1.0000 </r>
       <r>  -44.4547    1.0000 </r>
       <r>  -44.4235    1.0000 </r>
       <r>  -44.3479    1.0000 </r>
       <r>  -44.3309    1.0000 </r>
       <r>    3.5893    1.0000 </r>
       <r>    5.5405    1.0000 </r>
       <r>    5.8729    1.0000 </r>
       <r>    7.2460    1.0000 </r>
       <r>    7.3215    1.0000 </r>
       <r>    7.7682    1.0000 </r>
       <r>    8.1305    1.0000 </r>
       <r>    8.1504    1.0000 </r>
       <r>    8.3930    1.0000 </r>
       <r>    9.0194    1.0000 </r>
       <r>    9.2004    1.0386 </r>
       <r>   12.2832    0.0000 </r>
       <r>   22.7943    0.0000 </r>
       <r>   23.0071    0.0000 </r>
       <r>   26.8755    0.0000 </r>
       <r>   27.8749    0.0000 </r>
       <r>   28.6107    0.0000 </r>
       <r>   29.1474    0.0000 </r>
      </set>
      <set comment="kpoint 5">
       <r>  -44.5198    1.0000 </r>
       <r>  -44.4767    1.0000 </r>
       <r>  -44.4355    1.0000 </r>
       <r>  -44.4125    1.0000 </r>
       <r>  -44.3902    1.0000 </r>
       <r>  -44.3698    1.0000 </r>
       <r>    4.6411    1.0000 </r>
       <r>    5.3583    1.0000 </r>
       <r>    6.3950    1.0000 </r>
       <r>    6.9178    1.0000 </r>
       <r>    7.4993    1.0000 </r>
       <r>    7.7313    1.0000 </r>
       <r>    7.7627    1.0000 </r>
       <r>    7.9857    1.0000 </r>
       <r>    8.4992    1.0000 </r>
       <r>    8.8575    1.0000 </r>
       <r>    9.4834    0.9855 </r>
       <r>   10.5197    0.0000 </r>
       <r>   24.5322    0.0000 </r>
       <r>   24.9044    0.0000 </r>
       <r>   26.2267    0.0000 </r>
       <r>   26.9672    0.0000 </r>
       <r>   27.8213    0.0000 </r>
       <r>   29.2508    0.0000 </r>
      </set>
      <set comment="kpoint 6">
       <r>  -44.5799    1.0000 </r>
       <r>  -44.5363    1.0000 </r>
       <r>  -44.4911    1.0000 </r>
       <r>  -44.3620    1.0000 </r>
       <r>  -44.2974    1.0000 </r>
       <r>  -44.2740    1.0000 </r>
       <r>    2.1895    1.0000 </r>
       <r>    5.2396    1.0000 </r>
       <r>    5.2983    1.0000 </r>
       <r>    7.0940    1.0000 </r>
       <r>    7.2377    1.0000 </r>
       <r>    7.8702    1.0000 </r>
       <r>    8.4388    1.0000 </r>
       <r>    8.6108    1.0000 </r>
       <r>    8.6247    1.0000 </r>
       <r>    9.1497    1.0069 </r>
       <r>    9.7348    0.0315 </r>
       <r>   17.1957    0.0000 </r>
       <r>   18.2809    0.0000 </r>
       <r>   20.6505    0.0000 </r>
       <r>   26.6284    0.0000 </r>
       <r>   28.5394    0.0000 </r>
       <r>   29.9220    0.0000 </r>
       <r>   31.9696    0.0000 </r>
      </set>
      <set comment="kpoint 7">
       <r>  -44.5891    1.0000 </r>
       <r>  -44.5107    1.0000 </r>
       <r>  -44.4533    1.0000 </r>
       <r>  -44.4167    1.0000 </r>
       <r>  -44.3204    1.0000 </r>
       <r>  -44.2815    1.0000 </r>
       <r>    2.9158    1.0000 </r>
       <r>    5.4558    1.0000 </r>
       <r>    5.6210    1.0000 </r>
       <r>    6.9884    1.0000 </r>
       <r>    7.1827    1.0000 </r>
       <r>    8.1059    1.0000 </r>
       <r>    8.2003    1.0000 </r>
       <r>    8.2828    1.0000 </r>
       <r>    8.7217    1.0000 </r>
       <r>    8.7246    1.0000 </r>
       <r>    9.6886    0.2894 </r>
       <r>   14.9837    0.0000 </r>
       <r>   19.0119    0.0000 </r>
       <r>   21.7954    0.0000 </r>
       <r>   27.0201    0.0000 </r>
       <r>   27.7478    0.0000 </r>
       <r>   29.9241    0.0000 </r>
       <r>   30.6413    0.0000 </r>
      </set>
      <set comment="kpoint 8">
       <r>  -44.5850    1.0000 </r>
       <r>  -44.4752    1.0000 </r>
       <r>  -44.4745    1.0000 </r>
       <r>  -44.4126    1.0000 </r>
       <r>  -44.3529    1.0000 </r>
       <r>  -44.3024    1.0000 </r>
       <r>    3.8581    1.0000 </r>
       <r>    5.5958    1.0000 </r>
       <r>    6.0120    1.0000 </r>
       <r>    6.9648    1.0000 </r>
       <r>    7.1191    1.0000 </r>
       <r>    7.6672    1.0000 </r>
       <r>    8.0934    1.0000 </r>
       <r>    8.3378    1.0000 </r>
       <r>    8.5644    1.0000 </r>
       <r>    8.9634    1.0000 </r>
       <r>    9.4969    0.9241 </r>
       <r>   12.6532    0.0000 </r>
       <r>   20.3760    0.0000 </r>
       <r>   23.3118    0.0000 </r>
       <r>   25.6605    0.0000 </r>
       <r>   27.5892    0.0000 </r>
       <r>   28.7791    0.0000 </r>
       <r>   30.9265    0.0000 </r>
      </set>
      <set comment="kpoint 9">
       <r>  -44.5641    1.0000 </r>
       <r>  -44.5260    1.0000 </r>
       <r>  -44.4342    1.0000 </r>
       <r>  -44.3920    1.0000 </r>
       <r>  -44.3716    1.0000 </r>
       <r>  -44.3337    1.0000 </r>
       <r>    4.7818    1.0000 </r>
       <r>    5.4047    1.0000 </r>
       <r>    6.4370    1.0000 </r>
       <r>    6.8153    1.0000 </r>
       <r>    7.1500    1.0000 </r>
       <r>    7.3559    1.0000 </r>
       <r>    8.0552    1.0000 </r>
       <r>    8.1287    1.0000 </r>
       <r>    8.8894    1.0000 </r>
       <r>    9.2082    1.0000 </r>
       <r>    9.5413    0.7786 </r>
       <r>   10.7643    0.0000 </r>
       <r>   21.9648    0.0000 </r>
       <r>   23.7292    0.0000 </r>
       <r>   25.0472    0.0000 </r>
       <r>   26.8831    0.0000 </r>
       <r>   28.4947    0.0000 </r>
       <r>   29.8474    0.0000 </r>
      </set>
      <set comment="kpoint 10">
       <r>  -44.6123    1.0000 </r>
       <r>  -44.4901    1.0000 </r>
       <r>  -44.4764    1.0000 </r>
       <r>  -44.4104    1.0000 </r>
       <r>  -44.3382    1.0000 </r>
       <r>  -44.2741    1.0000 </r>
       <r>    3.5388    1.0000 </r>
       <r>    5.5108    1.0000 </r>
       <r>    6.0144    1.0000 </r>
       <r>    6.7717    1.0000 </r>
       <r>    7.1539    1.0000 </r>
       <r>    7.5989    1.0000 </r>
       <r>    8.4265    1.0000 </r>
       <r>    8.4289    1.0000 </r>
       <r>    8.6231    1.0000 </r>
       <r>    8.6651    1.0000 </r>
       <r>    9.8080   -0.0339 </r>
       <r>   14.8628    0.0000 </r>
       <r>   17.4659    0.0000 </r>
       <r>   22.7545    0.0000 </r>
       <r>   25.3835    0.0000 </r>
       <r>   27.3664    0.0000 </r>
       <r>   30.0595    0.0000 </r>
       <r>   32.3853    0.0000 </r>
      </set>
      <set comment="kpoint 11">
       <r>  -44.6215    1.0000 </r>
       <r>  -44.5346    1.0000 </r>
       <r>  -44.4612    1.0000 </r>
       <r>  -44.3688    1.0000 </r>
       <r>  -44.3635    1.0000 </r>
       <r>  -44.2813    1.0000 </r>
       <r>    4.2636    1.0000 </r>
       <r>    5.4681    1.0000 </r>
       <r>    6.4675    1.0000 </r>
       <r>    6.6642    1.0000 </r>
       <r>    7.1895    1.0000 </r>
       <r>    7.2438    1.0000 </r>
       <r>    8.2729    1.0000 </r>
       <r>    8.4048    1.0000 </r>
       <r>    8.8099    1.0000 </r>
       <r>    9.0699    1.0219 </r>
       <r>    9.7580    0.0041 </r>
       <r>   13.0481    0.0000 </r>
       <r>   18.1035    0.0000 </r>
       <r>   23.1679    0.0000 </r>
       <r>   24.0660    0.0000 </r>
       <r>   27.8482    0.0000 </r>
       <r>   28.7851    0.0000 </r>
       <r>   31.4418    0.0000 </r>
      </set>
      <set comment="kpoint 12">
       <r>  -44.6118    1.0000 </r>
       <r>  -44.5819    1.0000 </r>
       <r>  -44.4281    1.0000 </r>
       <r>  -44.3944    1.0000 </r>
       <r>  -44.3316    1.0000 </r>
       <r>  -44.3014    1.0000 </r>
       <r>    4.8668    1.0000 </r>
       <r>    5.2599    1.0000 </r>
       <r>    6.6825    1.0000 </r>
       <r>    6.7711    1.0000 </r>
       <r>    7.0124    1.0000 </r>
       <r>    7.2244    1.0000 </r>
       <r>    8.3126    1.0000 </r>
       <r>    8.3955    1.0000 </r>
       <r>    9.1812    1.0000 </r>
       <r>    9.5469    0.9518 </r>
       <r>    9.7288    0.0298 </r>
       <r>   11.1093    0.0000 </r>
       <r>   19.4888    0.0000 </r>
       <r>   21.1931    0.0000 </r>
       <r>   25.5957    0.0000 </r>
       <r>   27.2068    0.0000 </r>
       <r>   28.6470    0.0000 </r>
       <r>   29.8691    0.0000 </r>
      </set>
      <set comment="kpoint 13">
       <r>  -44.6447    1.0000 </r>
       <r>  -44.5891    1.0000 </r>
       <r>  -44.4419    1.0000 </r>
       <r>  -44.3790    1.0000 </r>
       <r>  -44.3305    1.0000 </r>
       <r>  -44.2742    1.0000 </r>
       <r>    4.6034    1.0000 </r>
       <r>    5.2504    1.0000 </r>
       <r>    6.4675    1.0000 </r>
       <r>    6.7903    1.0000 </r>
       <r>    7.0691    1.0000 </r>
       <r>    7.8005    1.0000 </r>
       <r>    8.3291    1.0000 </r>
       <r>    8.5821    1.0000 </r>
       <r>    8.7315    1.0000 </r>
       <r>    9.5046    0.9629 </r>
       <r>    9.8585   -0.0050 </r>
       <r>   12.6724    0.0000 </r>
       <r>   17.0754    0.0000 </r>
       <r>   20.9326    0.0000 </r>
       <r>   25.1100    0.0000 </r>
       <r>   28.2079    0.0000 </r>
       <r>   28.4080    0.0000 </r>
       <r>   30.7487    0.0000 </r>
      </set>
      <set comment="kpoint 14">
       <r>  -44.6479    1.0000 </r>
       <r>  -44.6288    1.0000 </r>
       <r>  -44.4201    1.0000 </r>
       <r>  -44.3984    1.0000 </r>
       <r>  -44.3005    1.0000 </r>
       <r>  -44.2811    1.0000 </r>
       <r>    4.8280    1.0000 </r>
       <r>    5.0277    1.0000 </r>
       <r>    6.4162    1.0000 </r>
       <r>    6.5256    1.0000 </r>
       <r>    7.6337    1.0000 </r>
       <r>    8.0158    1.0000 </r>
       <r>    8.4772    1.0000 </r>
       <r>    8.6084    1.0000 </r>
       <r>    9.2345    1.0000 </r>
       <r>    9.7476    0.3172 </r>
       <r>   10.0490    0.0000 </r>
       <r>   11.2873    0.0000 </r>
       <r>   17.6523    0.0000 </r>
       <r>   19.0565    0.0000 </r>
       <r>   26.3161    0.0000 </r>
       <r>   27.4991    0.0000 </r>
       <r>   28.8183    0.0000 </r>
       <r>   29.7270    0.0000 </r>
      </set>
      <set comment="kpoint 15">
       <r>  -44.6646    1.0000 </r>
       <r>  -44.6580    1.0000 </r>
       <r>  -44.4117    1.0000 </r>
       <r>  -44.4043    1.0000 </r>
       <r>  -44.2810    1.0000 </r>
       <r>  -44.2743    1.0000 </r>
       <r>    4.7958    1.0000 </r>
       <r>    4.8573    1.0000 </r>
       <r>    6.2869    1.0000 </r>
       <r>    6.3244    1.0000 </r>
       <r>    8.3606    1.0000 </r>
       <r>    8.5985    1.0000 </r>
       <r>    8.6196    1.0000 </r>
       <r>    8.7804    1.0000 </r>
       <r>    9.2763    1.0000 </r>
       <r>    9.7025    0.2835 </r>
       <r>   10.4351    0.0000 </r>
       <r>   10.9856    0.0000 </r>
       <r>   16.9430    0.0000 </r>
       <r>   17.5291    0.0000 </r>
       <r>   27.0344    0.0000 </r>
       <r>   27.4879    0.0000 </r>
       <r>   29.0846    0.0000 </r>
       <r>   29.4296    0.0000 </r>
      </set>
      <set comment="kpoint 16">
       <r>  -44.5642    1.0000 </r>
       <r>  -44.5642    1.0000 </r>
       <r>  -44.4553    1.0000 </r>
       <r>  -44.3995    1.0000 </r>
       <r>  -44.2882    1.0000 </r>
       <r>  -44.2882    1.0000 </r>
       <r>    2.5667    1.0000 </r>
       <r>    5.4268    1.0000 </r>
       <r>    5.4268    1.0000 </r>
       <r>    7.0365    1.0000 </r>
       <r>    7.0365    1.0000 </r>
       <r>    8.0862    1.0000 </r>
       <r>    8.1863    1.0000 </r>
       <r>    8.5284    1.0000 </r>
       <r>    8.5284    1.0000 </r>
       <r>    9.4249    0.9998 </r>
       <r>    9.4249    1.1125 </r>
       <r>   17.8410    0.0000 </r>
       <r>   17.8410    0.0000 </r>
       <r>   19.2370    0.0000 </r>
       <r>   28.7875    0.0000 </r>
       <r>   28.7875    0.0000 </r>
       <r>   29.7386    0.0000 </r>
       <r>   29.7386    0.0000 </r>
      </set>
      <set comment="kpoint 17">
       <r>  -44.5844    1.0000 </r>
       <r>  -44.5344    1.0000 </r>
       <r>  -44.4509    1.0000 </r>
       <r>  -44.4172    1.0000 </r>
       <r>  -44.3154    1.0000 </r>
       <r>  -44.2877    1.0000 </r>
       <r>    3.2655    1.0000 </r>
       <r>    5.6660    1.0000 </r>
       <r>    5.7001    1.0000 </r>
       <r>    6.9039    1.0000 </r>
       <r>    6.9352    1.0000 </r>
       <r>    7.5735    1.0000 </r>
       <r>    8.3826    1.0000 </r>
       <r>    8.5852    1.0000 </r>
       <r>    8.6829    1.0000 </r>
       <r>    8.9720    1.0000 </r>
       <r>    9.5064    0.9528 </r>
       <r>   15.4700    0.0000 </r>
       <r>   18.9549    0.0000 </r>
       <r>   19.8768    0.0000 </r>
       <r>   27.5256    0.0000 </r>
       <r>   28.5415    0.0000 </r>
       <r>   29.3031    0.0000 </r>
       <r>   30.5093    0.0000 </r>
      </set>
      <set comment="kpoint 18">
       <r>  -44.5905    1.0000 </r>
       <r>  -44.5038    1.0000 </r>
       <r>  -44.4940    1.0000 </r>
       <r>  -44.3803    1.0000 </r>
       <r>  -44.3534    1.0000 </r>
       <r>  -44.2983    1.0000 </r>
       <r>    4.1487    1.0000 </r>
       <r>    5.8195    1.0000 </r>
       <r>    5.9792    1.0000 </r>
       <r>    6.7956    1.0000 </r>
       <r>    6.9297    1.0000 </r>
       <r>    7.2683    1.0000 </r>
       <r>    8.2263    1.0000 </r>
       <r>    8.5460    1.0000 </r>
       <r>    8.8084    1.0000 </r>
       <r>    9.1281    1.0000 </r>
       <r>    9.4068    0.9271 </r>
       <r>   13.1243    0.0000 </r>
       <r>   20.3546    0.0000 </r>
       <r>   21.0651    0.0000 </r>
       <r>   25.4924    0.0000 </r>
       <r>   26.4578    0.0000 </r>
       <r>   30.1155    0.0000 </r>
       <r>   31.4558    0.0000 </r>
      </set>
      <set comment="kpoint 19">
       <r>  -44.5789    1.0000 </r>
       <r>  -44.5489    1.0000 </r>
       <r>  -44.4471    1.0000 </r>
       <r>  -44.3987    1.0000 </r>
       <r>  -44.3468    1.0000 </r>
       <r>  -44.3187    1.0000 </r>
       <r>    4.9805    1.0000 </r>
       <r>    5.5625    1.0000 </r>
       <r>    6.3103    1.0000 </r>
       <r>    6.5941    1.0000 </r>
       <r>    7.0944    1.0000 </r>
       <r>    7.2051    1.0000 </r>
       <r>    8.1541    1.0000 </r>
       <r>    8.2555    1.0000 </r>
       <r>    8.9738    1.0000 </r>
       <r>    9.1935    1.0000 </r>
       <r>    9.9046   -0.0495 </r>
       <r>   11.2097    0.0000 </r>
       <r>   21.9288    0.0000 </r>
       <r>   22.5761    0.0000 </r>
       <r>   23.6375    0.0000 </r>
       <r>   24.3862    0.0000 </r>
       <r>   31.2416    0.0000 </r>
       <r>   32.1308    0.0000 </r>
      </set>
      <set comment="kpoint 20">
       <r>  -44.5950    1.0000 </r>
       <r>  -44.5255    1.0000 </r>
       <r>  -44.4987    1.0000 </r>
       <r>  -44.3806    1.0000 </r>
       <r>  -44.3300    1.0000 </r>
       <r>  -44.2899    1.0000 </r>
       <r>    3.8866    1.0000 </r>
       <r>    5.7532    1.0000 </r>
       <r>    6.0635    1.0000 </r>
       <r>    6.6991    1.0000 </r>
       <r>    6.8479    1.0000 </r>
       <r>    7.0952    1.0000 </r>
       <r>    8.4904    1.0000 </r>
       <r>    8.6478    1.0000 </r>
       <r>    8.8035    1.0000 </r>
       <r>    9.0802    1.0000 </r>
       <r>    9.4848    0.8379 </r>
       <r>   15.5501    0.0000 </r>
       <r>   17.5339    0.0000 </r>
       <r>   20.3337    0.0000 </r>
       <r>   25.5633    0.0000 </r>
       <r>   27.9317    0.0000 </r>
       <r>   30.2206    0.0000 </r>
       <r>   30.2832    0.0000 </r>
      </set>
      <set comment="kpoint 21">
       <r>  -44.6077    1.0000 </r>
       <r>  -44.5464    1.0000 </r>
       <r>  -44.4911    1.0000 </r>
       <r>  -44.3621    1.0000 </r>
       <r>  -44.3485    1.0000 </r>
       <r>  -44.2933    1.0000 </r>
       <r>    4.5907    1.0000 </r>
       <r>    5.7251    1.0000 </r>
       <r>    6.3749    1.0000 </r>
       <r>    6.5802    1.0000 </r>
       <r>    6.9012    1.0000 </r>
       <r>    6.9071    1.0000 </r>
       <r>    8.4420    1.0000 </r>
       <r>    8.5425    1.0000 </r>
       <r>    8.7771    1.0000 </r>
       <r>    9.4402    1.0000 </r>
       <r>    9.6486    0.1951 </r>
       <r>   13.7015    0.0000 </r>
       <r>   18.2678    0.0000 </r>
       <r>   21.4248    0.0000 </r>
       <r>   23.3779    0.0000 </r>
       <r>   26.4174    0.0000 </r>
       <r>   30.0193    0.0000 </r>
       <r>   30.7692    0.0000 </r>
      </set>
      <set comment="kpoint 22">
       <r>  -44.6053    1.0000 </r>
       <r>  -44.5842    1.0000 </r>
       <r>  -44.4480    1.0000 </r>
       <r>  -44.4031    1.0000 </r>
       <r>  -44.3226    1.0000 </r>
       <r>  -44.3041    1.0000 </r>
       <r>    5.1414    1.0000 </r>
       <r>    5.5050    1.0000 </r>
       <r>    6.4601    1.0000 </r>
       <r>    6.5113    1.0000 </r>
       <r>    7.0547    1.0000 </r>
       <r>    7.0696    1.0000 </r>
       <r>    8.4030    1.0000 </r>
       <r>    8.4200    1.0000 </r>
       <r>    8.9774    1.0000 </r>
       <r>    9.2447    1.0149 </r>
       <r>   10.4634   -0.0551 </r>
       <r>   11.8104    0.0000 </r>
       <r>   19.6879    0.0000 </r>
       <r>   21.4030    0.0000 </r>
       <r>   22.8374    0.0000 </r>
       <r>   24.5275    0.0000 </r>
       <r>   30.5828    0.0000 </r>
       <r>   31.0098    0.0000 </r>
      </set>
      <set comment="kpoint 23">
       <r>  -44.6257    1.0000 </r>
       <r>  -44.5880    1.0000 </r>
       <r>  -44.4687    1.0000 </r>
       <r>  -44.3805    1.0000 </r>
       <r>  -44.3232    1.0000 </r>
       <r>  -44.2915    1.0000 </r>
       <r>    4.9329    1.0000 </r>
       <r>    5.4957    1.0000 </r>
       <r>    6.4126    1.0000 </r>
       <r>    6.5889    1.0000 </r>
       <r>    6.9877    1.0000 </r>
       <r>    7.2593    1.0000 </r>
       <r>    8.5125    1.0000 </r>
       <r>    8.5867    1.0000 </r>
       <r>    8.7371    1.0000 </r>
       <r>    9.4447    1.0068 </r>
       <r>   10.2602   -0.0186 </r>
       <r>   13.5560    0.0000 </r>
       <r>   17.1446    0.0000 </r>
       <r>   21.1506    0.0000 </r>
       <r>   22.3752    0.0000 </r>
       <r>   26.5223    0.0000 </r>
       <r>   28.2801    0.0000 </r>
       <r>   30.4808    0.0000 </r>
      </set>
      <set comment="kpoint 24">
       <r>  -44.6311    1.0000 </r>
       <r>  -44.6182    1.0000 </r>
       <r>  -44.4382    1.0000 </r>
       <r>  -44.4071    1.0000 </r>
       <r>  -44.3055    1.0000 </r>
[...]
       </set>
       <set comment="band 12">
        <r>  0.0000  0.0112  0.0495  0.0139  0.1447  0.0405  0.0987  0.0326  0.0004 </r>
        <r>  0.0000  0.0112  0.0495  0.0139  0.1447  0.0405  0.0987  0.0326  0.0004 </r>
       </set>
       <set comment="band 13">
        <r>  0.0000  0.0014  0.0002  0.0005  0.0145  0.0334  0.0540  0.0916  0.2917 </r>
        <r>  0.0000  0.0014  0.0002  0.0005  0.0145  0.0334  0.0540  0.0916  0.2917 </r>
       </set>
       <set comment="band 14">
        <r>  0.0000  0.0000  0.0012  0.0009  0.0785  0.0596  0.2917  0.0014  0.0540 </r>
        <r>  0.0000  0.0000  0.0012  0.0009  0.0785  0.0596  0.2917  0.0014  0.0540 </r>
       </set>
       <set comment="band 15">
        <r>  0.0000  0.0000  0.0000  0.0000  0.0013  0.0214  0.0240  0.0129  0.4290 </r>
        <r>  0.0000  0.0000  0.0000  0.0000  0.0013  0.0214  0.0240  0.0129  0.4290 </r>
       </set>
       <set comment="band 16">
        <r>  0.0000  0.0000  0.0000  0.0000  0.0224  0.0023  0.4290  0.0108  0.0240 </r>
        <r>  0.0000  0.0000  0.0000  0.0000  0.0224  0.0023  0.4290  0.0108  0.0240 </r>
       </set>
       <set comment="band 17">
        <r>  0.0250  0.0199  0.0199  0.0199  0.1216  0.1216  0.0000  0.1216  0.0000 </r>
        <r>  0.0250  0.0199  0.0199  0.0199  0.1216  0.1216  0.0000  0.1216  0.0000 </r>
       </set>
       <set comment="band 18">
        <r>  0.0000  0.0001  0.0900  0.0843  0.0879  0.0824  0.0414  0.0001  0.0121 </r>
        <r>  0.0000  0.0001  0.0900  0.0843  0.0879  0.0824  0.0414  0.0001  0.0121 </r>
       </set>
       <set comment="band 19">
        <r>  0.0000  0.1161  0.0263  0.0319  0.0257  0.0312  0.0121  0.1135  0.0414 </r>
        <r>  0.0000  0.1161  0.0263  0.0319  0.0257  0.0312  0.0121  0.1135  0.0414 </r>
       </set>
       <set comment="band 20">
        <r>  0.2670  0.0000  0.0000  0.0000  0.0373  0.0373  0.0000  0.0373  0.0000 </r>
        <r>  0.2670  0.0000  0.0000  0.0000  0.0373  0.0373  0.0000  0.0373  0.0000 </r>
       </set>
       <set comment="band 21">
        <r>  0.0000  0.1111  0.0163  0.0448  0.0148  0.0407  0.0030  0.1011  0.0185 </r>
        <r>  0.0000  0.1111  0.0163  0.0448  0.0148  0.0407  0.0030  0.1011  0.0185 </r>
       </set>
       <set comment="band 22">
        <r>  0.0000  0.0036  0.0985  0.0700  0.0896  0.0637  0.0185  0.0033  0.0030 </r>
        <r>  0.0000  0.0036  0.0985  0.0700  0.0896  0.0637  0.0185  0.0033  0.0030 </r>
       </set>
       <set comment="band 23">
        <r>  0.2449  0.0531  0.0531  0.0531  0.0018  0.0018  0.0000  0.0018  0.0000 </r>
        <r>  0.2449  0.0531  0.0531  0.0531  0.0018  0.0018  0.0000  0.0018  0.0000 </r>
       </set>
       <set comment="band 24">
        <r>  0.0491  0.0820  0.0820  0.0820  0.0283  0.0283  0.0000  0.0283  0.0000 </r>
        <r>  0.0491  0.0820  0.0820  0.0820  0.0283  0.0283  0.0000  0.0283  0.0000 </r>
       </set>
      </set>
      <set comment="kpoint 33">
       <set comment="band 1">
        <r>  0.0000  0.1308  0.1308  0.2343  0.0000  0.0000  0.0000  0.0000  0.0000 </r>
        <r>  0.0000  0.1308  0.1308  0.2343  0.0000  0.0000  0.0000  0.0000  0.0000 </r>
       </set>
       <set comment="band 2">
        <r>  0.0000  0.1039  0.1039  0.2884  0.0000  0.0001  0.0000  0.0000  0.0000 </r>
        <r>  0.0000  0.1039  0.1039  0.2884  0.0000  0.0001  0.0000  0.0000  0.0000 </r>
       </set>
       <set comment="band 3">
        <r>  0.0000  0.2486  0.2486  0.0000  0.0001  0.0000  0.0000  0.0001  0.0000 </r>
        <r>  0.0000  0.2486  0.2486  0.0000  0.0001  0.0000  0.0000  0.0001  0.0000 </r>
       </set>
       <set comment="band 4">
        <r>  0.0000  0.2489  0.2489  0.0000  0.0001  0.0000  0.0000  0.0001  0.0000 </r>
        <r>  0.0000  0.2489  0.2489  0.0000  0.0001  0.0000  0.0000  0.0001  0.0000 </r>
       </set>
       <set comment="band 5">
        <r>  0.0000  0.1178  0.1178  0.2630  0.0000  0.0001  0.0000  0.0000  0.0000 </r>
        <r>  0.0000  0.1178  0.1178  0.2630  0.0000  0.0001  0.0000  0.0000  0.0000 </r>
       </set>
       <set comment="band 6">
        <r>  0.0000  0.1450  0.1450  0.2088  0.0000  0.0000  0.0000  0.0000  0.0000 </r>
        <r>  0.0000  0.1450  0.1450  0.2088  0.0000  0.0000  0.0000  0.0000  0.0000 </r>
       </set>
       <set comment="band 7">
        <r>  0.0459  0.0252  0.0252  0.0113  0.1269  0.0025  0.0032  0.1269  0.0096 </r>
        <r>  0.0459  0.0252  0.0252  0.0113  0.1269  0.0025  0.0032  0.1269  0.0096 </r>
       </set>
       <set comment="band 8">
        <r>  0.0268  0.0108  0.0108  0.0011  0.1525  0.0490  0.0030  0.1525  0.0089 </r>
        <r>  0.0268  0.0108  0.0108  0.0011  0.1525  0.0490  0.0030  0.1525  0.0089 </r>
       </set>
       <set comment="band 9">
        <r>  0.0000  0.0194  0.0194  0.0000  0.1695  0.0000  0.0317  0.1695  0.0106 </r>
        <r>  0.0000  0.0194  0.0194  0.0000  0.1695  0.0000  0.0317  0.1695  0.0106 </r>
       </set>
       <set comment="band 10">
        <r>  0.0000  0.0280  0.0280  0.0000  0.1425  0.0000  0.0486  0.1425  0.0162 </r>
        <r>  0.0000  0.0280  0.0280  0.0000  0.1425  0.0000  0.0486  0.1425  0.0162 </r>
       </set>
       <set comment="band 11">
        <r>  0.0064  0.0025  0.0025  0.0523  0.0082  0.3292  0.0001  0.0082  0.0002 </r>
        <r>  0.0064  0.0025  0.0025  0.0523  0.0082  0.3292  0.0001  0.0082  0.0002 </r>
       </set>
       <set comment="band 12">
        <r>  0.0019  0.0092  0.0092  0.0634  0.0021  0.2760  0.0073  0.0021  0.0219 </r>
        <r>  0.0019  0.0092  0.0092  0.0634  0.0021  0.2760  0.0073  0.0021  0.0219 </r>
       </set>
       <set comment="band 13">
        <r>  0.0000  0.0003  0.0003  0.0000  0.0451  0.0000  0.2976  0.0451  0.0992 </r>
        <r>  0.0000  0.0003  0.0003  0.0000  0.0451  0.0000  0.2976  0.0451  0.0992 </r>
       </set>
       <set comment="band 14">
        <r>  0.0000  0.0001  0.0001  0.0000  0.0288  0.0000  0.3228  0.0288  0.1076 </r>
        <r>  0.0000  0.0001  0.0001  0.0000  0.0288  0.0000  0.3228  0.0288  0.1076 </r>
       </set>
       <set comment="band 15">
        <r>  0.0005  0.0001  0.0001  0.0006  0.0171  0.0290  0.1064  0.0171  0.3191 </r>
        <r>  0.0005  0.0001  0.0001  0.0006  0.0171  0.0290  0.1064  0.0171  0.3191 </r>
       </set>
       <set comment="band 16">
        <r>  0.0004  0.0000  0.0000  0.0001  0.0103  0.0000  0.1173  0.0103  0.3520 </r>
        <r>  0.0004  0.0000  0.0000  0.0001  0.0103  0.0000  0.1173  0.0103  0.3520 </r>
       </set>
       <set comment="band 17">
        <r>  0.0297  0.0216  0.0216  0.0426  0.0915  0.1260  0.0015  0.0915  0.0044 </r>
        <r>  0.0297  0.0216  0.0216  0.0426  0.0915  0.1260  0.0015  0.0915  0.0044 </r>
       </set>
       <set comment="band 18">
        <r>  0.0209  0.0248  0.0248  0.0799  0.0612  0.1103  0.0066  0.0612  0.0199 </r>
        <r>  0.0209  0.0248  0.0248  0.0799  0.0612  0.1103  0.0066  0.0612  0.0199 </r>
       </set>
       <set comment="band 19">
        <r>  0.0000  0.0895  0.0895  0.0000  0.0849  0.0000  0.0286  0.0849  0.0095 </r>
        <r>  0.0000  0.0895  0.0895  0.0000  0.0849  0.0000  0.0286  0.0849  0.0095 </r>
       </set>
       <set comment="band 20">
        <r>  0.2318  0.0017  0.0017  0.0347  0.0265  0.0509  0.0000  0.0265  0.0001 </r>
        <r>  0.2318  0.0017  0.0017  0.0347  0.0265  0.0509  0.0000  0.0265  0.0001 </r>
       </set>
       <set comment="band 21">
        <r>  0.0000  0.0892  0.0892  0.0000  0.0826  0.0000  0.0211  0.0826  0.0070 </r>
        <r>  0.0000  0.0892  0.0892  0.0000  0.0826  0.0000  0.0211  0.0826  0.0070 </r>
       </set>
       <set comment="band 22">
        <r>  0.1595  0.0006  0.0006  0.1012  0.0256  0.0525  0.0005  0.0256  0.0016 </r>
        <r>  0.1595  0.0006  0.0006  0.1012  0.0256  0.0525  0.0005  0.0256  0.0016 </r>
       </set>
       <set comment="band 23">
        <r>  0.1183  0.0857  0.0857  0.0169  0.0121  0.0430  0.0011  0.0121  0.0032 </r>
        <r>  0.1183  0.0857  0.0857  0.0169  0.0121  0.0430  0.0011  0.0121  0.0032 </r>
       </set>
       <set comment="band 24">
        <r>  0.0731  0.0849  0.0849  0.0488  0.0226  0.0369  0.0002  0.0226  0.0007 </r>
        <r>  0.0731  0.0849  0.0849  0.0488  0.0226  0.0369  0.0002  0.0226  0.0007 </r>
       </set>
      </set>
      <set comment="kpoint 34">
       <set comment="band 1">
        <r>  0.0000  0.2222  0.0517  0.2222  0.0000  0.0001  0.0000  0.0001  0.0000 </r>
        <r>  0.0000  0.2222  0.0517  0.2222  0.0000  0.0001  0.0000  0.0001  0.0000 </r>
       </set>
       <set comment="band 2">
        <r>  0.0000  0.2481  0.0000  0.2481  0.0000  0.0001  0.0000  0.0001  0.0000 </r>
        <r>  0.0000  0.2481  0.0000  0.2481  0.0000  0.0001  0.0000  0.0001  0.0000 </r>
       </set>
       <set comment="band 3">
        <r>  0.0000  0.0374  0.4226  0.0374  0.0001  0.0000  0.0000  0.0000  0.0000 </r>
        <r>  0.0000  0.0374  0.4226  0.0374  0.0001  0.0000  0.0000  0.0000  0.0000 </r>
       </set>
       <set comment="band 4">
        <r>  0.0000  0.0259  0.4458  0.0259  0.0001  0.0000  0.0000  0.0000  0.0000 </r>
        <r>  0.0000  0.0259  0.4458  0.0259  0.0001  0.0000  0.0000  0.0000  0.0000 </r>
       </set>
       <set comment="band 5">
        <r>  0.0000  0.2491  0.0000  0.2491  0.0000  0.0001  0.0000  0.0001  0.0000 </r>
        <r>  0.0000  0.2491  0.0000  0.2491  0.0000  0.0001  0.0000  0.0001  0.0000 </r>
       </set>
       <set comment="band 6">
        <r>  0.0000  0.2118  0.0749  0.2118  0.0000  0.0000  0.0000  0.0000  0.0000 </r>
        <r>  0.0000  0.2118  0.0749  0.2118  0.0000  0.0000  0.0000  0.0000  0.0000 </r>
       </set>
       <set comment="band 7">
        <r>  0.0191  0.0005  0.0314  0.0005  0.2658  0.0362  0.0218  0.0362  0.0000 </r>
        <r>  0.0191  0.0005  0.0314  0.0005  0.2658  0.0362  0.0218  0.0362  0.0000 </r>
       </set>
       <set comment="band 8">
        <r>  0.0234  0.0027  0.0441  0.0027  0.2943  0.0011  0.0273  0.0011  0.0000 </r>
        <r>  0.0234  0.0027  0.0441  0.0027  0.2943  0.0011  0.0273  0.0011  0.0000 </r>
       </set>
       <set comment="band 9">
        <r>  0.0000  0.0139  0.0000  0.0139  0.0000  0.2001  0.0000  0.2001  0.0032 </r>
        <r>  0.0000  0.0139  0.0000  0.0139  0.0000  0.2001  0.0000  0.2001  0.0032 </r>
       </set>
       <set comment="band 10">
        <r>  0.0001  0.0137  0.0131  0.0137  0.0406  0.1615  0.0168  0.1615  0.0000 </r>
        <r>  0.0001  0.0137  0.0131  0.0137  0.0406  0.1615  0.0168  0.1615  0.0000 </r>
       </set>
       <set comment="band 11">
        <r>  0.0048  0.0441  0.0000  0.0441  0.0144  0.1385  0.0039  0.1385  0.0000 </r>
        <r>  0.0048  0.0441  0.0000  0.0441  0.0144  0.1385  0.0039  0.1385  0.0000 </r>
       </set>
       <set comment="band 12">
        <r>  0.0000  0.0468  0.0000  0.0468  0.0000  0.1399  0.0000  0.1399  0.0134 </r>
        <r>  0.0000  0.0468  0.0000  0.0468  0.0000  0.1399  0.0000  0.1399  0.0134 </r>
       </set>
       <set comment="band 13">
        <r>  0.0003  0.0000  0.0002  0.0000  0.0502  0.0026  0.4336  0.0026  0.0000 </r>
        <r>  0.0003  0.0000  0.0002  0.0000  0.0502  0.0026  0.4336  0.0026  0.0000 </r>
       </set>
       <set comment="band 14">
        <r>  0.0002  0.0000  0.0001  0.0000  0.0427  0.0008  0.4450  0.0008  0.0000 </r>
        <r>  0.0002  0.0000  0.0001  0.0000  0.0427  0.0008  0.4450  0.0008  0.0000 </r>
       </set>
       <set comment="band 15">
        <r>  0.0000  0.0001  0.0000  0.0001  0.0000  0.0101  0.0000  0.0101  0.4705 </r>
        <r>  0.0000  0.0001  0.0000  0.0001  0.0000  0.0101  0.0000  0.0101  0.4705 </r>
       </set>
       <set comment="band 16">
        <r>  0.0000  0.0000  0.0000  0.0000  0.0000  0.0022  0.0000  0.0022  0.4866 </r>
        <r>  0.0000  0.0000  0.0000  0.0000  0.0000  0.0022  0.0000  0.0022  0.4866 </r>
       </set>
       <set comment="band 17">
        <r>  0.0247  0.0518  0.0134  0.0518  0.0493  0.1095  0.0012  0.1095  0.0000 </r>
        <r>  0.0247  0.0518  0.0134  0.0518  0.0493  0.1095  0.0012  0.1095  0.0000 </r>
       </set>
       <set comment="band 18">
        <r>  0.0000  0.0794  0.0000  0.0794  0.0000  0.1149  0.0000  0.1149  0.0083 </r>
        <r>  0.0000  0.0794  0.0000  0.0794  0.0000  0.1149  0.0000  0.1149  0.0083 </r>
       </set>
       <set comment="band 19">
        <r>  0.0989  0.0059  0.0801  0.0059  0.1796  0.0017  0.0206  0.0017  0.0000 </r>
        <r>  0.0989  0.0059  0.0801  0.0059  0.1796  0.0017  0.0206  0.0017  0.0000 </r>
       </set>
       <set comment="band 20">
        <r>  0.0890  0.0268  0.0583  0.0268  0.1385  0.0142  0.0157  0.0142  0.0000 </r>
        <r>  0.0890  0.0268  0.0583  0.0268  0.1385  0.0142  0.0157  0.0142  0.0000 </r>
       </set>
       <set comment="band 21">
        <r>  0.1380  0.0378  0.0330  0.0378  0.0002  0.0587  0.0033  0.0587  0.0000 </r>
        <r>  0.1380  0.0378  0.0330  0.0378  0.0002  0.0587  0.0033  0.0587  0.0000 </r>
       </set>
       <set comment="band 22">
        <r>  0.0000  0.0873  0.0000  0.0873  0.0000  0.0867  0.0000  0.0867  0.0026 </r>
        <r>  0.0000  0.0873  0.0000  0.0873  0.0000  0.0867  0.0000  0.0867  0.0026 </r>
       </set>
       <set comment="band 23">
        <r>  0.2257  0.0023  0.1334  0.0023  0.0181  0.0013  0.0046  0.0013  0.0000 </r>
        <r>  0.2257  0.0023  0.1334  0.0023  0.0181  0.0013  0.0046  0.0013  0.0000 </r>
       </set>
       <set comment="band 24">
        <r>  0.1097  0.0461  0.0933  0.0461  0.0206  0.0284  0.0014  0.0284  0.0000 </r>
        <r>  0.1097  0.0461  0.0933  0.0461  0.0206  0.0284  0.0014  0.0284  0.0000 </r>
       </set>
      </set>
      <set comment="kpoint 35">
       <set comment="band 1">
        <r>  0.0000  0.1655  0.1655  0.1655  0.0000  0.0000  0.0000  0.0000  0.0000 </r>
        <r>  0.0000  0.1655  0.1655  0.1655  0.0000  0.0000  0.0000  0.0000  0.0000 </r>
       </set>
       <set comment="band 2">
        <r>  0.0000  0.0470  0.2813  0.1686  0.0001  0.0001  0.0000  0.0000  0.0000 </r>
        <r>  0.0000  0.0470  0.2813  0.1686  0.0001  0.0001  0.0000  0.0000  0.0000 </r>
       </set>
       <set comment="band 3">
        <r>  0.0000  0.2843  0.0500  0.1627  0.0000  0.0001  0.0000  0.0001  0.0000 </r>
        <r>  0.0000  0.2843  0.0500  0.1627  0.0000  0.0001  0.0000  0.0001  0.0000 </r>
       </set>
       <set comment="band 4">
        <r>  0.0000  0.1697  0.0917  0.2362  0.0000  0.0001  0.0000  0.0001  0.0000 </r>
        <r>  0.0000  0.1697  0.0917  0.2362  0.0000  0.0001  0.0000  0.0001  0.0000 </r>
       </set>
       <set comment="band 5">
        <r>  0.0000  0.1621  0.2400  0.0955  0.0001  0.0000  0.0000  0.0001  0.0000 </r>
        <r>  0.0000  0.1621  0.2400  0.0955  0.0001  0.0000  0.0000  0.0001  0.0000 </r>
       </set>
       <set comment="band 6">
        <r>  0.0000  0.1660  0.1660  0.1660  0.0000  0.0000  0.0000  0.0000  0.0000 </r>
        <r>  0.0000  0.1660  0.1660  0.1660  0.0000  0.0000  0.0000  0.0000  0.0000 </r>
       </set>
       <set comment="band 7">
        <r>  0.0055  0.0117  0.0117  0.0117  0.1269  0.1269  0.0000  0.1269  0.0000 </r>
        <r>  0.0055  0.0117  0.0117  0.0117  0.1269  0.1269  0.0000  0.1269  0.0000 </r>
       </set>
       <set comment="band 8">
        <r>  0.0000  0.0164  0.0120  0.0172  0.0967  0.1383  0.0021  0.1320  0.0031 </r>
        <r>  0.0000  0.0164  0.0120  0.0172  0.0967  0.1383  0.0021  0.1320  0.0031 </r>
       </set>
       <set comment="band 9">
        <r>  0.0000  0.0140  0.0184  0.0132  0.1480  0.1064  0.0031  0.1126  0.0021 </r>
        <r>  0.0000  0.0140  0.0184  0.0132  0.1480  0.1064  0.0031  0.1126  0.0021 </r>
       </set>
       <set comment="band 10">
        <r>  0.0089  0.0261  0.0261  0.0261  0.1011  0.1011  0.0000  0.1011  0.0000 </r>
        <r>  0.0089  0.0261  0.0261  0.0261  0.1011  0.1011  0.0000  0.1011  0.0000 </r>
       </set>
       <set comment="band 11">
        <r>  0.0000  0.0124  0.0441  0.0109  0.2143  0.0530  0.0080  0.0602  0.0002 </r>
        <r>  0.0000  0.0124  0.0441  0.0109  0.2143  0.0530  0.0080  0.0602  0.0002 </r>
       </set>
       <set comment="band 12">
        <r>  0.0000  0.0325  0.0008  0.0340  0.0040  0.1653  0.0002  0.1582  0.0080 </r>
        <r>  0.0000  0.0325  0.0008  0.0340  0.0040  0.1653  0.0002  0.1582  0.0080 </r>
       </set>
       <set comment="band 13">
        <r>  0.0000  0.0000  0.0000  0.0000  0.0067  0.0003  0.4064  0.0049  0.0728 </r>
        <r>  0.0000  0.0000  0.0000  0.0000  0.0067  0.0003  0.4064  0.0049  0.0728 </r>
       </set>
       <set comment="band 14">
        <r>  0.0000  0.0000  0.0000  0.0000  0.0012  0.0076  0.0728  0.0031  0.4064 </r>
        <r>  0.0000  0.0000  0.0000  0.0000  0.0012  0.0076  0.0728  0.0031  0.4064 </r>
       </set>
       <set comment="band 15">
        <r>  0.0000  0.0000  0.0000  0.0000  0.0019  0.0020  0.1913  0.0034  0.2926 </r>
        <r>  0.0000  0.0000  0.0000  0.0000  0.0019  0.0020  0.1913  0.0034  0.2926 </r>
       </set>
       <set comment="band 16">
        <r>  0.0000  0.0000  0.0000  0.0000  0.0030  0.0029  0.2926  0.0015  0.1913 </r>
        <r>  0.0000  0.0000  0.0000  0.0000  0.0030  0.0029  0.2926  0.0015  0.1913 </r>
       </set>
       <set comment="band 17">
        <r>  0.0277  0.0451  0.0451  0.0451  0.0781  0.0781  0.0000  0.0781  0.0000 </r>
        <r>  0.0277  0.0451  0.0451  0.0451  0.0781  0.0781  0.0000  0.0781  0.0000 </r>
       </set>
       <set comment="band 18">
        <r>  0.0000  0.0453  0.1117  0.0147  0.1355  0.0179  0.0051  0.0550  0.0001 </r>
        <r>  0.0000  0.0453  0.1117  0.0147  0.1355  0.0179  0.0051  0.0550  0.0001 </r>
       </set>
       <set comment="band 19">
        <r>  0.0000  0.0692  0.0028  0.0998  0.0034  0.1210  0.0001  0.0839  0.0051 </r>
        <r>  0.0000  0.0692  0.0028  0.0998  0.0034  0.1210  0.0001  0.0839  0.0051 </r>
       </set>
       <set comment="band 20">
        <r>  0.1929  0.0188  0.0188  0.0188  0.0421  0.0421  0.0000  0.0421  0.0000 </r>
        <r>  0.1929  0.0188  0.0188  0.0188  0.0421  0.0421  0.0000  0.0421  0.0000 </r>
       </set>
       <set comment="band 21">
        <r>  0.0000  0.0075  0.0742  0.0950  0.0802  0.1028  0.0022  0.0082  0.0013 </r>
        <r>  0.0000  0.0075  0.0742  0.0950  0.0802  0.1028  0.0022  0.0082  0.0013 </r>
       </set>
       <set comment="band 22">
        <r>  0.0000  0.1103  0.0437  0.0228  0.0472  0.0247  0.0013  0.1193  0.0022 </r>
        <r>  0.0000  0.1103  0.0437  0.0228  0.0472  0.0247  0.0013  0.1193  0.0022 </r>
       </set>
       <set comment="band 23">
        <r>  0.3402  0.0133  0.0133  0.0133  0.0007  0.0007  0.0000  0.0007  0.0000 </r>
        <r>  0.3402  0.0133  0.0133  0.0133  0.0007  0.0007  0.0000  0.0007  0.0000 </r>
       </set>
       <set comment="band 24">
        <r>  0.1777  0.0432  0.0432  0.0432  0.0226  0.0226  0.0000  0.0226  0.0000 </r>
        <r>  0.1777  0.0432  0.0432  0.0432  0.0226  0.0226  0.0000  0.0226  0.0000 </r>
       </set>
      </set>
     </set>
    </set>
   </array>
  </projected>
 </calculation>
 <structure name="finalpos" >
  <crystal>
   <varray name="basis" >
    <v>       2.84005200       0.00000000       0.00000000 </v>
    <v>       0.00000000       2.84005200       0.00000000 </v>
    <v>       0.00000000       0.00000000       2.84005200 </v>
   </varray>
   <i name="volume">     22.90756226 </i>
   <varray name="rec_basis" >
    <v>       0.35210623       0.00000000       0.00000000 </v>
    <v>       0.00000000       0.35210623       0.00000000 </v>
    <v>       0.00000000       0.00000000       0.35210623 </v>
   </varray>
  </crystal>
  <varray name="positions" >
   <v>       0.00000000       0.00000000       0.00000000 </v>
   <v>       0.50000000       0.50000000       0.50000000 </v>
  </varray>
 </structure>
</modeling>
