 vasp.5.4.4.18Apr17-6-g9f103f2a35 (build Apr 28 2018 00:24:27) complex          
  
 executed on             LinuxIFC date 2021.09.07  01:09:25
 running on   24 total cores
 distrk:  each k-point on   24 cores,    1 groups
 distr:  one band on NCORES_PER_BAND=   4 cores,    6 groups


--------------------------------------------------------------------------------------------------------


 INCAR:
 POTCAR:    PAW_PBE Fe_pv 02Aug2007               
 POTCAR:    PAW_PBE Fe_pv 02Aug2007               
   VRHFIN =Fe:  3pd7s1                                                          
   LEXCH  = PE                                                                  
   EATOM  =  2457.4239 eV,  180.6156 Ry                                         
                                                                                
   TITEL  = PAW_PBE Fe_pv 02Aug2007                                             
   LULTRA =        F    use ultrasoft PP ?                                      
   IUNSCR =        1    unscreen: 0-lin 1-nonlin 2-no                           
   RPACOR =    1.750    partial core radius                                     
   POMASS =   55.847; ZVAL   =   14.000    mass and valenz                      
   RCORE  =    2.200    outmost cutoff radius                                   
   RWIGS  =    2.200; RWIGS  =    1.164    wigner-seitz radius (au A)           
   ENMAX  =  293.238; ENMIN  =  219.928 eV                                      
   ICORE  =        3    local potential                                         
   LCOR   =        T    correct aug charges                                     
   LPAW   =        T    paw PP                                                  
   EAUG   =  578.342                                                            
   DEXC   =    0.000                                                            
   RMAX   =    2.249    core radius for proj-oper                               
   RAUG   =    1.300    factor for augmentation sphere                          
   RDEP   =    2.296    radius for radial grids                                 
   RDEPT  =    1.766    core radius for aug-charge                              
                                                                                
   Atomic configuration                                                         
    8 entries                                                                   
     n  l   j            E        occ.                                          
     1  0  0.50     -6993.8440   2.0000                                         
     2  0  0.50      -814.6047   2.0000                                         
     2  1  1.50      -693.3689   6.0000                                         
     3  0  0.50       -89.4732   2.0000                                         
     3  1  1.50       -55.6373   6.0000                                         
     3  2  2.50        -3.8151   7.0000                                         
     4  0  0.50        -4.2551   1.0000                                         
     4  3  2.50        -1.3606   0.0000                                         
   Description                                                                  
     l       E           TYP  RCUT    TYP  RCUT                                 
     1    -55.6372668     23  2.000                                             
     1     -5.4423304     23  2.000                                             
     2     -3.8151096     23  2.200                                             
     2     -5.1756922     23  2.200                                             
     0     -4.2550951     23  2.200                                             
     0     27.2116520     23  2.200                                             
     3     -1.3605826     23  2.200                                             
  local pseudopotential read in
  partial core-charges read in
  partial kinetic energy density read in
  atomic valenz-charges read in
  non local Contribution for L=           1  read in
    real space projection operators read in
  non local Contribution for L=           1  read in
    real space projection operators read in
  non local Contribution for L=           2  read in
    real space projection operators read in
  non local Contribution for L=           2  read in
    real space projection operators read in
  non local Contribution for L=           0  read in
    real space projection operators read in
  non local Contribution for L=           0  read in
    real space projection operators read in
    PAW grid and wavefunctions read in
 
   number of l-projection  operators is LMAX  =           6
   number of lm-projection operators is LMMAX =          18
 

 ----------------------------------------------------------------------------- 
|                                                                             |
|  ADVICE TO THIS USER RUNNING 'VASP/VAMP'   (HEAR YOUR MASTER'S VOICE ...):  |
|                                                                             |
|      You have a (more or less) 'small supercell' and for smaller cells      |
|      it is recommended  to use the reciprocal-space projection scheme!      |
|      The real space optimization is not  efficient for small cells and it   |
|      is also less accurate ...                                              |
|      Therefore set LREAL=.FALSE. in the  INCAR file                         |
|                                                                             |
 ----------------------------------------------------------------------------- 

 Optimization of the real space projectors (new method)

 maximal supplied QI-value         = 17.01
 optimisation between [QCUT,QGAM] = [ 13.44, 27.04] = [ 50.55,204.78] Ry 
 Optimized for a Real-space Cutoff    1.36 Angstroem

   l    n(q)    QCUT    max X(q) W(low)/X(q) W(high)/X(q)  e(spline) 
   1     11    13.436     4.267    0.15E-03    0.98E-04    0.32E-06
   1     11    13.436     5.750    0.22E-03    0.15E-03    0.50E-06
   2     10    13.436    53.656    0.36E-04    0.52E-04    0.14E-06
   2     10    13.436    49.521    0.37E-04    0.53E-04    0.15E-06
   0     11    13.436    31.246    0.44E-04    0.11E-04    0.96E-07
   0     11    13.436    12.201    0.29E-04    0.93E-05    0.79E-07
  PAW_PBE Fe_pv 02Aug2007               :
 energy of atom  1       EATOM=-2457.4239
 kinetic energy error for atom=    0.0025 (will be added to EATOM!!)
 
 
 POSCAR: Fe2                                     
  positions in direct lattice
  No initial velocities read in
 exchange correlation table for  LEXCH =        8
   RHO(1)=    0.500       N(1)  =     2000
   RHO(2)=  100.500       N(2)  =     4000
 


--------------------------------------------------------------------------------------------------------


 ion  position               nearest neighbor table
   1  0.000  0.000  0.000-   2 2.46   2 2.46   2 2.46   2 2.46   2 2.46   2 2.46   2 2.46   2 2.46

   2  0.500  0.500  0.500-   1 2.46   1 2.46   1 2.46   1 2.46   1 2.46   1 2.46   1 2.46   1 2.46

 
  LATTYP: Found a simple cubic cell.
 ALAT       =     2.8400520000
  
  Lattice vectors:
  
 A1 = (   2.8400520000,   0.0000000000,   0.0000000000)
 A2 = (   0.0000000000,   2.8400520000,   0.0000000000)
 A3 = (   0.0000000000,   0.0000000000,   2.8400520000)


Analysis of symmetry for initial positions (statically):
=====================================================================
 Subroutine PRICEL returns following result:
 
  LATTYP: Found a body centered cubic cell.
 ALAT       =     2.8400520000
  
  Lattice vectors:
  
 A1 = (   1.4200260000,   1.4200260000,   1.4200260000)
 A2 = (   1.4200260000,  -1.4200260000,  -1.4200260000)
 A3 = (  -1.4200260000,   1.4200260000,  -1.4200260000)
 
   2 primitive cells build up your supercell.
 

 Routine SETGRP: Setting up the symmetry group for a 
 simple cubic supercell.


 Subroutine GETGRP returns: Found 48 space group operations
 (whereof 48 operations were pure point group operations)
 out of a pool of 48 trial point group operations.


The static configuration has the point symmetry O_h .


Analysis of symmetry for dynamics (positions and initial velocities):
=====================================================================
 Subroutine PRICEL returns following result:
 
  LATTYP: Found a body centered cubic cell.
 ALAT       =     2.8400520000
  
  Lattice vectors:
  
 A1 = (   1.4200260000,   1.4200260000,   1.4200260000)
 A2 = (   1.4200260000,  -1.4200260000,  -1.4200260000)
 A3 = (  -1.4200260000,   1.4200260000,  -1.4200260000)
 
   2 primitive cells build up your supercell.
 

 Routine SETGRP: Setting up the symmetry group for a 
 simple cubic supercell.


 Subroutine GETGRP returns: Found 48 space group operations
 (whereof 48 operations were pure point group operations)
 out of a pool of 48 trial point group operations.


The dynamic configuration has the point symmetry O_h .


Analysis of structural, dynamic, and magnetic symmetry:
=====================================================================
 Subroutine PRICEL returns following result:
 
  LATTYP: Found a body centered cubic cell.
 ALAT       =     2.8400520000
  
  Lattice vectors:
  
 A1 = (   1.4200260000,   1.4200260000,   1.4200260000)
 A2 = (   1.4200260000,  -1.4200260000,  -1.4200260000)
 A3 = (  -1.4200260000,   1.4200260000,  -1.4200260000)
 
   2 primitive cells build up your supercell.
 

 Routine SETGRP: Setting up the symmetry group for a 
 simple cubic supercell.


 Subroutine GETGRP returns: Found 48 space group operations
 (whereof 48 operations were pure point group operations)
 out of a pool of 48 trial point group operations.


The magnetic configuration has the point symmetry O_h .


 Subroutine INISYM returns: Found 48 space group operations
 (whereof 48 operations are pure point group operations),
 and found     2 'primitive' translations

 
 
 KPOINTS: pymatgen with grid density = 2166 / numb

Automatic generation of k-mesh.
Space group operators:
 irot       det(A)        alpha          n_x          n_y          n_z        tau_x        tau_y        tau_z
    1     1.000000     0.000000     1.000000     0.000000     0.000000     0.000000     0.000000     0.000000
    2    -1.000000     0.000000     1.000000     0.000000     0.000000     0.000000     0.000000     0.000000
    3     1.000000   120.000000    -0.577350    -0.577350    -0.577350     0.000000     0.000000     0.000000
    4    -1.000000   120.000000    -0.577350    -0.577350    -0.577350     0.000000     0.000000     0.000000
    5     1.000000   120.000000     0.577350     0.577350     0.577350     0.000000     0.000000     0.000000
    6    -1.000000   120.000000     0.577350     0.577350     0.577350     0.000000     0.000000     0.000000
    7     1.000000    90.000000     0.000000     0.000000    -1.000000     0.000000     0.000000     0.000000
    8    -1.000000    90.000000     0.000000     0.000000    -1.000000     0.000000     0.000000     0.000000
    9     1.000000   180.000000     0.000000     0.707107     0.707107     0.000000     0.000000     0.000000
   10    -1.000000   180.000000     0.000000     0.707107     0.707107     0.000000     0.000000     0.000000
   11     1.000000    90.000000     0.000000     1.000000     0.000000     0.000000     0.000000     0.000000
   12    -1.000000    90.000000     0.000000     1.000000     0.000000     0.000000     0.000000     0.000000
   13     1.000000   180.000000     0.000000     0.000000     1.000000     0.000000     0.000000     0.000000
   14    -1.000000   180.000000     0.000000     0.000000     1.000000     0.000000     0.000000     0.000000
   15     1.000000   120.000000    -0.577350     0.577350     0.577350     0.000000     0.000000     0.000000
   16    -1.000000   120.000000    -0.577350     0.577350     0.577350     0.000000     0.000000     0.000000
   17     1.000000   120.000000    -0.577350     0.577350    -0.577350     0.000000     0.000000     0.000000
   18    -1.000000   120.000000    -0.577350     0.577350    -0.577350     0.000000     0.000000     0.000000
   19     1.000000    90.000000     0.000000     0.000000     1.000000     0.000000     0.000000     0.000000
   20    -1.000000    90.000000     0.000000     0.000000     1.000000     0.000000     0.000000     0.000000
   21     1.000000    90.000000    -1.000000     0.000000     0.000000     0.000000     0.000000     0.000000
   22    -1.000000    90.000000    -1.000000     0.000000     0.000000     0.000000     0.000000     0.000000
   23     1.000000   180.000000     0.707107     0.000000     0.707107     0.000000     0.000000     0.000000
   24    -1.000000   180.000000     0.707107     0.000000     0.707107     0.000000     0.000000     0.000000
   25     1.000000   120.000000     0.577350    -0.577350     0.577350     0.000000     0.000000     0.000000
   26    -1.000000   120.000000     0.577350    -0.577350     0.577350     0.000000     0.000000     0.000000
   27     1.000000   120.000000    -0.577350    -0.577350     0.577350     0.000000     0.000000     0.000000
   28    -1.000000   120.000000    -0.577350    -0.577350     0.577350     0.000000     0.000000     0.000000
   29     1.000000   180.000000     1.000000     0.000000     0.000000     0.000000     0.000000     0.000000
   30    -1.000000   180.000000     1.000000     0.000000     0.000000     0.000000     0.000000     0.000000
   31     1.000000    90.000000     0.000000    -1.000000     0.000000     0.000000     0.000000     0.000000
   32    -1.000000    90.000000     0.000000    -1.000000     0.000000     0.000000     0.000000     0.000000
   33     1.000000   180.000000     0.707107     0.707107     0.000000     0.000000     0.000000     0.000000
   34    -1.000000   180.000000     0.707107     0.707107     0.000000     0.000000     0.000000     0.000000
   35     1.000000    90.000000     1.000000     0.000000     0.000000     0.000000     0.000000     0.000000
   36    -1.000000    90.000000     1.000000     0.000000     0.000000     0.000000     0.000000     0.000000
   37     1.000000   120.000000     0.577350    -0.577350    -0.577350     0.000000     0.000000     0.000000
   38    -1.000000   120.000000     0.577350    -0.577350    -0.577350     0.000000     0.000000     0.000000
   39     1.000000   180.000000     0.000000     1.000000     0.000000     0.000000     0.000000     0.000000
   40    -1.000000   180.000000     0.000000     1.000000     0.000000     0.000000     0.000000     0.000000
   41     1.000000   120.000000     0.577350     0.577350    -0.577350     0.000000     0.000000     0.000000
   42    -1.000000   120.000000     0.577350     0.577350    -0.577350     0.000000     0.000000     0.000000
   43     1.000000   180.000000     0.000000    -0.707107     0.707107     0.000000     0.000000     0.000000
   44    -1.000000   180.000000     0.000000    -0.707107     0.707107     0.000000     0.000000     0.000000
   45     1.000000   180.000000     0.707107    -0.707107     0.000000     0.000000     0.000000     0.000000
   46    -1.000000   180.000000     0.707107    -0.707107     0.000000     0.000000     0.000000     0.000000
   47     1.000000   180.000000     0.707107     0.000000    -0.707107     0.000000     0.000000     0.000000
   48    -1.000000   180.000000     0.707107     0.000000    -0.707107     0.000000     0.000000     0.000000
 
 Subroutine IBZKPT returns following result:
 ===========================================
 
 Found     35 irreducible k-points:
 
 Following reciprocal coordinates:
            Coordinates               Weight
  0.050000  0.050000  0.050000      8.000000
  0.150000  0.050000  0.050000     24.000000
  0.250000  0.050000  0.050000     24.000000
  0.350000  0.050000  0.050000     24.000000
  0.450000  0.050000  0.050000     24.000000
  0.150000  0.150000  0.050000     24.000000
  0.250000  0.150000  0.050000     48.000000
  0.350000  0.150000  0.050000     48.000000
  0.450000  0.150000  0.050000     48.000000
  0.250000  0.250000  0.050000     24.000000
  0.350000  0.250000  0.050000     48.000000
  0.450000  0.250000  0.050000     48.000000
  0.350000  0.350000  0.050000     24.000000
  0.450000  0.350000  0.050000     48.000000
  0.450000  0.450000  0.050000     24.000000
  0.150000  0.150000  0.150000      8.000000
  0.250000  0.150000  0.150000     24.000000
  0.350000  0.150000  0.150000     24.000000
  0.450000  0.150000  0.150000     24.000000
  0.250000  0.250000  0.150000     24.000000
  0.350000  0.250000  0.150000     48.000000
  0.450000  0.250000  0.150000     48.000000
  0.350000  0.350000  0.150000     24.000000
  0.450000  0.350000  0.150000     48.000000
  0.450000  0.450000  0.150000     24.000000
  0.250000  0.250000  0.250000      8.000000
  0.350000  0.250000  0.250000     24.000000
  0.450000  0.250000  0.250000     24.000000
  0.350000  0.350000  0.250000     24.000000
  0.450000  0.350000  0.250000     48.000000
  0.450000  0.450000  0.250000     24.000000
  0.350000  0.350000  0.350000      8.000000
  0.450000  0.350000  0.350000     24.000000
  0.450000  0.450000  0.350000     24.000000
  0.450000  0.450000  0.450000      8.000000
 
 Following cartesian coordinates:
            Coordinates               Weight
  0.017605  0.017605  0.017605      8.000000
  0.052816  0.017605  0.017605     24.000000
  0.088027  0.017605  0.017605     24.000000
  0.123237  0.017605  0.017605     24.000000
  0.158448  0.017605  0.017605     24.000000
  0.052816  0.052816  0.017605     24.000000
  0.088027  0.052816  0.017605     48.000000
  0.123237  0.052816  0.017605     48.000000
  0.158448  0.052816  0.017605     48.000000
  0.088027  0.088027  0.017605     24.000000
  0.123237  0.088027  0.017605     48.000000
  0.158448  0.088027  0.017605     48.000000
  0.123237  0.123237  0.017605     24.000000
  0.158448  0.123237  0.017605     48.000000
  0.158448  0.158448  0.017605     24.000000
  0.052816  0.052816  0.052816      8.000000
  0.088027  0.052816  0.052816     24.000000
  0.123237  0.052816  0.052816     24.000000
  0.158448  0.052816  0.052816     24.000000
  0.088027  0.088027  0.052816     24.000000
  0.123237  0.088027  0.052816     48.000000
  0.158448  0.088027  0.052816     48.000000
  0.123237  0.123237  0.052816     24.000000
  0.158448  0.123237  0.052816     48.000000
  0.158448  0.158448  0.052816     24.000000
  0.088027  0.088027  0.088027      8.000000
  0.123237  0.088027  0.088027     24.000000
  0.158448  0.088027  0.088027     24.000000
  0.123237  0.123237  0.088027     24.000000
  0.158448  0.123237  0.088027     48.000000
  0.158448  0.158448  0.088027     24.000000
  0.123237  0.123237  0.123237      8.000000
  0.158448  0.123237  0.123237     24.000000
  0.158448  0.158448  0.123237     24.000000
  0.158448  0.158448  0.158448      8.000000
 
 TETIRR: Found    466 inequivalent tetrahedra from     6000


--------------------------------------------------------------------------------------------------------




 Dimension of arrays:
   k-points           NKPTS =     35   k-points in BZ     NKDIM =     35   number of bands    NBANDS=     24
   number of dos      NEDOS =    301   number of ions     NIONS =      2
   non local maximal  LDIM  =      6   non local SUM 2l+1 LMDIM =     18
   total plane-waves  NPLWV =  21952
   max r-space proj   IRMAX =  10183   max aug-charges    IRDMAX=  28578
   dimension x,y,z NGX =    28 NGY =   28 NGZ =   28
   dimension x,y,z NGXF=    56 NGYF=   56 NGZF=   56
   support grid    NGXF=    56 NGYF=   56 NGZF=   56
   ions per type =               2
   NGX,Y,Z   is equivalent  to a cutoff of  16.39, 16.39, 16.39 a.u.
   NGXF,Y,Z  is equivalent  to a cutoff of  32.78, 32.78, 32.78 a.u.

 SYSTEM =  unknown system                          
 POSCAR =  Fe2                                     

 Startparameter for this run:
   NWRITE =      2    write-flag & timer
   PREC   = accura    normal or accurate (medium, high low for compatibility)
   ISTART =      0    job   : 0-new  1-cont  2-samecut
   ICHARG =      2    charge: 1-file 2-atom 10-const
   ISPIN  =      2    spin polarized calculation?
   LNONCOLLINEAR =      F non collinear calculations
   LSORBIT =      F    spin-orbit coupling
   INIWAV =      1    electr: 0-lowe 1-rand  2-diag
   LASPH  =      F    aspherical Exc in radial PAW
   METAGGA=      F    non-selfconsistent MetaGGA calc.

 Electronic Relaxation 1
   ENCUT  =  700.0 eV  51.45 Ry    7.17 a.u.   6.13  6.13  6.13*2*pi/ulx,y,z
   ENINI  =  700.0     initial cutoff
   ENAUG  =  578.3 eV  augmentation charge cutoff
   NELM   =    100;   NELMIN=  2; NELMDL= -5     # of ELM steps 
   EDIFF  = 0.1E-06   stopping-criterion for ELM
   LREAL  =      T    real-space projection
   NLSPLINE    = F    spline interpolate recip. space projectors
   LCOMPAT=      F    compatible to vasp.4.4
   GGA_COMPAT  = T    GGA compatible to vasp.4.4-vasp.4.6
   LMAXPAW     = -100 max onsite density
   LMAXMIX     =    2 max onsite mixed and CHGCAR
   VOSKOWN=      0    Vosko Wilk Nusair interpolation
   ROPT   =   -0.00025
 Ionic relaxation
   EDIFFG = 0.1E-05   stopping-criterion for IOM
   NSW    =      0    number of steps for IOM
   NBLOCK =      1;   KBLOCK =      1    inner block; outer block 
   IBRION =     -1    ionic relax: 0-MD 1-quasi-New 2-CG
   NFREE  =      0    steps in history (QN), initial steepest desc. (CG)
   ISIF   =      3    stress and relaxation
   IWAVPR =     10    prediction:  0-non 1-charg 2-wave 3-comb
   ISYM   =      2    0-nonsym 1-usesym 2-fastsym
   LCORR  =      T    Harris-Foulkes like correction to forces

   POTIM  = 0.5000    time-step for ionic-motion
   TEIN   =    0.0    initial temperature
   TEBEG  =    0.0;   TEEND  =   0.0 temperature during run
   SMASS  =  -3.00    Nose mass-parameter (am)
   estimated Nose-frequenzy (Omega)   =  0.10E-29 period in steps =****** mass=  -0.184E-27a.u.
   SCALEE = 1.0000    scale energy and forces
   NPACO  =    256;   APACO  = 16.0  distance and # of slots for P.C.
   PSTRESS=    0.0 pullay stress

  Mass of Ions in am
   POMASS =  55.85
  Ionic Valenz
   ZVAL   =  14.00
  Atomic Wigner-Seitz radii
   RWIGS  =  -1.00
  virtual crystal weights 
   VCA    =   1.00
   NELECT =      28.0000    total number of electrons
   NUPDOWN=      -1.0000    fix difference up-down

 DOS related values:
   EMIN   =  10.00;   EMAX   =-10.00  energy-range for DOS
   EFERMI =   0.00
   ISMEAR =    -5;   SIGMA  =   0.05  broadening in eV -4-tet -1-fermi 0-gaus

 Electronic relaxation 2 (details)
   IALGO  =     38    algorithm
   LDIAG  =      T    sub-space diagonalisation (order eigenvalues)
   LSUBROT=      F    optimize rotation matrix (better conditioning)
   TURBO    =      0    0=normal 1=particle mesh
   IRESTART =      0    0=no restart 2=restart with 2 vectors
   NREBOOT  =      0    no. of reboots
   NMIN     =      0    reboot dimension
   EREF     =   0.00    reference energy to select bands
   IMIX   =      4    mixing-type and parameters
     AMIX     =   0.40;   BMIX     =  1.00
     AMIX_MAG =   1.60;   BMIX_MAG =  1.00
     AMIN     =   0.10
     WC   =   100.;   INIMIX=   1;  MIXPRE=   1;  MAXMIX= -45

 Intra band minimization:
   WEIMIN = 0.0000     energy-eigenvalue tresh-hold
   EBREAK =  0.10E-08  absolut break condition
   DEPER  =   0.30     relativ break condition  

   TIME   =   0.40     timestep for ELM

  volume/ion in A,a.u.               =      11.45        77.29
  Fermi-wavevector in a.u.,A,eV,Ry     =   1.750389  3.307755 41.686364  3.063861
  Thomas-Fermi vector in A             =   2.821117
 
 Write flags
   LWAVE        =      F    write WAVECAR
   LDOWNSAMPLE  =      F    k-point downsampling of WAVECAR
   LCHARG       =      F    write CHGCAR
   LVTOT        =      F    write LOCPOT, total local potential
   LVHAR        =      F    write LOCPOT, Hartree potential only
   LELF         =      F    write electronic localiz. function (ELF)
   LORBIT       =     11    0 simple, 1 ext, 2 COOP (PROOUT), +10 PAW based schemes


 Dipole corrections
   LMONO  =      F    monopole corrections only (constant potential shift)
   LDIPOL =      F    correct potential (dipole corrections)
   IDIPOL =      0    1-x, 2-y, 3-z, 4-all directions 
   EPSILON=  1.0000000 bulk dielectric constant

 Exchange correlation treatment:
   GGA     =    --    GGA type
   LEXCH   =     8    internal setting for exchange type
   VOSKOWN=      0    Vosko Wilk Nusair interpolation
   LHFCALC =     F    Hartree Fock is set to
   LHFONE  =     F    Hartree Fock one center treatment
   AEXX    =    0.0000 exact exchange contribution

 Linear response parameters
   LEPSILON=     F    determine dielectric tensor
   LRPA    =     F    only Hartree local field effects (RPA)
   LNABLA  =     F    use nabla operator in PAW spheres
   LVEL    =     F    velocity operator in full k-point grid
   LINTERFAST=   F  fast interpolation
   KINTER  =     0    interpolate to denser k-point grid
   CSHIFT  =0.1000    complex shift for real part using Kramers Kronig
   OMEGAMAX=  -1.0    maximum frequency
   DEG_THRESHOLD= 0.2000000E-02 threshold for treating states as degnerate
   RTIME   =   -0.100 relaxation time in fs
  (WPLASMAI=    0.000 imaginary part of plasma frequency in eV, 0.658/RTIME)
   DFIELD  = 0.0000000 0.0000000 0.0000000 field for delta impulse in time
 
 Orbital magnetization related:
   ORBITALMAG=     F  switch on orbital magnetization
   LCHIMAG   =     F  perturbation theory with respect to B field
   DQ        =  0.001000  dq finite difference perturbation B field
   LLRAUG    =     F  two centre corrections for induced B field



--------------------------------------------------------------------------------------------------------


 Static calculation
 charge density and potential will be updated during run
 spin polarized calculation
 Variant of blocked Davidson
 Davidson routine will perform the subspace rotation
 perform sub-space diagonalisation
    after iterative eigenvector-optimisation
 modified Broyden-mixing scheme, WC =      100.0
 initial mixing is a Kerker type mixing with AMIX =  0.4000 and BMIX =      1.0000
 Hartree-type preconditioning will be used
 using additional bands           10
 real space projection scheme for non local part
 use partial core corrections
 calculate Harris-corrections to forces 
   (improved forces if not selfconsistent)
 use gradient corrections 
 use of overlap-Matrix (Vanderbilt PP)
 Fermi weights with tetrahedron method with Bloechl corrections


--------------------------------------------------------------------------------------------------------


  energy-cutoff  :      700.00
  volume of cell :       22.91
      direct lattice vectors                 reciprocal lattice vectors
     2.840052000  0.000000000  0.000000000     0.352106229  0.000000000  0.000000000
     0.000000000  2.840052000  0.000000000     0.000000000  0.352106229  0.000000000
     0.000000000  0.000000000  2.840052000     0.000000000  0.000000000  0.352106229

  length of vectors
     2.840052000  2.840052000  2.840052000     0.352106229  0.352106229  0.352106229


 
 k-points in units of 2pi/SCALE and weight: pymatgen with grid density = 2166 / numb
   0.01760531  0.01760531  0.01760531       0.008
   0.05281593  0.01760531  0.01760531       0.024
   0.08802656  0.01760531  0.01760531       0.024
   0.12323718  0.01760531  0.01760531       0.024
   0.15844780  0.01760531  0.01760531       0.024
   0.05281593  0.05281593  0.01760531       0.024
   0.08802656  0.05281593  0.01760531       0.048
   0.12323718  0.05281593  0.01760531       0.048
   0.15844780  0.05281593  0.01760531       0.048
   0.08802656  0.08802656  0.01760531       0.024
   0.12323718  0.08802656  0.01760531       0.048
   0.15844780  0.08802656  0.01760531       0.048
   0.12323718  0.12323718  0.01760531       0.024
   0.15844780  0.12323718  0.01760531       0.048
   0.15844780  0.15844780  0.01760531       0.024
   0.05281593  0.05281593  0.05281593       0.008
   0.08802656  0.05281593  0.05281593       0.024
   0.12323718  0.05281593  0.05281593       0.024
   0.15844780  0.05281593  0.05281593       0.024
   0.08802656  0.08802656  0.05281593       0.024
   0.12323718  0.08802656  0.05281593       0.048
   0.15844780  0.08802656  0.05281593       0.048
   0.12323718  0.12323718  0.05281593       0.024
   0.15844780  0.12323718  0.05281593       0.048
   0.15844780  0.15844780  0.05281593       0.024
   0.08802656  0.08802656  0.08802656       0.008
   0.12323718  0.08802656  0.08802656       0.024
   0.15844780  0.08802656  0.08802656       0.024
   0.12323718  0.12323718  0.08802656       0.024
   0.15844780  0.12323718  0.08802656       0.048
   0.15844780  0.15844780  0.08802656       0.024
   0.12323718  0.12323718  0.12323718       0.008
   0.15844780  0.12323718  0.12323718       0.024
   0.15844780  0.15844780  0.12323718       0.024
   0.15844780  0.15844780  0.15844780       0.008
 
 k-points in reciprocal lattice and weights: pymatgen with grid density = 2166 / numb
   0.05000000  0.05000000  0.05000000       0.008
   0.15000000  0.05000000  0.05000000       0.024
   0.25000000  0.05000000  0.05000000       0.024
   0.35000000  0.05000000  0.05000000       0.024
   0.45000000  0.05000000  0.05000000       0.024
   0.15000000  0.15000000  0.05000000       0.024
   0.25000000  0.15000000  0.05000000       0.048
   0.35000000  0.15000000  0.05000000       0.048
   0.45000000  0.15000000  0.05000000       0.048
   0.25000000  0.25000000  0.05000000       0.024
   0.35000000  0.25000000  0.05000000       0.048
   0.45000000  0.25000000  0.05000000       0.048
   0.35000000  0.35000000  0.05000000       0.024
   0.45000000  0.35000000  0.05000000       0.048
   0.45000000  0.45000000  0.05000000       0.024
   0.15000000  0.15000000  0.15000000       0.008
   0.25000000  0.15000000  0.15000000       0.024
   0.35000000  0.15000000  0.15000000       0.024
   0.45000000  0.15000000  0.15000000       0.024
   0.25000000  0.25000000  0.15000000       0.024
   0.35000000  0.25000000  0.15000000       0.048
   0.45000000  0.25000000  0.15000000       0.048
   0.35000000  0.35000000  0.15000000       0.024
   0.45000000  0.35000000  0.15000000       0.048
   0.45000000  0.45000000  0.15000000       0.024
   0.25000000  0.25000000  0.25000000       0.008
   0.35000000  0.25000000  0.25000000       0.024
   0.45000000  0.25000000  0.25000000       0.024
   0.35000000  0.35000000  0.25000000       0.024
   0.45000000  0.35000000  0.25000000       0.048
   0.45000000  0.45000000  0.25000000       0.024
   0.35000000  0.35000000  0.35000000       0.008
   0.45000000  0.35000000  0.35000000       0.024
   0.45000000  0.45000000  0.35000000       0.024
   0.45000000  0.45000000  0.45000000       0.008
 
 position of ions in fractional coordinates (direct lattice) 
   0.00000000  0.00000000  0.00000000
   0.50000000  0.50000000  0.50000000
 
 position of ions in cartesian coordinates  (Angst):
   0.00000000  0.00000000  0.00000000
   1.42002600  1.42002600  1.42002600
 


--------------------------------------------------------------------------------------------------------


 k-point  1 :   0.0500 0.0500 0.0500  plane waves:     964
 k-point  2 :   0.1500 0.0500 0.0500  plane waves:     964
 k-point  3 :   0.2500 0.0500 0.0500  plane waves:     961
 k-point  4 :   0.3500 0.0500 0.0500  plane waves:     961
 k-point  5 :   0.4500 0.0500 0.0500  plane waves:     961
 k-point  6 :   0.1500 0.1500 0.0500  plane waves:     962
 k-point  7 :   0.2500 0.1500 0.0500  plane waves:     958
 k-point  8 :   0.3500 0.1500 0.0500  plane waves:     958
 k-point  9 :   0.4500 0.1500 0.0500  plane waves:     960
 k-point 10 :   0.2500 0.2500 0.0500  plane waves:     970
 k-point 11 :   0.3500 0.2500 0.0500  plane waves:     963
 k-point 12 :   0.4500 0.2500 0.0500  plane waves:     959
 k-point 13 :   0.3500 0.3500 0.0500  plane waves:     960
 k-point 14 :   0.4500 0.3500 0.0500  plane waves:     966
 k-point 15 :   0.4500 0.4500 0.0500  plane waves:     975
 k-point 16 :   0.1500 0.1500 0.1500  plane waves:     952
 k-point 17 :   0.2500 0.1500 0.1500  plane waves:     961
 k-point 18 :   0.3500 0.1500 0.1500  plane waves:     960
 k-point 19 :   0.4500 0.1500 0.1500  plane waves:     955
 k-point 20 :   0.2500 0.2500 0.1500  plane waves:     960
 k-point 21 :   0.3500 0.2500 0.1500  plane waves:     964
 k-point 22 :   0.4500 0.2500 0.1500  plane waves:     959
 k-point 23 :   0.3500 0.3500 0.1500  plane waves:     968
 k-point 24 :   0.4500 0.3500 0.1500  plane waves:     967
 k-point 25 :   0.4500 0.4500 0.1500  plane waves:     976
 k-point 26 :   0.2500 0.2500 0.2500  plane waves:     958
 k-point 27 :   0.3500 0.2500 0.2500  plane waves:     965
 k-point 28 :   0.4500 0.2500 0.2500  plane waves:     968
 k-point 29 :   0.3500 0.3500 0.2500  plane waves:     970
 k-point 30 :   0.4500 0.3500 0.2500  plane waves:     971
 k-point 31 :   0.4500 0.4500 0.2500  plane waves:     975
 k-point 32 :   0.3500 0.3500 0.3500  plane waves:     964
 k-point 33 :   0.4500 0.3500 0.3500  plane waves:     970
 k-point 34 :   0.4500 0.4500 0.3500  plane waves:     975
 k-point 35 :   0.4500 0.4500 0.4500  plane waves:     961

 maximum and minimum number of plane-waves per node :       253      227

 maximum number of plane-waves:       976
 maximum index in each direction: 
   IXMAX=    6   IYMAX=    6   IZMAX=    6
   IXMIN=   -6   IYMIN=   -6   IZMIN=   -6


 real space projection operators:
  total allocation   :       2754.84 KBytes
  max/ min on nodes  :        690.33        687.09


 parallel 3D FFT for wavefunctions:
    minimum data exchange during FFTs selected (reduces bandwidth)
 parallel 3D FFT for charge:
    minimum data exchange during FFTs selected (reduces bandwidth)


 total amount of memory used by VASP MPI-rank0    34076. kBytes
=======================================================================

   base      :      30000. kBytes
   nonlr-proj:       1192. kBytes
   fftplans  :        476. kBytes
   grid      :       1141. kBytes
   one-center:         31. kBytes
   wavefun   :       1236. kBytes
 
     INWAV:  cpu time    0.0000: real time    0.0001
 Broyden mixing: mesh for mixing (old mesh)
   NGX = 13   NGY = 13   NGZ = 13
  (NGX  = 56   NGY  = 56   NGZ  = 56)
  gives a total of   2197 points

 initial charge density was supplied:
 charge density of overlapping atoms calculated
 number of electron      28.0000000 magnetization      10.0000000
 keeping initial charge density in first step


--------------------------------------------------------------------------------------------------------


 Maximum index for non-local projection operator         2463
 Maximum index for augmentation-charges         1986 (set IRDMAX)


--------------------------------------------------------------------------------------------------------


 First call to EWALD:  gamma=   0.624
 Maximum number of real-space cells 3x 3x 3
 Maximum number of reciprocal cells 3x 3x 3

    FEWALD:  cpu time    0.0013: real time    0.0013


--------------------------------------- Iteration      1(   1)  ---------------------------------------


    POTLOK:  cpu time    0.0125: real time    0.0126
    SETDIJ:  cpu time    0.0070: real time    0.0070
     EDDAV:  cpu time    0.5302: real time    0.5428
 BZINTS: Fermi energy: 21.147436; 28.000000 electrons
         Band energy: -83.466285;  BLOECHL correction: -0.154098
       DOS:  cpu time    0.0351: real time    0.0352
    --------------------------------------------
      LOOP:  cpu time    0.5849: real time    0.5976

 eigenvalue-minimisations  :  3432
 total energy-change (2. order) : 0.2389593E+03  (-0.2088996E+04)
 number of electron      28.0000000 magnetization      10.0000000
 augmentation part       28.0000000 magnetization      10.0000000

 Free energy of the ion-electron system (eV)
  ---------------------------------------------------
  alpha Z        PSCENC =       218.87048721
  Ewald energy   TEWEN  =     -3616.56080017
  -Hartree energ DENC   =     -1162.86386254
  -exchange      EXHF   =         0.00000000
  -V(xc)+E(xc)   XCENC  =       147.54621443
  PAW double counting   =      3997.93860218    -4177.34792201
  entropy T*S    EENTRO =         0.00000000
  eigenvalues    EBANDS =       -83.46628511
  atomic energy  EATOM  =      4914.84282100
  Solvation  Ediel_sol  =         0.00000000
  ---------------------------------------------------
  free energy    TOTEN  =       238.95925499 eV

  energy without entropy =      238.95925499  energy(sigma->0) =      238.95925499


--------------------------------------------------------------------------------------------------------




--------------------------------------- Iteration      1(   2)  ---------------------------------------


     EDDAV:  cpu time    0.5146: real time    0.5196
 BZINTS: Fermi energy: 12.198374; 28.000000 electrons
         Band energy:-331.559334;  BLOECHL correction: -0.068413
       DOS:  cpu time    0.0309: real time    0.0310
    --------------------------------------------
      LOOP:  cpu time    0.5456: real time    0.5506

 eigenvalue-minimisations  :  3432
 total energy-change (2. order) :-0.2480930E+03  (-0.2381691E+03)
 number of electron      28.0000000 magnetization      10.0000000
 augmentation part       28.0000000 magnetization      10.0000000

 Free energy of the ion-electron system (eV)
  ---------------------------------------------------
  alpha Z        PSCENC =       218.87048721
  Ewald energy   TEWEN  =     -3616.56080017
  -Hartree energ DENC   =     -1162.86386254
  -exchange      EXHF   =         0.00000000
  -V(xc)+E(xc)   XCENC  =       147.54621443
  PAW double counting   =      3997.93860218    -4177.34792201
  entropy T*S    EENTRO =         0.00000000
  eigenvalues    EBANDS =      -331.55933444
  atomic energy  EATOM  =      4914.84282100
  Solvation  Ediel_sol  =         0.00000000
  ---------------------------------------------------
  free energy    TOTEN  =        -9.13379434 eV

  energy without entropy =       -9.13379434  energy(sigma->0) =       -9.13379434


--------------------------------------------------------------------------------------------------------




--------------------------------------- Iteration      1(   3)  ---------------------------------------


     EDDAV:  cpu time    0.5661: real time    0.5677
 BZINTS: Fermi energy: 12.037068; 28.000000 electrons
         Band energy:-338.641142;  BLOECHL correction: -0.071283
       DOS:  cpu time    0.0334: real time    0.0335
    --------------------------------------------
      LOOP:  cpu time    0.5996: real time    0.6012

 eigenvalue-minimisations  :  3744
 total energy-change (2. order) :-0.7081807E+01  (-0.7066045E+01)
 number of electron      28.0000000 magnetization      10.0000000
 augmentation part       28.0000000 magnetization      10.0000000

 Free energy of the ion-electron system (eV)
  ---------------------------------------------------
  alpha Z        PSCENC =       218.87048721
  Ewald energy   TEWEN  =     -3616.56080017
  -Hartree energ DENC   =     -1162.86386254
  -exchange      EXHF   =         0.00000000
  -V(xc)+E(xc)   XCENC  =       147.54621443
  PAW double counting   =      3997.93860218    -4177.34792201
  entropy T*S    EENTRO =         0.00000000
  eigenvalues    EBANDS =      -338.64114179
  atomic energy  EATOM  =      4914.84282100
  Solvation  Ediel_sol  =         0.00000000
  ---------------------------------------------------
  free energy    TOTEN  =       -16.21560168 eV

  energy without entropy =      -16.21560168  energy(sigma->0) =      -16.21560168


--------------------------------------------------------------------------------------------------------




--------------------------------------- Iteration      1(   4)  ---------------------------------------


     EDDAV:  cpu time    0.5793: real time    0.5816
 BZINTS: Fermi energy: 12.036644; 28.000000 electrons
         Band energy:-338.698725;  BLOECHL correction: -0.071279
       DOS:  cpu time    0.0324: real time    0.0325
    --------------------------------------------
      LOOP:  cpu time    0.6117: real time    0.6140

 eigenvalue-minimisations  :  3864
 total energy-change (2. order) :-0.5758281E-01  (-0.5758557E-01)
 number of electron      28.0000000 magnetization      10.0000000
 augmentation part       28.0000000 magnetization      10.0000000

 Free energy of the ion-electron system (eV)
  ---------------------------------------------------
  alpha Z        PSCENC =       218.87048721
  Ewald energy   TEWEN  =     -3616.56080017
  -Hartree energ DENC   =     -1162.86386254
  -exchange      EXHF   =         0.00000000
  -V(xc)+E(xc)   XCENC  =       147.54621443
  PAW double counting   =      3997.93860218    -4177.34792201
  entropy T*S    EENTRO =         0.00000000
  eigenvalues    EBANDS =      -338.69872460
  atomic energy  EATOM  =      4914.84282100
  Solvation  Ediel_sol  =         0.00000000
  ---------------------------------------------------
  free energy    TOTEN  =       -16.27318449 eV

  energy without entropy =      -16.27318449  energy(sigma->0) =      -16.27318449


--------------------------------------------------------------------------------------------------------




--------------------------------------- Iteration      1(   5)  ---------------------------------------


     EDDAV:  cpu time    0.5625: real time    0.5640
 BZINTS: Fermi energy: 12.036643; 28.000000 electrons
         Band energy:-338.699776;  BLOECHL correction: -0.071279
       DOS:  cpu time    0.0306: real time    0.0306
    CHARGE:  cpu time    0.0251: real time    0.0252
    MIXING:  cpu time    0.0007: real time    0.0007
    --------------------------------------------
      LOOP:  cpu time    0.6188: real time    0.6205

 eigenvalue-minimisations  :  3756
 total energy-change (2. order) :-0.1051733E-02  (-0.1051745E-02)
 number of electron      27.9999985 magnetization       4.3575943
 augmentation part       15.9043281 magnetization       2.8337158

 Broyden mixing:
  rms(total) = 0.24989E+01    rms(broyden)= 0.24989E+01
  rms(prec ) = 0.39512E+01
  weight for this iteration     100.00

 Free energy of the ion-electron system (eV)
  ---------------------------------------------------
  alpha Z        PSCENC =       218.87048721
  Ewald energy   TEWEN  =     -3616.56080017
  -Hartree energ DENC   =     -1162.86386254
  -exchange      EXHF   =         0.00000000
  -V(xc)+E(xc)   XCENC  =       147.54621443
  PAW double counting   =      3997.93860218    -4177.34792201
  entropy T*S    EENTRO =         0.00000000
  eigenvalues    EBANDS =      -338.69977633
  atomic energy  EATOM  =      4914.84282100
  Solvation  Ediel_sol  =         0.00000000
  ---------------------------------------------------
  free energy    TOTEN  =       -16.27423623 eV

  energy without entropy =      -16.27423623  energy(sigma->0) =      -16.27423623


--------------------------------------------------------------------------------------------------------




--------------------------------------- Iteration      1(   6)  ---------------------------------------


    POTLOK:  cpu time    0.0103: real time    0.0104
    SETDIJ:  cpu time    0.0055: real time    0.0055
     EDDAV:  cpu time    0.5158: real time    0.5174
 BZINTS: Fermi energy:  9.265555; 28.000000 electrons
         Band energy:-409.591446;  BLOECHL correction: -0.036200
       DOS:  cpu time    0.0339: real time    0.0340
    CHARGE:  cpu time    0.0214: real time    0.0215
    MIXING:  cpu time    0.0006: real time    0.0006
    --------------------------------------------
      LOOP:  cpu time    0.5876: real time    0.5894

 eigenvalue-minimisations  :  3420
 total energy-change (2. order) :-0.1837687E+00  (-0.7493584E+00)
 number of electron      27.9999984 magnetization       4.5321767
 augmentation part       17.0678294 magnetization       3.5498501

 Broyden mixing:
  rms(total) = 0.69119E+00    rms(broyden)= 0.69119E+00
  rms(prec ) = 0.86645E+00
  weight for this iteration     100.00

 eigenvalues of (default mixing * dielectric matrix)
  average eigenvalue GAMMA=   0.8370
  0.8370

 Free energy of the ion-electron system (eV)
  ---------------------------------------------------
  alpha Z        PSCENC =       218.87048721
  Ewald energy   TEWEN  =     -3616.56080017
  -Hartree energ DENC   =     -1089.08650559
  -exchange      EXHF   =         0.00000000
  -V(xc)+E(xc)   XCENC  =       140.63839248
  PAW double counting   =      4113.80781947    -4289.37877350
  entropy T*S    EENTRO =         0.00000000
  eigenvalues    EBANDS =      -409.59144579
  atomic energy  EATOM  =      4914.84282100
  Solvation  Ediel_sol  =         0.00000000
  ---------------------------------------------------
  free energy    TOTEN  =       -16.45800489 eV

  energy without entropy =      -16.45800489  energy(sigma->0) =      -16.45800489


--------------------------------------------------------------------------------------------------------




--------------------------------------- Iteration      1(   7)  ---------------------------------------


    POTLOK:  cpu time    0.0104: real time    0.0108
    SETDIJ:  cpu time    0.0053: real time    0.0053
     EDDAV:  cpu time    0.5124: real time    0.5136
 BZINTS: Fermi energy:  9.762100; 28.000000 electrons
         Band energy:-395.205615;  BLOECHL correction: -0.033726
       DOS:  cpu time    0.0312: real time    0.0313
    CHARGE:  cpu time    0.0209: real time    0.0209
    MIXING:  cpu time    0.0004: real time    0.0004
    --------------------------------------------
      LOOP:  cpu time    0.5806: real time    0.5824

 eigenvalue-minimisations  :  3408
 total energy-change (2. order) :-0.5457202E-01  (-0.6146959E-01)
 number of electron      27.9999985 magnetization       4.4438848
 augmentation part       16.7742457 magnetization       3.5267949

 Broyden mixing:
  rms(total) = 0.43074E+00    rms(broyden)= 0.43074E+00
  rms(prec ) = 0.52582E+00
  weight for this iteration     100.00

 eigenvalues of (default mixing * dielectric matrix)
  average eigenvalue GAMMA=   0.7673
  0.9881  0.5466

 Free energy of the ion-electron system (eV)
  ---------------------------------------------------
  alpha Z        PSCENC =       218.87048721
  Ewald energy   TEWEN  =     -3616.56080017
  -Hartree energ DENC   =     -1099.08029259
  -exchange      EXHF   =         0.00000000
  -V(xc)+E(xc)   XCENC  =       141.33114796
  PAW double counting   =      4219.74966695    -4400.45999205
  entropy T*S    EENTRO =         0.00000000
  eigenvalues    EBANDS =      -395.20561523
  atomic energy  EATOM  =      4914.84282100
  Solvation  Ediel_sol  =         0.00000000
  ---------------------------------------------------
  free energy    TOTEN  =       -16.51257690 eV

  energy without entropy =      -16.51257690  energy(sigma->0) =      -16.51257690


--------------------------------------------------------------------------------------------------------




--------------------------------------- Iteration      1(   8)  ---------------------------------------


    POTLOK:  cpu time    0.0102: real time    0.0104
    SETDIJ:  cpu time    0.0052: real time    0.0052
     EDDAV:  cpu time    0.5566: real time    0.5584
 BZINTS: Fermi energy:  9.688552; 28.000000 electrons
         Band energy:-397.470191;  BLOECHL correction: -0.033981
       DOS:  cpu time    0.0321: real time    0.0322
    CHARGE:  cpu time    0.0207: real time    0.0208
    MIXING:  cpu time    0.0004: real time    0.0004
    --------------------------------------------
      LOOP:  cpu time    0.6254: real time    0.6274

 eigenvalue-minimisations  :  3756
 total energy-change (2. order) :-0.9698853E-02  (-0.1511887E-02)
 number of electron      27.9999985 magnetization       4.3700265
 augmentation part       16.8103493 magnetization       3.4531769

 Broyden mixing:
  rms(total) = 0.13688E+00    rms(broyden)= 0.13688E+00
  rms(prec ) = 0.21416E+00
  weight for this iteration     100.00

 eigenvalues of (default mixing * dielectric matrix)
  average eigenvalue GAMMA=   1.0474
  1.6984  0.8570  0.5868

 Free energy of the ion-electron system (eV)
  ---------------------------------------------------
  alpha Z        PSCENC =       218.87048721
  Ewald energy   TEWEN  =     -3616.56080017
  -Hartree energ DENC   =     -1095.16558609
  -exchange      EXHF   =         0.00000000
  -V(xc)+E(xc)   XCENC  =       141.10717921
  PAW double counting   =      4267.76413845    -4449.91032422
  entropy T*S    EENTRO =         0.00000000
  eigenvalues    EBANDS =      -397.47019116
  atomic energy  EATOM  =      4914.84282100
  Solvation  Ediel_sol  =         0.00000000
  ---------------------------------------------------
  free energy    TOTEN  =       -16.52227576 eV

  energy without entropy =      -16.52227576  energy(sigma->0) =      -16.52227576


--------------------------------------------------------------------------------------------------------




--------------------------------------- Iteration      1(   9)  ---------------------------------------


    POTLOK:  cpu time    0.0102: real time    0.0104
    SETDIJ:  cpu time    0.0052: real time    0.0052
     EDDAV:  cpu time    0.5431: real time    0.5446
 BZINTS: Fermi energy:  9.610421; 28.000000 electrons
         Band energy:-399.760533;  BLOECHL correction: -0.034533
       DOS:  cpu time    0.0294: real time    0.0295
    CHARGE:  cpu time    0.0206: real time    0.0207
    MIXING:  cpu time    0.0004: real time    0.0004
    --------------------------------------------
      LOOP:  cpu time    0.6091: real time    0.6108

 eigenvalue-minimisations  :  3672
 total energy-change (2. order) : 0.8285878E-02  (-0.5226897E-03)
 number of electron      27.9999984 magnetization       4.4018588
 augmentation part       16.8465236 magnetization       3.4830950

 Broyden mixing:
  rms(total) = 0.33688E-01    rms(broyden)= 0.33688E-01
  rms(prec ) = 0.45937E-01
  weight for this iteration     100.00

 eigenvalues of (default mixing * dielectric matrix)
  average eigenvalue GAMMA=   1.1854
  2.3388  1.0620  0.6994  0.6413

 Free energy of the ion-electron system (eV)
  ---------------------------------------------------
  alpha Z        PSCENC =       218.87048721
  Ewald energy   TEWEN  =     -3616.56080017
  -Hartree energ DENC   =     -1090.25804874
  -exchange      EXHF   =         0.00000000
  -V(xc)+E(xc)   XCENC  =       140.86395968
  PAW double counting   =      4344.24496555    -4528.75684128
  entropy T*S    EENTRO =         0.00000000
  eigenvalues    EBANDS =      -399.76053313
  atomic energy  EATOM  =      4914.84282100
  Solvation  Ediel_sol  =         0.00000000
  ---------------------------------------------------
  free energy    TOTEN  =       -16.51398988 eV

  energy without entropy =      -16.51398988  energy(sigma->0) =      -16.51398988


--------------------------------------------------------------------------------------------------------




--------------------------------------- Iteration      1(  10)  ---------------------------------------


    POTLOK:  cpu time    0.0103: real time    0.0104
    SETDIJ:  cpu time    0.0053: real time    0.0053
     EDDAV:  cpu time    0.5098: real time    0.5110
 BZINTS: Fermi energy:  9.624843; 28.000000 electrons
         Band energy:-399.219594;  BLOECHL correction: -0.034691
       DOS:  cpu time    0.0338: real time    0.0339
    CHARGE:  cpu time    0.0209: real time    0.0210
    MIXING:  cpu time    0.0004: real time    0.0005
    --------------------------------------------
      LOOP:  cpu time    0.5805: real time    0.5820

 eigenvalue-minimisations  :  3420
 total energy-change (2. order) : 0.1992523E-03  (-0.2238228E-03)
 number of electron      27.9999985 magnetization       4.4066256
 augmentation part       16.8345293 magnetization       3.4851034

 Broyden mixing:
  rms(total) = 0.44169E-02    rms(broyden)= 0.44169E-02
  rms(prec ) = 0.54541E-02
  weight for this iteration     100.00

 eigenvalues of (default mixing * dielectric matrix)
  average eigenvalue GAMMA=   1.1291
  2.4316  1.0999  0.7832  0.6970  0.6338

 Free energy of the ion-electron system (eV)
  ---------------------------------------------------
  alpha Z        PSCENC =       218.87048721
  Ewald energy   TEWEN  =     -3616.56080017
  -Hartree energ DENC   =     -1089.87350957
  -exchange      EXHF   =         0.00000000
  -V(xc)+E(xc)   XCENC  =       140.87134941
  PAW double counting   =      4373.04558486    -4558.49012899
  entropy T*S    EENTRO =         0.00000000
  eigenvalues    EBANDS =      -399.21959439
  atomic energy  EATOM  =      4914.84282100
  Solvation  Ediel_sol  =         0.00000000
  ---------------------------------------------------
  free energy    TOTEN  =       -16.51379063 eV

  energy without entropy =      -16.51379063  energy(sigma->0) =      -16.51379063


--------------------------------------------------------------------------------------------------------




--------------------------------------- Iteration      1(  11)  ---------------------------------------


    POTLOK:  cpu time    0.0102: real time    0.0104
    SETDIJ:  cpu time    0.0052: real time    0.0052
     EDDAV:  cpu time    0.5434: real time    0.5448
 BZINTS: Fermi energy:  9.623273; 28.000000 electrons
         Band energy:-399.252042;  BLOECHL correction: -0.034709
       DOS:  cpu time    0.0321: real time    0.0321
    CHARGE:  cpu time    0.0221: real time    0.0222
    MIXING:  cpu time    0.0005: real time    0.0005
    --------------------------------------------
      LOOP:  cpu time    0.6136: real time    0.6153

 eigenvalue-minimisations  :  3636
 total energy-change (2. order) :-0.5993017E-04  (-0.4956166E-05)
 number of electron      27.9999985 magnetization       4.4060225
 augmentation part       16.8350870 magnetization       3.4847598

 Broyden mixing:
  rms(total) = 0.24195E-02    rms(broyden)= 0.24195E-02
  rms(prec ) = 0.32662E-02
  weight for this iteration     100.00

 eigenvalues of (default mixing * dielectric matrix)
  average eigenvalue GAMMA=   1.2961
  2.3075  2.3075  1.0750  0.6331  0.7557  0.6976

 Free energy of the ion-electron system (eV)
  ---------------------------------------------------
  alpha Z        PSCENC =       218.87048721
  Ewald energy   TEWEN  =     -3616.56080017
  -Hartree energ DENC   =     -1089.86582443
  -exchange      EXHF   =         0.00000000
  -V(xc)+E(xc)   XCENC  =       140.87365918
  PAW double counting   =      4374.26037746    -4559.68252848
  entropy T*S    EENTRO =         0.00000000
  eigenvalues    EBANDS =      -399.25204233
  atomic energy  EATOM  =      4914.84282100
  Solvation  Ediel_sol  =         0.00000000
  ---------------------------------------------------
  free energy    TOTEN  =       -16.51385056 eV

  energy without entropy =      -16.51385056  energy(sigma->0) =      -16.51385056


--------------------------------------------------------------------------------------------------------




--------------------------------------- Iteration      1(  12)  ---------------------------------------


    POTLOK:  cpu time    0.0105: real time    0.0117
    SETDIJ:  cpu time    0.0054: real time    0.0054
     EDDAV:  cpu time    0.5638: real time    0.5656
 BZINTS: Fermi energy:  9.621747; 28.000000 electrons
         Band energy:-399.286374;  BLOECHL correction: -0.034721
       DOS:  cpu time    0.0312: real time    0.0313
    CHARGE:  cpu time    0.0254: real time    0.0255
    MIXING:  cpu time    0.0005: real time    0.0005
    --------------------------------------------
      LOOP:  cpu time    0.6368: real time    0.6399

 eigenvalue-minimisations  :  3792
 total energy-change (2. order) :-0.8118784E-05  (-0.5009946E-06)
 number of electron      27.9999985 magnetization       4.4057523
 augmentation part       16.8357983 magnetization       3.4847567

 Broyden mixing:
  rms(total) = 0.95438E-03    rms(broyden)= 0.95438E-03
  rms(prec ) = 0.13543E-02
  weight for this iteration     100.00

 eigenvalues of (default mixing * dielectric matrix)
  average eigenvalue GAMMA=   1.2319
  2.3891  2.3891  1.0837  0.7904  0.7165  0.6271  0.6271

 Free energy of the ion-electron system (eV)
  ---------------------------------------------------
  alpha Z        PSCENC =       218.87048721
  Ewald energy   TEWEN  =     -3616.56080017
  -Hartree energ DENC   =     -1089.91761524
  -exchange      EXHF   =         0.00000000
  -V(xc)+E(xc)   XCENC  =       140.87634238
  PAW double counting   =      4375.32895706    -4560.66767651
  entropy T*S    EENTRO =         0.00000000
  eigenvalues    EBANDS =      -399.28637441
  atomic energy  EATOM  =      4914.84282100
  Solvation  Ediel_sol  =         0.00000000
  ---------------------------------------------------
  free energy    TOTEN  =       -16.51385868 eV

  energy without entropy =      -16.51385868  energy(sigma->0) =      -16.51385868


--------------------------------------------------------------------------------------------------------




--------------------------------------- Iteration      1(  13)  ---------------------------------------


    POTLOK:  cpu time    0.0102: real time    0.0103
    SETDIJ:  cpu time    0.0052: real time    0.0052
     EDDAV:  cpu time    0.5275: real time    0.5289
 BZINTS: Fermi energy:  9.622353; 28.000000 electrons
         Band energy:-399.273840;  BLOECHL correction: -0.034713
       DOS:  cpu time    0.0321: real time    0.0321
    CHARGE:  cpu time    0.0208: real time    0.0209
    MIXING:  cpu time    0.0005: real time    0.0005
    --------------------------------------------
      LOOP:  cpu time    0.5963: real time    0.5980

 eigenvalue-minimisations  :  3540
 total energy-change (2. order) : 0.6748789E-05  (-0.1306871E-06)
 number of electron      27.9999985 magnetization       4.4055541
 augmentation part       16.8354938 magnetization       3.4844478

 Broyden mixing:
  rms(total) = 0.24683E-03    rms(broyden)= 0.24683E-03
  rms(prec ) = 0.33703E-03
  weight for this iteration     100.00

 eigenvalues of (default mixing * dielectric matrix)
  average eigenvalue GAMMA=   1.2902
  2.5188  2.4441  1.4853  1.0645  0.8082  0.6259  0.6872  0.6872

 Free energy of the ion-electron system (eV)
  ---------------------------------------------------
  alpha Z        PSCENC =       218.87048721
  Ewald energy   TEWEN  =     -3616.56080017
  -Hartree energ DENC   =     -1089.92457168
  -exchange      EXHF   =         0.00000000
  -V(xc)+E(xc)   XCENC  =       140.87623512
  PAW double counting   =      4375.45418223    -4560.79836612
  entropy T*S    EENTRO =         0.00000000
  eigenvalues    EBANDS =      -399.27383953
  atomic energy  EATOM  =      4914.84282100
  Solvation  Ediel_sol  =         0.00000000
  ---------------------------------------------------
  free energy    TOTEN  =       -16.51385193 eV

  energy without entropy =      -16.51385193  energy(sigma->0) =      -16.51385193


--------------------------------------------------------------------------------------------------------




--------------------------------------- Iteration      1(  14)  ---------------------------------------


    POTLOK:  cpu time    0.0103: real time    0.0104
    SETDIJ:  cpu time    0.0052: real time    0.0052
     EDDAV:  cpu time    0.4437: real time    0.4447
 BZINTS: Fermi energy:  9.622594; 28.000000 electrons
         Band energy:-399.268980;  BLOECHL correction: -0.034712
       DOS:  cpu time    0.0338: real time    0.0341
    CHARGE:  cpu time    0.0208: real time    0.0209
    MIXING:  cpu time    0.0005: real time    0.0005
    --------------------------------------------
      LOOP:  cpu time    0.5143: real time    0.5158

 eigenvalue-minimisations  :  2712
 total energy-change (2. order) : 0.1537953E-05  (-0.1539332E-07)
 number of electron      27.9999985 magnetization       4.4055714
 augmentation part       16.8353794 magnetization       3.4844316

 Broyden mixing:
  rms(total) = 0.65770E-04    rms(broyden)= 0.65767E-04
  rms(prec ) = 0.86182E-04
  weight for this iteration     100.00

 eigenvalues of (default mixing * dielectric matrix)
  average eigenvalue GAMMA=   1.2118
  2.6076  2.4651  1.2905  1.0506  0.8268  0.6326  0.6628  0.6852  0.6852

 Free energy of the ion-electron system (eV)
  ---------------------------------------------------
  alpha Z        PSCENC =       218.87048721
  Ewald energy   TEWEN  =     -3616.56080017
  -Hartree energ DENC   =     -1089.92699269
  -exchange      EXHF   =         0.00000000
  -V(xc)+E(xc)   XCENC  =       140.87606952
  PAW double counting   =      4375.45495298    -4560.80140867
  entropy T*S    EENTRO =         0.00000000
  eigenvalues    EBANDS =      -399.26897958
  atomic energy  EATOM  =      4914.84282100
  Solvation  Ediel_sol  =         0.00000000
  ---------------------------------------------------
  free energy    TOTEN  =       -16.51385039 eV

  energy without entropy =      -16.51385039  energy(sigma->0) =      -16.51385039


--------------------------------------------------------------------------------------------------------




--------------------------------------- Iteration      1(  15)  ---------------------------------------


    POTLOK:  cpu time    0.0104: real time    0.0105
    SETDIJ:  cpu time    0.0052: real time    0.0052
     EDDAV:  cpu time    0.3426: real time    0.3438
 BZINTS: Fermi energy:  9.622560; 28.000000 electrons
         Band energy:-399.269897;  BLOECHL correction: -0.034712
       DOS:  cpu time    0.0339: real time    0.0340
    --------------------------------------------
      LOOP:  cpu time    0.3921: real time    0.3936

 eigenvalue-minimisations  :  1776
 total energy-change (2. order) :-0.1803710E-07  (-0.1109967E-08)
 number of electron      27.9999985 magnetization       4.4055714
 augmentation part       16.8353794 magnetization       3.4844316

 Free energy of the ion-electron system (eV)
  ---------------------------------------------------
  alpha Z        PSCENC =       218.87048721
  Ewald energy   TEWEN  =     -3616.56080017
  -Hartree energ DENC   =     -1089.92660489
  -exchange      EXHF   =         0.00000000
  -V(xc)+E(xc)   XCENC  =       140.87610135
  PAW double counting   =      4375.45028946    -4560.79624701
  entropy T*S    EENTRO =         0.00000000
  eigenvalues    EBANDS =      -399.26989736
  atomic energy  EATOM  =      4914.84282100
  Solvation  Ediel_sol  =         0.00000000
  ---------------------------------------------------
  free energy    TOTEN  =       -16.51385041 eV

  energy without entropy =      -16.51385041  energy(sigma->0) =      -16.51385041


--------------------------------------------------------------------------------------------------------




 average (electrostatic) potential at core
  the test charge radii are     0.9500
  (the norm of the test charge is              1.0000)
       1 -73.6649       2 -73.6649
 
 
 
 E-fermi :   9.6226     XC(G=0): -13.6242     alpha+bet :-17.4163


 spin component 1

 k-point     1 :       0.0500    0.0500    0.0500
  band No.  band energies     occupation 
      1     -44.5604      1.00000
      2     -44.5604      1.00000
      3     -44.5461      1.00000
      4     -44.2893      1.00000
      5     -44.2746      1.00000
      6     -44.2746      1.00000
      7       1.3979      1.00000
      8       4.9384      1.00000
      9       4.9384      1.00000
     10       7.3048      1.00000
     11       7.3048      1.00000
     12       7.4308      1.00000
     13       8.5803      1.00000
     14       8.5803      1.00000
     15       9.4946      1.00000
     16       9.6870      0.60096
     17       9.6870      0.00980
     18      19.1995      0.00000
     19      19.1995      0.00000
     20      19.4415      0.00000
     21      25.8101      0.00000
     22      25.8101      0.00000
     23      30.6974      0.00000
     24      33.3488      0.00000

 k-point     2 :       0.1500    0.0500    0.0500
  band No.  band energies     occupation 
      1     -44.5664      1.00000
      2     -44.5456      1.00000
      3     -44.5240      1.00000
      4     -44.3211      1.00000
      5     -44.2878      1.00000
      6     -44.2801      1.00000
      7       1.8016      1.00000
      8       5.1063      1.00000
      9       5.1085      1.00000
     10       7.2463      1.00000
     11       7.2945      1.00000
     12       7.5990      1.00000
     13       8.4142      1.00000
     14       8.6553      1.00000
     15       9.1039      1.00000
     16       9.3724      1.02105
     17       9.6655      0.13627
     18      17.0986      0.00000
     19      19.9184      0.00000
     20      20.0956      0.00000
     21      25.9617      0.00000
     22      27.1438      0.00000
     23      31.5525      0.00000
     24      32.1500      0.00000

 k-point     3 :       0.2500    0.0500    0.0500
  band No.  band energies     occupation 
      1     -44.5636      1.00000
      2     -44.5178      1.00000
      3     -44.4932      1.00000
      4     -44.3688      1.00000
      5     -44.3132      1.00000
      6     -44.3001      1.00000
      7       2.5671      1.00000
      8       5.3676      1.00000
      9       5.4275      1.00000
     10       7.2423      1.00000
     11       7.2873      1.00000
     12       7.8415      1.00000
     13       8.1078      1.00000
     14       8.6066      1.00000
     15       8.7946      1.00000
     16       8.8888      1.00000
     17       9.4857      1.03933
     18      14.5754      0.00000
     19      21.1876      0.00000
     20      21.3583      0.00000
     21      26.2943      0.00000
     22      27.9717      0.00000
     23      29.6287      0.00000
     24      31.2959      0.00000

 k-point     4 :       0.3500    0.0500    0.0500
  band No.  band energies     occupation 
      1     -44.5491      1.00000
      2     -44.4799      1.00000
      3     -44.4553      1.00000
      4     -44.4241      1.00000
      5     -44.3485      1.00000
      6     -44.3315      1.00000
      7       3.5892      1.00000
      8       5.5402      1.00000
      9       5.8726      1.00000
     10       7.2458      1.00000
     11       7.3213      1.00000
     12       7.7679      1.00000
     13       8.1303      1.00000
     14       8.1502      1.00000
     15       8.3928      1.00000
     16       9.0191      1.00000
     17       9.2002      1.03864
     18      12.2830      0.00000
     19      22.7944      0.00000
     20      23.0072      0.00000
     21      26.8753      0.00000
     22      27.8747      0.00000
     23      28.6104      0.00000
     24      29.1473      0.00000

 k-point     5 :       0.4500    0.0500    0.0500
  band No.  band energies     occupation 
      1     -44.5203      1.00000
      2     -44.4773      1.00000
      3     -44.4361      1.00000
      4     -44.4131      1.00000
      5     -44.3908      1.00000
      6     -44.3704      1.00000
      7       4.6410      1.00000
      8       5.3581      1.00000
      9       6.3947      1.00000
     10       6.9174      1.00000
     11       7.4991      1.00000
     12       7.7311      1.00000
     13       7.7624      1.00000
     14       7.9854      1.00000
     15       8.4990      1.00000
     16       8.8573      1.00000
     17       9.4831      0.98553
     18      10.5195      0.00000
     19      24.5322      0.00000
     20      24.9044      0.00000
     21      26.2266      0.00000
     22      26.9671      0.00000
     23      27.8211      0.00000
     24      29.2507      0.00000

 k-point     6 :       0.1500    0.1500    0.0500
  band No.  band energies     occupation 
      1     -44.5804      1.00000
      2     -44.5368      1.00000
      3     -44.4916      1.00000
      4     -44.3626      1.00000
      5     -44.2980      1.00000
      6     -44.2746      1.00000
      7       2.1894      1.00000
      8       5.2392      1.00000
      9       5.2980      1.00000
     10       7.0937      1.00000
     11       7.2374      1.00000
     12       7.8699      1.00000
     13       8.4385      1.00000
     14       8.6105      1.00000
     15       8.6245      1.00000
     16       9.1495      1.00690
     17       9.7346      0.03148
     18      17.1957      0.00000
     19      18.2808      0.00000
     20      20.6507      0.00000
     21      26.6282      0.00000
     22      28.5392      0.00000
     23      29.9219      0.00000
     24      31.9694      0.00000

 k-point     7 :       0.2500    0.1500    0.0500
  band No.  band energies     occupation 
      1     -44.5897      1.00000
      2     -44.5113      1.00000
      3     -44.4538      1.00000
      4     -44.4173      1.00000
      5     -44.3210      1.00000
      6     -44.2821      1.00000
      7       2.9158      1.00000
      8       5.4555      1.00000
      9       5.6207      1.00000
     10       6.9882      1.00000
     11       7.1824      1.00000
     12       8.1057      1.00000
     13       8.2001      1.00000
     14       8.2825      1.00000
     15       8.7216      1.00000
     16       8.7243      1.00000
     17       9.6884      0.28936
     18      14.9837      0.00000
     19      19.0119      0.00000
     20      21.7955      0.00000
     21      27.0198      0.00000
     22      27.7477      0.00000
     23      29.9238      0.00000
     24      30.6412      0.00000

 k-point     8 :       0.3500    0.1500    0.0500
  band No.  band energies     occupation 
      1     -44.5856      1.00000
      2     -44.4758      1.00000
      3     -44.4750      1.00000
      4     -44.4131      1.00000
      5     -44.3535      1.00000
      6     -44.3030      1.00000
      7       3.8580      1.00000
      8       5.5955      1.00000
      9       6.0117      1.00000
     10       6.9645      1.00000
     11       7.1189      1.00000
     12       7.6670      1.00000
     13       8.0931      1.00000
     14       8.3376      1.00000
     15       8.5642      1.00000
     16       8.9631      1.00000
     17       9.4967      0.92403
     18      12.6531      0.00000
     19      20.3760      0.00000
     20      23.3119      0.00000
     21      25.6603      0.00000
     22      27.5889      0.00000
     23      28.7790      0.00000
     24      30.9263      0.00000

 k-point     9 :       0.4500    0.1500    0.0500
  band No.  band energies     occupation 
      1     -44.5647      1.00000
      2     -44.5266      1.00000
      3     -44.4348      1.00000
      4     -44.3926      1.00000
      5     -44.3722      1.00000
      6     -44.3343      1.00000
      7       4.7817      1.00000
      8       5.4045      1.00000
      9       6.4367      1.00000
     10       6.8150      1.00000
     11       7.1497      1.00000
     12       7.3556      1.00000
     13       8.0549      1.00000
     14       8.1285      1.00000
     15       8.8892      1.00000
     16       9.2080      1.00000
     17       9.5411      0.77861
     18      10.7642      0.00000
     19      21.9647      0.00000
     20      23.7291      0.00000
     21      25.0472      0.00000
     22      26.8830      0.00000
     23      28.4945      0.00000
     24      29.8473      0.00000

 k-point    10 :       0.2500    0.2500    0.0500
  band No.  band energies     occupation 
      1     -44.6129      1.00000
      2     -44.4906      1.00000
      3     -44.4770      1.00000
      4     -44.4109      1.00000
      5     -44.3388      1.00000
      6     -44.2748      1.00000
      7       3.5387      1.00000
      8       5.5105      1.00000
      9       6.0141      1.00000
     10       6.7714      1.00000
     11       7.1537      1.00000
     12       7.5987      1.00000
     13       8.4262      1.00000
     14       8.4287      1.00000
     15       8.6229      1.00000
     16       8.6647      1.00000
     17       9.8078     -0.03388
     18      14.8628      0.00000
     19      17.4657      0.00000
     20      22.7546      0.00000
     21      25.3833      0.00000
     22      27.3661      0.00000
     23      30.0595      0.00000
     24      32.3850      0.00000

 k-point    11 :       0.3500    0.2500    0.0500
  band No.  band energies     occupation 
      1     -44.6221      1.00000
      2     -44.5351      1.00000
      3     -44.4618      1.00000
      4     -44.3694      1.00000
      5     -44.3641      1.00000
      6     -44.2820      1.00000
      7       4.2635      1.00000
      8       5.4678      1.00000
      9       6.4673      1.00000
     10       6.6639      1.00000
     11       7.1893      1.00000
     12       7.2435      1.00000
     13       8.2727      1.00000
     14       8.4045      1.00000
     15       8.8096      1.00000
     16       9.0697      1.02187
     17       9.7579      0.00402
     18      13.0480      0.00000
     19      18.1033      0.00000
     20      23.1677      0.00000
     21      24.0660      0.00000
     22      27.8480      0.00000
     23      28.7850      0.00000
     24      31.4418      0.00000

 k-point    12 :       0.4500    0.2500    0.0500
  band No.  band energies     occupation 
      1     -44.6124      1.00000
      2     -44.5825      1.00000
      3     -44.4287      1.00000
      4     -44.3950      1.00000
      5     -44.3321      1.00000
      6     -44.3020      1.00000
      7       4.8666      1.00000
      8       5.2597      1.00000
      9       6.6822      1.00000
     10       6.7708      1.00000
     11       7.0121      1.00000
     12       7.2242      1.00000
     13       8.3124      1.00000
     14       8.3953      1.00000
     15       9.1810      1.00000
     16       9.5467      0.95179
     17       9.7286      0.02983
     18      11.1092      0.00000
     19      19.4886      0.00000
     20      21.1930      0.00000
     21      25.5957      0.00000
     22      27.2067      0.00000
     23      28.6469      0.00000
     24      29.8690      0.00000

 k-point    13 :       0.3500    0.3500    0.0500
  band No.  band energies     occupation 
      1     -44.6452      1.00000
      2     -44.5897      1.00000
      3     -44.4425      1.00000
      4     -44.3796      1.00000
      5     -44.3311      1.00000
      6     -44.2749      1.00000
      7       4.6032      1.00000
      8       5.2501      1.00000
      9       6.4672      1.00000
     10       6.7900      1.00000
     11       7.0688      1.00000
     12       7.8004      1.00000
     13       8.3288      1.00000
     14       8.5818      1.00000
     15       8.7312      1.00000
     16       9.5044      0.96290
     17       9.8583     -0.00497
     18      12.6724      0.00000
     19      17.0752      0.00000
     20      20.9324      0.00000
     21      25.1100      0.00000
     22      28.2078      0.00000
     23      28.4079      0.00000
     24      30.7489      0.00000

 k-point    14 :       0.4500    0.3500    0.0500
  band No.  band energies     occupation 
      1     -44.6485      1.00000
      2     -44.6294      1.00000
      3     -44.4207      1.00000
      4     -44.3990      1.00000
      5     -44.3011      1.00000
      6     -44.2817      1.00000
      7       4.8277      1.00000
      8       5.0274      1.00000
      9       6.4159      1.00000
     10       6.5253      1.00000
     11       7.6335      1.00000
     12       8.0155      1.00000
     13       8.4770      1.00000
     14       8.6081      1.00000
     15       9.2343      1.00000
     16       9.7474      0.31710
     17      10.0489      0.00000
     18      11.2872      0.00000
     19      17.6521      0.00000
     20      19.0563      0.00000
     21      26.3160      0.00000
     22      27.4990      0.00000
     23      28.8183      0.00000
     24      29.7271      0.00000

 k-point    15 :       0.4500    0.4500    0.0500
  band No.  band energies     occupation 
      1     -44.6652      1.00000
      2     -44.6586      1.00000
      3     -44.4123      1.00000
      4     -44.4048      1.00000
      5     -44.2817      1.00000
      6     -44.2750      1.00000
      7       4.7955      1.00000
      8       4.8570      1.00000
      9       6.2866      1.00000
     10       6.3241      1.00000
     11       8.3604      1.00000
     12       8.5982      1.00000
     13       8.6193      1.00000
     14       8.7801      1.00000
     15       9.2762      1.00000
     16       9.7023      0.28338
     17      10.4350      0.00000
     18      10.9855      0.00000
     19      16.9428      0.00000
     20      17.5289      0.00000
     21      27.0343      0.00000
     22      27.4878      0.00000
     23      29.0848      0.00000
     24      29.4298      0.00000

 k-point    16 :       0.1500    0.1500    0.1500
  band No.  band energies     occupation 
      1     -44.5647      1.00000
      2     -44.5647      1.00000
      3     -44.4558      1.00000
      4     -44.4001      1.00000
      5     -44.2888      1.00000
      6     -44.2888      1.00000
      7       2.5667      1.00000
      8       5.4265      1.00000
      9       5.4265      1.00000
     10       7.0362      1.00000
     11       7.0362      1.00000
     12       8.0860      1.00000
     13       8.1860      1.00000
     14       8.5281      1.00000
     15       8.5281      1.00000
     16       9.4248      0.99979
     17       9.4248      1.11244
     18      17.8410      0.00000
     19      17.8410      0.00000
     20      19.2369      0.00000
     21      28.7873      0.00000
     22      28.7873      0.00000
     23      29.7385      0.00000
     24      29.7385      0.00000

 k-point    17 :       0.2500    0.1500    0.1500
  band No.  band energies     occupation 
      1     -44.5849      1.00000
      2     -44.5350      1.00000
      3     -44.4514      1.00000
      4     -44.4177      1.00000
      5     -44.3160      1.00000
      6     -44.2883      1.00000
      7       3.2654      1.00000
      8       5.6657      1.00000
      9       5.6998      1.00000
     10       6.9036      1.00000
     11       6.9349      1.00000
     12       7.5732      1.00000
     13       8.3823      1.00000
     14       8.5849      1.00000
     15       8.6826      1.00000
     16       8.9719      1.00000
     17       9.5062      0.95277
     18      15.4700      0.00000
     19      18.9549      0.00000
     20      19.8767      0.00000
     21      27.5255      0.00000
     22      28.5414      0.00000
     23      29.3029      0.00000
     24      30.5091      0.00000

 k-point    18 :       0.3500    0.1500    0.1500
  band No.  band energies     occupation 
      1     -44.5911      1.00000
      2     -44.5044      1.00000
      3     -44.4946      1.00000
      4     -44.3809      1.00000
      5     -44.3540      1.00000
      6     -44.2989      1.00000
      7       4.1486      1.00000
      8       5.8193      1.00000
      9       5.9789      1.00000
     10       6.7953      1.00000
     11       6.9294      1.00000
     12       7.2680      1.00000
     13       8.2260      1.00000
     14       8.5458      1.00000
     15       8.8081      1.00000
     16       9.1279      1.00000
     17       9.4066      0.92709
     18      13.1242      0.00000
     19      20.3546      0.00000
     20      21.0650      0.00000
     21      25.4923      0.00000
     22      26.4576      0.00000
     23      30.1152      0.00000
     24      31.4556      0.00000

 k-point    19 :       0.4500    0.1500    0.1500
  band No.  band energies     occupation 
      1     -44.5795      1.00000
      2     -44.5494      1.00000
      3     -44.4477      1.00000
      4     -44.3993      1.00000
      5     -44.3474      1.00000
      6     -44.3193      1.00000
      7       4.9803      1.00000
      8       5.5623      1.00000
[...]
     19      18.3221      0.00000
     20      20.7970      0.00000
     21      22.3835      0.00000
     22      24.8362      0.00000
     23      26.2507      0.00000
     24      30.1361      0.00000

 k-point    30 :       0.4500    0.3500    0.2500
  band No.  band energies     occupation 
      1     -42.0277      1.00000
      2     -42.0274      1.00000
      3     -41.8762      1.00000
      4     -41.8249      1.00000
      5     -41.7187      1.00000
      6     -41.7144      1.00000
      7       6.7329      1.00000
      8       7.0451      1.00000
      9       7.9675      1.00000
     10       7.9785      1.00000
     11       8.3646      1.00000
     12       8.4913      1.00000
     13      11.1841      0.00000
     14      11.2347      0.00000
     15      11.5149      0.00000
     16      11.5333      0.00000
     17      13.8171      0.00000
     18      14.8896      0.00000
     19      19.1260      0.00000
     20      20.5767      0.00000
     21      21.9128      0.00000
     22      23.4381      0.00000
     23      26.7661      0.00000
     24      28.2364      0.00000

 k-point    31 :       0.4500    0.4500    0.2500
  band No.  band energies     occupation 
      1     -42.0355      1.00000
      2     -42.0348      1.00000
      3     -41.8567      1.00000
      4     -41.8360      1.00000
      5     -41.7251      1.00000
      6     -41.7213      1.00000
      7       6.8531      1.00000
      8       6.9336      1.00000
      9       7.8847      1.00000
     10       7.8997      1.00000
     11       8.6613      1.00000
     12       8.7305      1.00000
     13      11.3009      0.00000
     14      11.3256      0.00000
     15      11.5264      0.00000
     16      11.5390      0.00000
     17      14.4939      0.00000
     18      15.0168      0.00000
     19      18.3895      0.00000
     20      19.0492      0.00000
     21      23.0061      0.00000
     22      24.1213      0.00000
     23      25.2331      0.00000
     24      26.3293      0.00000

 k-point    32 :       0.3500    0.3500    0.3500
  band No.  band energies     occupation 
      1     -42.0117      1.00000
      2     -41.9613      1.00000
      3     -41.9613      1.00000
      4     -41.7727      1.00000
      5     -41.7727      1.00000
      6     -41.7226      1.00000
      7       6.9265      1.00000
      8       7.5005      1.00000
      9       7.9278      1.00000
     10       7.9278      1.00000
     11       8.0743      1.00000
     12       8.0743      1.00000
     13      11.3764      0.00000
     14      11.3764      0.00000
     15      11.4152      0.00000
     16      11.4152      0.00000
     17      13.8655      0.00000
     18      17.4972      0.00000
     19      17.4972      0.00000
     20      19.8864      0.00000
     21      22.8235      0.00000
     22      22.8235      0.00000
     23      24.1461      0.00000
     24      28.0397      0.00000

 k-point    33 :       0.4500    0.3500    0.3500
  band No.  band energies     occupation 
      1     -42.0063      1.00000
      2     -41.9905      1.00000
      3     -41.8986      1.00000
      4     -41.8336      1.00000
      5     -41.7565      1.00000
      6     -41.7377      1.00000
      7       7.2800      1.00000
      8       7.3822      1.00000
      9       7.8724      1.00000
     10       7.9207      1.00000
     11       8.0468      1.00000
     12       8.2172      1.00000
     13      11.3596      0.00000
     14      11.3850      0.00000
     15      11.5028      0.00000
     16      11.5140      0.00000
     17      14.8062      0.00000
     18      16.0277      0.00000
     19      19.1307      0.00000
     20      20.4298      0.00000
     21      20.9114      0.00000
     22      21.6694      0.00000
     23      24.5509      0.00000
     24      26.0868      0.00000

 k-point    34 :       0.4500    0.4500    0.3500
  band No.  band energies     occupation 
      1     -41.9891      1.00000
      2     -41.9779      1.00000
      3     -41.8849      1.00000
      4     -41.8487      1.00000
      5     -41.7790      1.00000
      6     -41.7644      1.00000
      7       7.4285      1.00000
      8       7.4422      1.00000
      9       7.8025      1.00000
     10       7.8455      1.00000
     11       8.1731      1.00000
     12       8.2614      1.00000
     13      11.4436      0.00000
     14      11.4544      0.00000
     15      11.5333      0.00000
     16      11.5376      0.00000
     17      15.8060      0.00000
     18      16.5885      0.00000
     19      18.5408      0.00000
     20      19.5006      0.00000
     21      21.0125      0.00000
     22      22.1184      0.00000
     23      22.9694      0.00000
     24      24.1594      0.00000

 k-point    35 :       0.4500    0.4500    0.4500
  band No.  band energies     occupation 
      1     -41.9442      1.00000
      2     -41.9118      1.00000
      3     -41.9118      1.00000
      4     -41.8433      1.00000
      5     -41.8433      1.00000
      6     -41.8107      1.00000
      7       7.6627      1.00000
      8       7.8093      1.00000
      9       7.8093      1.00000
     10       7.9082      1.00000
     11       7.9534      1.00000
     12       7.9534      1.00000
     13      11.5392      0.00000
     14      11.5392      0.00000
     15      11.5423      0.00000
     16      11.5423      0.00000
     17      17.1204      0.00000
     18      18.3146      0.00000
     19      18.3146      0.00000
     20      20.0018      0.00000
     21      20.1675      0.00000
     22      20.1675      0.00000
     23      21.5181      0.00000
     24      22.3097      0.00000


--------------------------------------------------------------------------------------------------------


 soft charge-density along one line, spin component           1
         0         1         2         3         4         5         6         7         8         9
 total charge-density along one line
 
 soft charge-density along one line, spin component           2
         0         1         2         3         4         5         6         7         8         9
 total charge-density along one line
 
 pseudopotential strength for first ion, spin component:           1
-44.858  -0.000  -0.000   7.570   0.000   0.000  -0.000  -0.000
 -0.000 -44.858   0.000   0.000   7.570  -0.000   0.000  -0.000
 -0.000   0.000 -44.858   0.000  -0.000   7.570  -0.000   0.000
  7.570   0.000   0.000   5.638   0.000   0.000   0.000   0.000
  0.000   7.570  -0.000   0.000   5.638  -0.000  -0.000   0.000
  0.000  -0.000   7.570   0.000  -0.000   5.638   0.000  -0.000
 -0.000   0.000  -0.000   0.000  -0.000   0.000  -1.981   0.000
 -0.000  -0.000   0.000   0.000   0.000  -0.000   0.000  -1.981
  0.000  -0.000   0.000  -0.000   0.000  -0.000   0.000  -0.000
  0.000  -0.000  -0.000  -0.000   0.000   0.000  -0.000  -0.000
  0.000  -0.000  -0.000  -0.000   0.000   0.000   0.000   0.000
 -0.000   0.000  -0.000   0.000  -0.000   0.000  -2.496   0.000
 -0.000  -0.000   0.000   0.000   0.000  -0.000   0.000  -2.496
  0.000  -0.000   0.000  -0.000   0.000  -0.000   0.000  -0.000
  0.000  -0.000  -0.000  -0.000   0.000   0.000  -0.000  -0.000
  0.000  -0.000  -0.000  -0.000   0.000   0.000   0.000   0.000
  0.000   0.000   0.000   0.000   0.000   0.000   0.000   0.000
  0.000   0.000   0.000   0.000   0.000   0.000   0.000   0.000
 pseudopotential strength for first ion, spin component:           2
-42.886   0.000   0.000   6.737  -0.000  -0.000  -0.000  -0.000
  0.000 -42.886   0.000  -0.000   6.737  -0.000   0.000  -0.000
  0.000   0.000 -42.886  -0.000  -0.000   6.737  -0.000   0.000
  6.737  -0.000  -0.000   5.866  -0.000  -0.000  -0.000   0.000
 -0.000   6.737  -0.000  -0.000   5.866  -0.000  -0.000   0.000
 -0.000  -0.000   6.737  -0.000  -0.000   5.866   0.000  -0.000
 -0.000   0.000  -0.000  -0.000  -0.000   0.000  -0.455   0.000
 -0.000  -0.000   0.000   0.000   0.000  -0.000   0.000  -0.455
  0.000  -0.000  -0.000  -0.000   0.000  -0.000  -0.000  -0.000
  0.000  -0.000  -0.000  -0.000   0.000   0.000   0.000   0.000
  0.000  -0.000   0.000  -0.000   0.000   0.000   0.000  -0.000
 -0.000   0.000  -0.000   0.000  -0.000   0.000  -0.995   0.000
 -0.000  -0.000   0.000   0.000   0.000  -0.000   0.000  -0.995
  0.000  -0.000   0.000  -0.000   0.000  -0.000  -0.000  -0.000
  0.000  -0.000  -0.000  -0.000   0.000   0.000   0.000   0.000
  0.000  -0.000  -0.000  -0.000   0.000   0.000   0.000  -0.000
  0.000   0.000  -0.000   0.000   0.000   0.000  -0.000  -0.000
  0.000   0.000   0.000   0.000   0.000   0.000  -0.000  -0.000
 total augmentation occupancy for first ion, spin component:           1
  1.992   0.000   0.000  -0.026  -0.000   0.000   0.000   0.000   0.000   0.000   0.000   0.000   0.000   0.000   0.000  -0.000
  0.000   1.992   0.000   0.000  -0.026   0.000   0.000   0.000   0.000   0.000  -0.000   0.000   0.000   0.000   0.000   0.000
  0.000   0.000   1.992   0.000  -0.000  -0.026   0.000  -0.000   0.000   0.000  -0.000   0.000  -0.000   0.000   0.000  -0.000
 -0.026   0.000   0.000   0.201   0.000  -0.000   0.000   0.000   0.000  -0.000  -0.000   0.000   0.000  -0.000   0.000   0.000
  0.000  -0.026  -0.000   0.000   0.201   0.000   0.000   0.000   0.000   0.000   0.000   0.000   0.000   0.000   0.000   0.000
  0.000   0.000  -0.026   0.000   0.000   0.201   0.000  -0.000   0.000   0.000   0.000   0.000   0.000  -0.000   0.000   0.000
  0.000  -0.000   0.000   0.000   0.000   0.000   2.169  -0.000  -0.000  -0.000  -0.000  -1.221   0.000  -0.000  -0.000   0.000
  0.000   0.000   0.000   0.000   0.000   0.000   0.000   2.169  -0.000   0.000  -0.000   0.000  -1.221  -0.000  -0.000   0.000
 -0.000   0.000   0.000   0.000   0.000  -0.000  -0.000  -0.000   3.407   0.000   0.000  -0.000  -0.000  -2.183   0.000  -0.000
  0.000   0.000   0.000   0.000   0.000   0.000  -0.000   0.000   0.000   2.169  -0.000   0.000   0.000  -0.000  -1.221  -0.000
  0.000  -0.000   0.000   0.000  -0.000   0.000  -0.000  -0.000  -0.000   0.000   3.407  -0.000   0.000   0.000  -0.000  -2.183
  0.000   0.000   0.000   0.000   0.000   0.000  -1.221  -0.000  -0.000   0.000  -0.000   1.649  -0.000   0.000   0.000   0.000
  0.000   0.000   0.000   0.000   0.000   0.000  -0.000  -1.221  -0.000  -0.000   0.000  -0.000   1.649   0.000  -0.000   0.000
  0.000   0.000   0.000   0.000   0.000   0.000  -0.000  -0.000  -2.183  -0.000   0.000   0.000  -0.000   2.223  -0.000   0.000
  0.000   0.000   0.000   0.000   0.000   0.000   0.000   0.000   0.000  -1.221  -0.000   0.000   0.000   0.000   1.649   0.000
 -0.000   0.000  -0.000  -0.000  -0.000  -0.000   0.000  -0.000   0.000   0.000  -2.183  -0.000  -0.000   0.000  -0.000   2.223
 -0.000  -0.000  -0.000   0.000  -0.000   0.000   0.000  -0.000  -0.000  -0.000   0.000  -0.000  -0.000   0.000  -0.000  -0.000
  0.000   0.000   0.000   0.000   0.000   0.000  -0.000  -0.000  -0.000  -0.000   0.000   0.000   0.000   0.000  -0.000   0.000
 total augmentation occupancy for first ion, spin component:           2
 -0.002   0.000   0.000  -0.009  -0.000   0.000   0.000   0.000   0.000  -0.000   0.000   0.000   0.000   0.000   0.000   0.000
  0.000  -0.002   0.000   0.000  -0.009   0.000   0.000   0.000   0.000   0.000  -0.000   0.000   0.000   0.000   0.000   0.000
  0.000   0.000  -0.002   0.000  -0.000  -0.009   0.000  -0.000   0.000   0.000   0.000   0.000   0.000  -0.000   0.000   0.000
 -0.009   0.000   0.000  -0.020  -0.000  -0.000   0.000   0.000   0.000  -0.000   0.000   0.000   0.000   0.000   0.000   0.000
  0.000  -0.009  -0.000  -0.000  -0.020  -0.000   0.000   0.000   0.000   0.000   0.000   0.000   0.000   0.000   0.000   0.000
  0.000   0.000  -0.009  -0.000  -0.000  -0.020   0.000  -0.000  -0.000   0.000   0.000   0.000   0.000   0.000   0.000   0.000
  0.000   0.000   0.000   0.000   0.000   0.000   1.759  -0.000   0.000   0.000  -0.000  -0.662   0.000  -0.000  -0.000  -0.000
  0.000   0.000  -0.000   0.000   0.000   0.000  -0.000   1.759   0.000  -0.000  -0.000  -0.000  -0.662   0.000  -0.000  -0.000
  0.000   0.000  -0.000   0.000   0.000  -0.000  -0.000   0.000   2.822   0.000   0.000   0.000  -0.000  -1.163   0.000   0.000
 -0.000   0.000   0.000   0.000   0.000   0.000  -0.000  -0.000   0.000   1.759   0.000  -0.000  -0.000   0.000  -0.662  -0.000
  0.000  -0.000   0.000   0.000  -0.000   0.000  -0.000  -0.000   0.000  -0.000   2.822  -0.000   0.000   0.000   0.000  -1.163
  0.000   0.000   0.000   0.000  -0.000   0.000  -0.662   0.000   0.000  -0.000   0.000  -0.006  -0.000  -0.000   0.000  -0.000
  0.000   0.000   0.000   0.000   0.000   0.000   0.000  -0.662  -0.000  -0.000   0.000  -0.000  -0.006   0.000  -0.000   0.000
 -0.000   0.000   0.000   0.000   0.000   0.000  -0.000   0.000  -1.163   0.000   0.000   0.000   0.000   0.239  -0.000  -0.000
  0.000   0.000   0.000   0.000   0.000   0.000   0.000  -0.000   0.000  -0.662   0.000  -0.000  -0.000  -0.000  -0.006  -0.000
 -0.000   0.000  -0.000   0.000   0.000   0.000   0.000  -0.000  -0.000  -0.000  -1.163   0.000   0.000  -0.000  -0.000   0.239
  0.000   0.000   0.000   0.000  -0.000   0.000   0.000   0.000  -0.000  -0.000  -0.000   0.000   0.000   0.000   0.000  -0.000
  0.000   0.000   0.000  -0.000  -0.000  -0.000   0.000  -0.000  -0.000  -0.000   0.000  -0.000  -0.000   0.000   0.000  -0.000


------------------------ aborting loop because EDIFF is reached ----------------------------------------


 


 total charge     
 
# of ion       s       p       d       tot
------------------------------------------
    1        0.385   6.378   6.075  12.837
    2        0.385   6.378   6.075  12.837
--------------------------------------------------
tot          0.770  12.755  12.150  25.675
 


 magnetization (x)
 
# of ion       s       p       d       tot
------------------------------------------
    1       -0.008  -0.042   2.292   2.243
    2       -0.008  -0.042   2.292   2.243
--------------------------------------------------
tot         -0.015  -0.083   4.584   4.485
 
    CHARGE:  cpu time    0.0202: real time    0.0203
    FORLOC:  cpu time    0.0002: real time    0.0002
    FORNL :  cpu time    0.1204: real time    0.1207
    STRESS:  cpu time    0.3583: real time    0.3594
    FORCOR:  cpu time    0.0099: real time    0.0099
    FORHAR:  cpu time    0.0012: real time    0.0012
    MIXING:  cpu time    0.0005: real time    0.0005
    OFIELD:  cpu time    0.0000: real time    0.0000

  FORCE on cell =-STRESS in cart. coord.  units (eV):
  Direction    XX          YY          ZZ          XY          YZ          ZX
  --------------------------------------------------------------------------------------
  Alpha Z   218.87049   218.87049   218.87049
  Ewald   -1205.52018 -1205.52018 -1205.52018    -0.00000    -0.00000    -0.00000
  Hartree   363.30890   363.30890   363.30890    -0.00000    -0.00000    -0.00000
  E(xc)    -179.78008  -179.78008  -179.78008     0.00000    -0.00000     0.00000
  Local     289.64589   289.64589   289.64589    -0.00000    -0.00000    -0.00000
  n-local   -60.16464   -54.15762   -50.55371     2.76463    -1.55556     0.58576
  augment   285.40832   285.40832   285.40832     0.00000     0.00000     0.00000
  Kinetic   283.97623   282.54200   281.81331     2.92962    -0.72942    -0.07691
  Fock        0.00000     0.00000     0.00000     0.00000     0.00000     0.00000
  -------------------------------------------------------------------------------------
  Total      -0.24813    -0.24813    -0.24813     0.00000     0.00000     0.00000
  in kB     -17.35412   -17.35412   -17.35412     0.00000     0.00000     0.00000
  external pressure =      -17.35 kB  Pullay stress =        0.00 kB


 VOLUME and BASIS-vectors are now :
 -----------------------------------------------------------------------------
  energy-cutoff  :      700.00
  volume of cell :       22.91
      direct lattice vectors                 reciprocal lattice vectors
     2.840052000  0.000000000  0.000000000     0.352106229  0.000000000  0.000000000
     0.000000000  2.840052000  0.000000000     0.000000000  0.352106229  0.000000000
     0.000000000  0.000000000  2.840052000     0.000000000  0.000000000  0.352106229

  length of vectors
     2.840052000  2.840052000  2.840052000     0.352106229  0.352106229  0.352106229


 FORCES acting on ions
    electron-ion (+dipol)            ewald-force                    non-local-force                 convergence-correction
 -----------------------------------------------------------------------------------------------
   -.114E-13 -.296E-13 -.600E-13   -.529E-15 -.103E-14 -.897E-14   -.258E-25 0.000E+00 0.000E+00   0.727E-14 0.610E-14 -.155E-13
   0.804E-12 0.748E-11 0.865E-11   0.472E-14 0.447E-14 0.926E-14   0.000E+00 0.000E+00 0.000E+00   0.111E-12 -.125E-13 -.110E-12
 -----------------------------------------------------------------------------------------------
   0.793E-12 0.745E-11 0.859E-11   0.419E-14 0.343E-14 0.284E-15   -.258E-25 0.000E+00 0.000E+00   0.118E-12 -.643E-14 -.125E-12
 
 
 POSITION                                       TOTAL-FORCE (eV/Angst)
 -----------------------------------------------------------------------------------
      0.00000      0.00000      0.00000        -0.000000     -0.000000     -0.000000
      1.42003      1.42003      1.42003         0.000000      0.000000      0.000000
 -----------------------------------------------------------------------------------
    total drift:                                0.000000      0.000000      0.000000


--------------------------------------------------------------------------------------------------------



  FREE ENERGIE OF THE ION-ELECTRON SYSTEM (eV)
  ---------------------------------------------------
  free  energy   TOTEN  =       -16.51385041 eV

  energy  without entropy=      -16.51385041  energy(sigma->0) =      -16.51385041
 


--------------------------------------------------------------------------------------------------------


    POTLOK:  cpu time    0.0153: real time    0.0154


--------------------------------------------------------------------------------------------------------


     LOOP+:  cpu time    9.2377: real time    9.2814
    4ORBIT:  cpu time    0.0000: real time    0.0000
 


 total charge     
 
# of ion       s       p       d       tot
------------------------------------------
    1        0.385   6.378   6.075  12.837
    2        0.385   6.378   6.075  12.837
--------------------------------------------------
tot          0.770  12.755  12.150  25.675
 


 magnetization (x)
 
# of ion       s       p       d       tot
------------------------------------------
    1       -0.008  -0.042   2.292   2.243
    2       -0.008  -0.042   2.292   2.243
--------------------------------------------------
tot         -0.015  -0.083   4.584   4.485
 
 BZINTS: Fermi energy:  9.622560; 28.000000 electrons
         Band energy:-399.269897;  BLOECHL correction: -0.034712

 total amount of memory used by VASP MPI-rank0    34076. kBytes
=======================================================================

   base      :      30000. kBytes
   nonlr-proj:       1192. kBytes
   fftplans  :        476. kBytes
   grid      :       1141. kBytes
   one-center:         31. kBytes
   wavefun   :       1236. kBytes
 
  
  
 General timing and accounting informations for this job:
 ========================================================
  
                  Total CPU time used (sec):       10.018
                            User time (sec):        9.884
                          System time (sec):        0.135
                         Elapsed time (sec):       10.102
  
                   Maximum memory used (kb):       61912.
                   Average memory used (kb):           0.
  
                          Minor page faults:        14054
                          Major page faults:            0
                 Voluntary context switches:          215
