<?xml version="1.0" encoding="ISO-8859-1"?>
<modeling>
 <generator>
  <i name="program" type="string">vasp </i>
  <i name="version" type="string">5.4.4.18Apr17-6-g9f103f2a35  </i>
  <i name="subversion" type="string">(build Apr 28 2018 00:24:27) complex            parallel </i>
  <i name="platform" type="string">LinuxIFC </i>
  <i name="date" type="string">2021 09 07 </i>
  <i name="time" type="string">01:09:25 </i>
 </generator>
 <incar>
  <i type="string" name="PREC">accurate</i>
  <i type="string" name="ALGO"> Normal</i>
  <i type="int" name="ISPIN">     2</i>
  <i type="int" name="NELM">   100</i>
  <i type="int" name="IBRION">    -1</i>
  <i name="EDIFF">      0.00000010</i>
  <i type="int" name="NSW">     0</i>
  <i type="int" name="ISIF">     3</i>
  <i name="ENCUT">    700.00000000</i>
  <v name="MAGMOM">      5.00000000      5.00000000</v>
  <i type="string" name="LREAL"> Auto</i>
  <i type="int" name="ISMEAR">    -5</i>
  <i name="SIGMA">      0.05000000</i>
  <i type="logical" name="LWAVE"> F  </i>
  <i type="logical" name="LCHARG"> F  </i>
  <i type="logical" name="LVHAR"> F  </i>
  <i type="int" name="LORBIT">    11</i>
  <i type="logical" name="LASPH"> F  </i>
  <i type="logical" name="LAECHG"> F  </i>
  <v type="int" name="KPOINT_BSE">    -1     0     0     0</v>
  <i type="int" name="NELM">   100</i>
  <i type="logical" name="LASPH"> F  </i>
  <i type="int" name="LMAXTAU">     0</i>
 </incar>
 <structure name="primitive_cell" >
  <crystal>
   <varray name="basis" >
    <v>       1.42002600       1.42002600       1.42002600 </v>
    <v>       1.42002600      -1.42002600      -1.42002600 </v>
    <v>      -1.42002600       1.42002600      -1.42002600 </v>
   </varray>
   <i name="volume">     11.45378113 </i>
   <varray name="rec_basis" >
    <v>       0.35210623       0.35210623       0.00000000 </v>
    <v>       0.35210623       0.00000000      -0.35210623 </v>
    <v>       0.00000000       0.35210623      -0.35210623 </v>
   </varray>
  </crystal>
  <varray name="positions" >
   <v>       0.00000000       0.00000000       0.00000000 </v>
  </varray>
 </structure>
 <varray name="primitive_index" >
  <v type="int" >        1 </v>
 </varray>
 <kpoints>
  <generation param="Monkhorst-Pack">
   <v type="int" name="divisions">      10       10       10 </v>
   <v name="usershift">      0.00000000       0.00000000       0.00000000 </v>
   <v name="genvec1">      0.10000000       0.00000000       0.00000000 </v>
   <v name="genvec2">      0.00000000       0.10000000       0.00000000 </v>
   <v name="genvec3">      0.00000000       0.00000000       0.10000000 </v>
   <v name="shift">      0.50000000       0.50000000       0.50000000 </v>
  </generation>
  <varray name="kpointlist" >
   <v>       0.05000000       0.05000000       0.05000000 </v>
   <v>       0.15000000       0.05000000       0.05000000 </v>
   <v>       0.25000000       0.05000000       0.05000000 </v>
   <v>       0.35000000       0.05000000       0.05000000 </v>
   <v>       0.45000000       0.05000000       0.05000000 </v>
   <v>       0.15000000       0.15000000       0.05000000 </v>
   <v>       0.25000000       0.15000000       0.05000000 </v>
   <v>       0.35000000       0.15000000       0.05000000 </v>
   <v>       0.45000000       0.15000000       0.05000000 </v>
   <v>       0.25000000       0.25000000       0.05000000 </v>
   <v>       0.35000000       0.25000000       0.05000000 </v>
   <v>       0.45000000       0.25000000       0.05000000 </v>
   <v>       0.35000000       0.35000000       0.05000000 </v>
   <v>       0.45000000       0.35000000       0.05000000 </v>
   <v>       0.45000000       0.45000000       0.05000000 </v>
   <v>       0.15000000       0.15000000       0.15000000 </v>
   <v>       0.25000000       0.15000000       0.15000000 </v>
   <v>       0.35000000       0.15000000       0.15000000 </v>
   <v>       0.45000000       0.15000000       0.15000000 </v>
   <v>       0.25000000       0.25000000       0.15000000 </v>
   <v>       0.35000000       0.25000000       0.15000000 </v>
   <v>       0.45000000       0.25000000       0.15000000 </v>
   <v>       0.35000000       0.35000000       0.15000000 </v>
   <v>       0.45000000       0.35000000       0.15000000 </v>
   <v>       0.45000000       0.45000000       0.15000000 </v>
   <v>       0.25000000       0.25000000       0.25000000 </v>
   <v>       0.35000000       0.25000000       0.25000000 </v>
   <v>       0.45000000       0.25000000       0.25000000 </v>
   <v>       0.35000000       0.35000000       0.25000000 </v>
   <v>       0.45000000       0.35000000       0.25000000 </v>
   <v>       0.45000000       0.45000000       0.25000000 </v>
   <v>       0.35000000       0.35000000       0.35000000 </v>
   <v>       0.45000000       0.35000000       0.35000000 </v>
   <v>       0.45000000       0.45000000       0.35000000 </v>
   <v>       0.45000000       0.45000000       0.45000000 </v>
  </varray>
  <varray name="weights" >
   <v>       0.00800000 </v>
   <v>       0.02400000 </v>
   <v>       0.02400000 </v>
   <v>       0.02400000 </v>
   <v>       0.02400000 </v>
   <v>       0.02400000 </v>
   <v>       0.04800000 </v>
   <v>       0.04800000 </v>
   <v>       0.04800000 </v>
   <v>       0.02400000 </v>
   <v>       0.04800000 </v>
   <v>       0.04800000 </v>
   <v>       0.02400000 </v>
   <v>       0.04800000 </v>
   <v>       0.02400000 </v>
   <v>       0.00800000 </v>
   <v>       0.02400000 </v>
   <v>       0.02400000 </v>
   <v>       0.02400000 </v>
   <v>       0.02400000 </v>
   <v>       0.04800000 </v>
   <v>       0.04800000 </v>
   <v>       0.02400000 </v>
   <v>       0.04800000 </v>
   <v>       0.02400000 </v>
   <v>       0.00800000 </v>
   <v>       0.02400000 </v>
   <v>       0.02400000 </v>
   <v>       0.02400000 </v>
   <v>       0.04800000 </v>
   <v>       0.02400000 </v>
   <v>       0.00800000 </v>
   <v>       0.02400000 </v>
   <v>       0.02400000 </v>
   <v>       0.00800000 </v>
  </varray>
  <varray name="tetrahedronlist"  type="int" >
   <v type="int" >       24        1        2        2        6 </v>
   <v type="int" >       18        2        2        6        6 </v>
   <v type="int" >       12        2        6        6       16 </v>
   <v type="int" >       12        2        3        6        7 </v>
   <v type="int" >       24        2        6        6        7 </v>
   <v type="int" >       12        6        6        7       16 </v>
   <v type="int" >       24        3        6        7        7 </v>
   <v type="int" >       24        6        7        7       17 </v>
   <v type="int" >       24        6        7       16       17 </v>
   <v type="int" >       12        3        4        7        8 </v>
   <v type="int" >       24        3        7        7        8 </v>
   <v type="int" >       12        7        7        8       17 </v>
   <v type="int" >       24        4        7        8        8 </v>
   <v type="int" >       12        7        8        8       18 </v>
   <v type="int" >       12        7        8       17       18 </v>
   <v type="int" >       12        4        5        8        9 </v>
   <v type="int" >       24        4        8        8        9 </v>
   <v type="int" >       12        8        8        9       18 </v>
   <v type="int" >       24        5        8        9        9 </v>
   <v type="int" >       12        8        9        9       19 </v>
   <v type="int" >       12        8        9       18       19 </v>
   <v type="int" >       30        5        5        9        9 </v>
   <v type="int" >       36        5        9        9        9 </v>
   <v type="int" >       12        9        9        9       19 </v>
   <v type="int" >        6        9        9       19       19 </v>
   <v type="int" >       18        1        1        2        2 </v>
   <v type="int" >       24        1        2        2        2 </v>
   <v type="int" >       12        2        2        2        6 </v>
   <v type="int" >       12        6        7       10       16 </v>
   <v type="int" >       12        7       10       16       17 </v>
   <v type="int" >       12       10       16       17       20 </v>
   <v type="int" >       12        7        8       11       17 </v>
   <v type="int" >       12        7       10       11       17 </v>
   <v type="int" >       12       10       11       17       20 </v>
   <v type="int" >       12        8       11       17       18 </v>
   <v type="int" >       12       11       17       18       21 </v>
   <v type="int" >       12       11       17       20       21 </v>
   <v type="int" >       12        8        9       12       18 </v>
   <v type="int" >       12        8       11       12       18 </v>
   <v type="int" >       12       11       12       18       21 </v>
   <v type="int" >       12        9       12       18       19 </v>
   <v type="int" >       12       12       18       19       22 </v>
   <v type="int" >       12       12       18       21       22 </v>
   <v type="int" >       12        9        9       12       19 </v>
   <v type="int" >       12        9       12       12       19 </v>
   <v type="int" >       12       12       12       19       22 </v>
   <v type="int" >       12        9       12       19       19 </v>
   <v type="int" >       12       12       19       19       22 </v>
   <v type="int" >       12       12       19       22       22 </v>
   <v type="int" >       12        8        9       11       19 </v>
   <v type="int" >       12        9       11       12       19 </v>
   <v type="int" >       12       11       12       19       22 </v>
   <v type="int" >       12        8       11       18       19 </v>
   <v type="int" >       12       11       18       19       21 </v>
   <v type="int" >       12       11       19       21       22 </v>
   <v type="int" >       12        7        8       10       18 </v>
   <v type="int" >       12        8       10       11       18 </v>
   <v type="int" >       12       10       11       18       21 </v>
   <v type="int" >       12        7       10       17       18 </v>
   <v type="int" >       12       10       17       18       20 </v>
   <v type="int" >       12       10       18       20       21 </v>
   <v type="int" >       12        7        7       10       17 </v>
   <v type="int" >       12        7       10       17       20 </v>
   <v type="int" >       12        7       16       17       17 </v>
   <v type="int" >       12        7       17       17       20 </v>
   <v type="int" >       12        2        3        6       16 </v>
   <v type="int" >       12        3        6        7       16 </v>
   <v type="int" >       12        3        7       16       17 </v>
   <v type="int" >       12        2        2        3        6 </v>
   <v type="int" >       12        2        3        3        6 </v>
   <v type="int" >       12        3        3        6        7 </v>
   <v type="int" >       12        2        3        6        6 </v>
   <v type="int" >       12        3        6        6        7 </v>
   <v type="int" >       12       10       11       13       20 </v>
   <v type="int" >       12       11       13       20       21 </v>
   <v type="int" >       12       13       20       21       23 </v>
   <v type="int" >       12       11       12       14       21 </v>
   <v type="int" >       12       11       13       14       21 </v>
   <v type="int" >       12       13       14       21       23 </v>
   <v type="int" >       12       12       14       21       22 </v>
   <v type="int" >       12       14       21       22       24 </v>
   <v type="int" >       12       14       21       23       24 </v>
   <v type="int" >       12       12       12       14       22 </v>
   <v type="int" >       12       12       14       14       22 </v>
   <v type="int" >       12       14       14       22       24 </v>
   <v type="int" >       12       12       14       22       22 </v>
   <v type="int" >       12       14       22       22       24 </v>
   <v type="int" >       12       14       22       24       24 </v>
   <v type="int" >       12       11       12       13       22 </v>
   <v type="int" >       12       12       13       14       22 </v>
   <v type="int" >       12       13       14       22       24 </v>
   <v type="int" >       12       11       13       21       22 </v>
   <v type="int" >       12       13       21       22       23 </v>
   <v type="int" >       12       13       22       23       24 </v>
   <v type="int" >       12       10       11       11       21 </v>
   <v type="int" >       12       11       11       13       21 </v>
   <v type="int" >       12       11       13       21       23 </v>
   <v type="int" >       12       10       11       20       21 </v>
   <v type="int" >       12       11       20       21       21 </v>
   <v type="int" >       12       11       21       21       23 </v>
   <v type="int" >       12        7        8       10       20 </v>
   <v type="int" >       12        8       10       11       20 </v>
   <v type="int" >       12        8       11       20       21 </v>
   <v type="int" >       12        7        8       17       20 </v>
   <v type="int" >       12        8       17       18       20 </v>
   <v type="int" >       12        8       18       20       21 </v>
   <v type="int" >       12        3        4        7       17 </v>
   <v type="int" >       12        4        7        8       17 </v>
   <v type="int" >       12        4        8       17       18 </v>
   <v type="int" >       12        3        3        4        7 </v>
   <v type="int" >       12        3        4        4        7 </v>
   <v type="int" >       12        4        4        7        8 </v>
   <v type="int" >       12        3        4        7        7 </v>
   <v type="int" >       12        4        7        7        8 </v>
   <v type="int" >       12       13       14       15       23 </v>
   <v type="int" >       12       14       15       23       24 </v>
   <v type="int" >       12       15       23       24       25 </v>
   <v type="int" >       24       14       14       15       24 </v>
   <v type="int" >       12       14       15       15       24 </v>
   <v type="int" >       12       15       15       24       25 </v>
   <v type="int" >       12       14       15       24       24 </v>
   <v type="int" >       12       15       24       24       25 </v>
   <v type="int" >       12       15       24       25       25 </v>
   <v type="int" >       12       13       14       14       24 </v>
   <v type="int" >       12       14       15       24       25 </v>
   <v type="int" >       12       13       14       23       24 </v>
   <v type="int" >       12       14       23       24       24 </v>
   <v type="int" >       24       14       24       24       25 </v>
   <v type="int" >       12       11       12       13       23 </v>
   <v type="int" >       12       12       13       14       23 </v>
   <v type="int" >       12       12       14       23       24 </v>
   <v type="int" >       12       11       12       21       23 </v>
   <v type="int" >       12       12       21       22       23 </v>
   <v type="int" >       12       12       22       23       24 </v>
   <v type="int" >       12        8        9       11       21 </v>
   <v type="int" >       12        9       11       12       21 </v>
   <v type="int" >       12        9       12       21       22 </v>
   <v type="int" >       12        8        9       18       21 </v>
   <v type="int" >       12        9       18       19       21 </v>
   <v type="int" >       12        9       19       21       22 </v>
   <v type="int" >       12        4        5        8       18 </v>
   <v type="int" >       12        5        8        9       18 </v>
   <v type="int" >       12        5        9       18       19 </v>
   <v type="int" >       12        4        4        5        8 </v>
   <v type="int" >       12        4        5        5        8 </v>
   <v type="int" >       12        5        5        8        9 </v>
   <v type="int" >       12        4        5        8        8 </v>
   <v type="int" >       12        5        8        8        9 </v>
   <v type="int" >       12       15       15       15       25 </v>
   <v type="int" >       12       15       15       25       25 </v>
   <v type="int" >       12       15       25       25       25 </v>
   <v type="int" >       12       14       14       15       25 </v>
   <v type="int" >       12       14       15       15       25 </v>
   <v type="int" >       12       14       15       25       25 </v>
   <v type="int" >       12       14       14       24       25 </v>
   <v type="int" >       12       14       24       25       25 </v>
   <v type="int" >       12       12       12       14       24 </v>
   <v type="int" >       12       12       14       14       24 </v>
   <v type="int" >       12       12       14       24       24 </v>
   <v type="int" >       12       12       12       22       24 </v>
   <v type="int" >       12       12       22       22       24 </v>
   <v type="int" >       12       12       22       24       24 </v>
   <v type="int" >       12        9        9       12       22 </v>
   <v type="int" >       12        9       12       12       22 </v>
   <v type="int" >       12        9       12       22       22 </v>
   <v type="int" >       12        9        9       19       22 </v>
   <v type="int" >       12        9       19       19       22 </v>
   <v type="int" >       12        9       19       22       22 </v>
   <v type="int" >       12        5        5        9       19 </v>
   <v type="int" >       12        5        9        9       19 </v>
   <v type="int" >       12        5        9       19       19 </v>
   <v type="int" >       24        5        5        5        9 </v>
   <v type="int" >       12       13       14       15       25 </v>
   <v type="int" >       12       13       14       24       25 </v>
   <v type="int" >       12       13       23       24       25 </v>
   <v type="int" >       12       11       12       14       24 </v>
   <v type="int" >       12       11       13       14       24 </v>
   <v type="int" >       12       11       13       23       24 </v>
   <v type="int" >       12       11       12       22       24 </v>
   <v type="int" >       12       11       21       22       24 </v>
   <v type="int" >       12       11       21       23       24 </v>
   <v type="int" >       12        8        9       12       22 </v>
   <v type="int" >       12        8       11       12       22 </v>
   <v type="int" >       12        8       11       21       22 </v>
   <v type="int" >       12        8        9       19       22 </v>
   <v type="int" >       12        8       18       19       22 </v>
   <v type="int" >       12        8       18       21       22 </v>
   <v type="int" >       12        4        5        9       19 </v>
   <v type="int" >       12        4        8        9       19 </v>
   <v type="int" >       12        4        8       18       19 </v>
   <v type="int" >       12        4        5        5        9 </v>
   <v type="int" >       12        4        4        5        9 </v>
   <v type="int" >       12        4        4        8        9 </v>
   <v type="int" >       12        4        5        9        9 </v>
   <v type="int" >       12        4        8        9        9 </v>
   <v type="int" >       12       10       11       13       23 </v>
   <v type="int" >       12       10       11       21       23 </v>
   <v type="int" >       12       10       20       21       23 </v>
   <v type="int" >       12        7        8       11       21 </v>
   <v type="int" >       12        7       10       11       21 </v>
   <v type="int" >       12        7       10       20       21 </v>
   <v type="int" >       12        7        8       18       21 </v>
   <v type="int" >       12        7       17       18       21 </v>
   <v type="int" >       12        7       17       20       21 </v>
   <v type="int" >       12        3        4        8       18 </v>
   <v type="int" >       12        3        7        8       18 </v>
   <v type="int" >       12        3        7       17       18 </v>
   <v type="int" >       12        3        4        4        8 </v>
   <v type="int" >       12        3        3        4        8 </v>
   <v type="int" >       12        3        3        7        8 </v>
   <v type="int" >       12        3        4        8        8 </v>
   <v type="int" >       12        3        7        8        8 </v>
   <v type="int" >       12        6        7       10       20 </v>
   <v type="int" >       12        6        7       17       20 </v>
   <v type="int" >       12        6       16       17       20 </v>
   <v type="int" >       12        2        3        7       17 </v>
   <v type="int" >       12        2        6        7       17 </v>
   <v type="int" >       12        2        6       16       17 </v>
   <v type="int" >       12        2        3        3        7 </v>
   <v type="int" >       12        2        2        3        7 </v>
   <v type="int" >       12        2        2        6        7 </v>
   <v type="int" >       12        2        3        7        7 </v>
   <v type="int" >       12        2        6        7        7 </v>
   <v type="int" >       12        1        2        6       16 </v>
   <v type="int" >       12        1        1        2        6 </v>
   <v type="int" >       12        1        2        6        6 </v>
   <v type="int" >       12        1        1        1        2 </v>
   <v type="int" >       12       16       17       17       20 </v>
   <v type="int" >       12       17       17       20       20 </v>
   <v type="int" >       12       17       20       20       26 </v>
   <v type="int" >       12       17       18       20       21 </v>
   <v type="int" >       12       17       20       20       21 </v>
   <v type="int" >       12       20       20       21       26 </v>
   <v type="int" >       12       18       20       21       21 </v>
   <v type="int" >       24       20       21       21       27 </v>
   <v type="int" >       24       20       21       26       27 </v>
   <v type="int" >       12       18       19       21       22 </v>
   <v type="int" >       12       18       21       21       22 </v>
   <v type="int" >       12       21       21       22       27 </v>
   <v type="int" >       12       19       21       22       22 </v>
   <v type="int" >       12       21       22       22       28 </v>
   <v type="int" >       12       21       22       27       28 </v>
   <v type="int" >        6       19       19       22       22 </v>
   <v type="int" >       12       19       22       22       22 </v>
   <v type="int" >       12       22       22       22       28 </v>
   <v type="int" >        6       22       22       28       28 </v>
   <v type="int" >        6        6        6        7        7 </v>
   <v type="int" >       12        6        7        7        7 </v>
   <v type="int" >       12        7        7        7       10 </v>
   <v type="int" >        6        7        7       10       10 </v>
   <v type="int" >       12       20       21       23       26 </v>
   <v type="int" >       12       21       23       26       27 </v>
   <v type="int" >       12       23       26       27       29 </v>
   <v type="int" >       12       21       22       24       27 </v>
   <v type="int" >       12       21       23       24       27 </v>
   <v type="int" >       12       23       24       27       29 </v>
   <v type="int" >       12       22       24       27       28 </v>
   <v type="int" >       12       24       27       28       30 </v>
   <v type="int" >       12       24       27       29       30 </v>
   <v type="int" >       12       22       22       24       28 </v>
   <v type="int" >       12       22       24       24       28 </v>
   <v type="int" >       12       24       24       28       30 </v>
   <v type="int" >       12       22       24       28       28 </v>
   <v type="int" >       12       24       28       28       30 </v>
   <v type="int" >       12       24       28       30       30 </v>
   <v type="int" >       12       21       22       23       28 </v>
   <v type="int" >       12       22       23       24       28 </v>
   <v type="int" >       12       23       24       28       30 </v>
   <v type="int" >       12       21       23       27       28 </v>
   <v type="int" >       12       23       27       28       29 </v>
   <v type="int" >       12       23       28       29       30 </v>
   <v type="int" >       12       21       21       23       27 </v>
   <v type="int" >       12       21       23       27       29 </v>
   <v type="int" >       12       21       26       27       27 </v>
   <v type="int" >       12       21       27       27       29 </v>
   <v type="int" >       12       17       18       20       26 </v>
   <v type="int" >       12       18       20       21       26 </v>
   <v type="int" >       12       18       21       26       27 </v>
   <v type="int" >       12        7        7        8       10 </v>
   <v type="int" >       12        7        8        8       10 </v>
   <v type="int" >       12        8        8       10       11 </v>
   <v type="int" >       12        7        8       10       10 </v>
   <v type="int" >       12        8       10       10       11 </v>
   <v type="int" >       12        8       10       11       11 </v>
   <v type="int" >       12       23       24       25       29 </v>
   <v type="int" >       12       24       25       29       30 </v>
   <v type="int" >       12       25       29       30       31 </v>
   <v type="int" >       24       24       24       25       30 </v>
   <v type="int" >       12       24       25       25       30 </v>
   <v type="int" >       12       25       25       30       31 </v>
   <v type="int" >       12       24       25       30       30 </v>
   <v type="int" >       12       25       30       30       31 </v>
   <v type="int" >       12       25       30       31       31 </v>
   <v type="int" >       12       23       24       24       30 </v>
   <v type="int" >       12       24       25       30       31 </v>
   <v type="int" >       12       23       24       29       30 </v>
   <v type="int" >       12       24       29       30       30 </v>
   <v type="int" >       24       24       30       30       31 </v>
   <v type="int" >       12       21       22       23       29 </v>
   <v type="int" >       12       22       23       24       29 </v>
   <v type="int" >       12       22       24       29       30 </v>
   <v type="int" >       12       21       22       27       29 </v>
   <v type="int" >       12       22       27       28       29 </v>
   <v type="int" >       12       22       28       29       30 </v>
   <v type="int" >       12       18       19       21       27 </v>
   <v type="int" >       12       19       21       22       27 </v>
   <v type="int" >       12       19       22       27       28 </v>
   <v type="int" >       12        8        8        9       11 </v>
   <v type="int" >       12        8        9        9       11 </v>
   <v type="int" >       12        9        9       11       12 </v>
   <v type="int" >       12        8        9       11       11 </v>
   <v type="int" >       12        9       11       11       12 </v>
   <v type="int" >       12        9       11       12       12 </v>
   <v type="int" >       12       25       25       25       31 </v>
   <v type="int" >       12       25       25       31       31 </v>
   <v type="int" >       12       25       31       31       31 </v>
   <v type="int" >       12       24       24       25       31 </v>
   <v type="int" >       12       24       25       25       31 </v>
   <v type="int" >       12       24       25       31       31 </v>
   <v type="int" >       12       24       24       30       31 </v>
   <v type="int" >       12       24       30       31       31 </v>
   <v type="int" >       12       22       22       24       30 </v>
   <v type="int" >       12       22       24       24       30 </v>
   <v type="int" >       12       22       24       30       30 </v>
   <v type="int" >       12       22       22       28       30 </v>
   <v type="int" >       12       22       28       28       30 </v>
   <v type="int" >       12       22       28       30       30 </v>
   <v type="int" >       12       19       19       22       28 </v>
   <v type="int" >       12       19       22       22       28 </v>
   <v type="int" >       12       19       22       28       28 </v>
   <v type="int" >       24        9        9        9       12 </v>
   <v type="int" >       24        9        9       12       12 </v>
   <v type="int" >       24        9       12       12       12 </v>
   <v type="int" >       12       23       24       25       31 </v>
   <v type="int" >       12       23       24       30       31 </v>
   <v type="int" >       12       23       29       30       31 </v>
   <v type="int" >       12       21       22       24       30 </v>
   <v type="int" >       12       21       23       24       30 </v>
   <v type="int" >       12       21       23       29       30 </v>
   <v type="int" >       12       21       22       28       30 </v>
   <v type="int" >       12       21       27       28       30 </v>
   <v type="int" >       12       21       27       29       30 </v>
   <v type="int" >       12       18       19       22       28 </v>
   <v type="int" >       12       18       21       22       28 </v>
   <v type="int" >       12       18       21       27       28 </v>
   <v type="int" >       12        8        9        9       12 </v>
   <v type="int" >       12        8        8        9       12 </v>
   <v type="int" >       12        8        8       11       12 </v>
   <v type="int" >       12        8        9       12       12 </v>
   <v type="int" >       12        8       11       12       12 </v>
   <v type="int" >       12        8       11       11       12 </v>
   <v type="int" >       12       20       21       23       29 </v>
   <v type="int" >       12       20       21       27       29 </v>
   <v type="int" >       12       20       26       27       29 </v>
   <v type="int" >       12       17       18       21       27 </v>
   <v type="int" >       12       17       20       21       27 </v>
   <v type="int" >       12       17       20       26       27 </v>
   <v type="int" >       12        7        8        8       11 </v>
   <v type="int" >       12        7        7        8       11 </v>
   <v type="int" >       12        7        7       10       11 </v>
   <v type="int" >       12        7        8       11       11 </v>
   <v type="int" >       12        7       10       11       11 </v>
   <v type="int" >       12        7       10       10       11 </v>
   <v type="int" >       12       16       17       20       26 </v>
   <v type="int" >       12        6        7        7       10 </v>
   <v type="int" >       12        6        6        7       10 </v>
   <v type="int" >       12        6        7       10       10 </v>
   <v type="int" >       12        2        2        2        3 </v>
   <v type="int" >       12        2        2        3        3 </v>
   <v type="int" >       12        2        3        3        3 </v>
   <v type="int" >       12       26       27       27       29 </v>
   <v type="int" >       12       27       27       29       29 </v>
   <v type="int" >       12       27       29       29       32 </v>
   <v type="int" >       12       27       28       29       30 </v>
   <v type="int" >       12       27       29       29       30 </v>
   <v type="int" >       12       29       29       30       32 </v>
   <v type="int" >       12       28       29       30       30 </v>
   <v type="int" >       24       29       30       30       33 </v>
   <v type="int" >       24       29       30       32       33 </v>
   <v type="int" >        6       28       28       30       30 </v>
   <v type="int" >       12       28       30       30       30 </v>
   <v type="int" >       12       30       30       30       33 </v>
   <v type="int" >        6       30       30       33       33 </v>
   <v type="int" >        6       10       10       11       11 </v>
   <v type="int" >       12       10       11       11       11 </v>
   <v type="int" >       12       11       11       11       13 </v>
   <v type="int" >        6       11       11       13       13 </v>
   <v type="int" >       12       29       30       31       32 </v>
   <v type="int" >       12       30       31       32       33 </v>
   <v type="int" >       12       31       32       33       34 </v>
   <v type="int" >       24       30       30       31       33 </v>
   <v type="int" >       12       30       31       31       33 </v>
   <v type="int" >       12       31       31       33       34 </v>
   <v type="int" >       12       30       31       33       33 </v>
   <v type="int" >       12       31       33       33       34 </v>
   <v type="int" >       12       31       33       34       34 </v>
   <v type="int" >       12       30       31       33       34 </v>
   <v type="int" >       12       30       32       33       33 </v>
   <v type="int" >       24       30       33       33       34 </v>
   <v type="int" >       12       27       28       29       32 </v>
   <v type="int" >       12       28       29       30       32 </v>
   <v type="int" >       12       28       30       32       33 </v>
   <v type="int" >       12       11       11       12       13 </v>
   <v type="int" >       12       11       12       12       13 </v>
   <v type="int" >       12       12       12       13       14 </v>
   <v type="int" >       12       11       12       13       13 </v>
   <v type="int" >       12       12       13       13       14 </v>
   <v type="int" >       12       12       13       14       14 </v>
   <v type="int" >       12       31       31       31       34 </v>
   <v type="int" >       12       31       31       34       34 </v>
   <v type="int" >       12       31       34       34       34 </v>
   <v type="int" >       12       30       30       31       34 </v>
   <v type="int" >       12       30       31       31       34 </v>
   <v type="int" >       12       30       31       34       34 </v>
   <v type="int" >       12       30       30       33       34 </v>
   <v type="int" >       12       30       33       34       34 </v>
   <v type="int" >       12       28       28       30       33 </v>
   <v type="int" >       12       28       30       30       33 </v>
   <v type="int" >       12       28       30       33       33 </v>
   <v type="int" >       24       12       12       12       14 </v>
   <v type="int" >       24       12       12       14       14 </v>
   <v type="int" >       24       12       14       14       14 </v>
   <v type="int" >       12       29       30       31       34 </v>
   <v type="int" >       12       29       30       33       34 </v>
   <v type="int" >       12       29       32       33       34 </v>
   <v type="int" >       12       27       28       30       33 </v>
   <v type="int" >       12       27       29       30       33 </v>
   <v type="int" >       12       27       29       32       33 </v>
   <v type="int" >       12       11       12       12       14 </v>
   <v type="int" >       12       11       11       12       14 </v>
   <v type="int" >       12       11       11       13       14 </v>
   <v type="int" >       12       11       12       14       14 </v>
   <v type="int" >       12       11       13       14       14 </v>
   <v type="int" >       12       11       13       13       14 </v>
   <v type="int" >       12       26       27       29       32 </v>
   <v type="int" >       12       10       11       11       13 </v>
   <v type="int" >       12       10       10       11       13 </v>
   <v type="int" >       12       10       11       13       13 </v>
   <v type="int" >       12        3        3        3        4 </v>
   <v type="int" >       12        3        3        4        4 </v>
   <v type="int" >       12        3        4        4        4 </v>
   <v type="int" >       12       32       33       33       34 </v>
   <v type="int" >       18       33       33       34       34 </v>
   <v type="int" >       24       33       34       34       35 </v>
   <v type="int" >       12       33       34       34       34 </v>
   <v type="int" >       24       34       34       34       35 </v>
   <v type="int" >       18       34       34       35       35 </v>
   <v type="int" >        6       13       13       14       14 </v>
   <v type="int" >       12       13       14       14       14 </v>
   <v type="int" >       36       14       14       14       15 </v>
   <v type="int" >       30       14       14       15       15 </v>
   <v type="int" >       12       34       35       35       35 </v>
   <v type="int" >       12       33       33       34       35 </v>
   <v type="int" >       12       33       34       35       35 </v>
   <v type="int" >       24       14       15       15       15 </v>
   <v type="int" >       12       32       33       34       35 </v>
   <v type="int" >       12       13       14       14       15 </v>
   <v type="int" >       12       13       13       14       15 </v>
   <v type="int" >       12       13       14       15       15 </v>
   <v type="int" >       12        4        4        4        5 </v>
   <v type="int" >       12        4        4        5        5 </v>
   <v type="int" >       12        4        5        5        5 </v>
   <v type="int" >        6       35       35       35       35 </v>
   <v type="int" >       18       15       15       15       15 </v>
   <v type="int" >       18        5        5        5        5 </v>
   <v type="int" >        6        1        1        1        1 </v>
  </varray>
  <i name="volumeweight">      0.00016667 </i>
 </kpoints>
 <parameters>
  <separator name="general" >
   <i type="string" name="SYSTEM">unknown system</i>
   <i type="logical" name="LCOMPAT"> F  </i>
  </separator>
  <separator name="electronic" >
   <i type="string" name="PREC">accura</i>
   <i name="ENMAX">    700.00000000</i>
   <i name="ENAUG">    578.34200000</i>
   <i name="EDIFF">      0.00000010</i>
   <i type="int" name="IALGO">    38</i>
   <i type="int" name="IWAVPR">    10</i>
   <i type="int" name="NBANDS">    24</i>
   <i name="NELECT">     28.00000000</i>
   <i type="int" name="TURBO">     0</i>
   <i type="int" name="IRESTART">     0</i>
   <i type="int" name="NREBOOT">     0</i>
   <i type="int" name="NMIN">     0</i>
   <i name="EREF">      0.00000000</i>
   <separator name="electronic smearing" >
    <i type="int" name="ISMEAR">    -5</i>
    <i name="SIGMA">      0.05000000</i>
    <i name="KSPACING">      0.50000000</i>
    <i type="logical" name="KGAMMA"> T  </i>
   </separator>
   <separator name="electronic projectors" >
    <i type="logical" name="LREAL"> T  </i>
    <v name="ROPT">     -0.00025000</v>
    <i type="int" name="LMAXPAW">  -100</i>
    <i type="int" name="LMAXMIX">     2</i>
    <i type="logical" name="NLSPLINE"> F  </i>
   </separator>
   <separator name="electronic startup" >
    <i type="int" name="ISTART">     0</i>
    <i type="int" name="ICHARG">     2</i>
    <i type="int" name="INIWAV">     1</i>
   </separator>
   <separator name="electronic spin" >
    <i type="int" name="ISPIN">     2</i>
    <i type="logical" name="LNONCOLLINEAR"> F  </i>
    <v name="MAGMOM">      5.00000000      5.00000000</v>
    <i name="NUPDOWN">     -1.00000000</i>
    <i type="logical" name="LSORBIT"> F  </i>
    <v name="SAXIS">      0.00000000      0.00000000      1.00000000</v>
    <i type="logical" name="LSPIRAL"> F  </i>
    <v name="QSPIRAL">      0.00000000      0.00000000      0.00000000</v>
    <i type="logical" name="LZEROZ"> F  </i>
   </separator>
   <separator name="electronic exchange-correlation" >
    <i type="logical" name="LASPH"> F  </i>
    <i type="logical" name="LMETAGGA"> F  </i>
   </separator>
   <separator name="electronic convergence" >
    <i type="int" name="NELM">   100</i>
    <i type="int" name="NELMDL">    -5</i>
    <i type="int" name="NELMIN">     2</i>
    <i name="ENINI">    700.00000000</i>
    <separator name="electronic convergence detail" >
     <i type="logical" name="LDIAG"> T  </i>
     <i type="logical" name="LSUBROT"> F  </i>
     <i name="WEIMIN">      0.00000000</i>
     <i name="EBREAK">      0.00000000</i>
     <i name="DEPER">      0.30000000</i>
     <i type="int" name="NRMM">     4</i>
     <i name="TIME">      0.40000000</i>
    </separator>
   </separator>
   <separator name="electronic mixer" >
    <i name="AMIX">      0.40000000</i>
    <i name="BMIX">      1.00000000</i>
    <i name="AMIN">      0.10000000</i>
    <i name="AMIX_MAG">      1.60000000</i>
    <i name="BMIX_MAG">      1.00000000</i>
    <separator name="electronic mixer details" >
     <i type="int" name="IMIX">     4</i>
     <i type="logical" name="MIXFIRST"> F  </i>
     <i type="int" name="MAXMIX">   -45</i>
     <i name="WC">    100.00000000</i>
     <i type="int" name="INIMIX">     1</i>
     <i type="int" name="MIXPRE">     1</i>
     <i type="int" name="MREMOVE">     5</i>
    </separator>
   </separator>
   <separator name="electronic dipolcorrection" >
    <i type="logical" name="LDIPOL"> F  </i>
    <i type="logical" name="LMONO"> F  </i>
    <i type="int" name="IDIPOL">     0</i>
    <i name="EPSILON">      1.00000000</i>
    <v name="DIPOL">   -100.00000000   -100.00000000   -100.00000000</v>
    <i name="EFIELD">      0.00000000</i>
   </separator>
  </separator>
  <separator name="grids" >
   <i type="int" name="NGX">    28</i>
   <i type="int" name="NGY">    28</i>
   <i type="int" name="NGZ">    28</i>
   <i type="int" name="NGXF">    56</i>
   <i type="int" name="NGYF">    56</i>
   <i type="int" name="NGZF">    56</i>
   <i type="logical" name="ADDGRID"> F  </i>
  </separator>
  <separator name="ionic" >
   <i type="int" name="NSW">     0</i>
   <i type="int" name="IBRION">    -1</i>
   <i type="int" name="MDALGO">     0</i>
   <i type="int" name="ISIF">     3</i>
   <i name="PSTRESS">      0.00000000</i>
   <i name="EDIFFG">      0.00000100</i>
   <i type="int" name="NFREE">     0</i>
   <i name="POTIM">      0.50000000</i>
   <i name="SMASS">     -3.00000000</i>
   <i name="SCALEE">      1.00000000</i>
  </separator>
  <separator name="ionic md" >
   <i name="TEBEG">      0.00010000</i>
   <i name="TEEND">      0.00010000</i>
   <i type="int" name="NBLOCK">     1</i>
   <i type="int" name="KBLOCK">     1</i>
   <i type="int" name="NPACO">   256</i>
   <i name="APACO">     16.00000000</i>
  </separator>
  <separator name="symmetry" >
   <i type="int" name="ISYM">     2</i>
   <i name="SYMPREC">      0.00001000</i>
  </separator>
  <separator name="dos" >
   <i type="int" name="LORBIT">    11</i>
   <v name="RWIGS">     -1.00000000</v>
   <i type="int" name="NEDOS">   301</i>
   <i name="EMIN">     10.00000000</i>
   <i name="EMAX">    -10.00000000</i>
   <i name="EFERMI">      0.00000000</i>
  </separator>
  <separator name="writing" >
   <i type="int" name="NWRITE">     2</i>
   <i type="logical" name="LWAVE"> F  </i>
   <i type="logical" name="LDOWNSAMPLE"> F  </i>
   <i type="logical" name="LCHARG"> F  </i>
   <i type="logical" name="LPARD"> F  </i>
   <i type="logical" name="LVTOT"> F  </i>
   <i type="logical" name="LVHAR"> F  </i>
   <i type="logical" name="LELF"> F  </i>
   <i type="logical" name="LOPTICS"> F  </i>
   <v name="STM">      0.00000000      0.00000000      0.00000000      0.00000000      0.00000000      0.00000000      0.00000000</v>
  </separator>
  <separator name="performance" >
   <i type="int" name="NPAR">     6</i>
   <i type="int" name="NSIM">     4</i>
   <i type="int" name="NBLK">    -1</i>
   <i type="logical" name="LPLANE"> T  </i>
   <i type="logical" name="LSCALAPACK"> T  </i>
   <i type="logical" name="LSCAAWARE"> F  </i>
   <i type="logical" name="LSCALU"> F  </i>
   <i type="logical" name="LASYNC"> F  </i>
   <i type="logical" name="LORBITALREAL"> F  </i>
  </separator>
  <separator name="miscellaneous" >
   <i type="int" name="IDIOT">     3</i>
   <i type="int" name="ISPECIAL">     0</i>
   <i type="logical" name="LMUSIC"> F  </i>
   <v name="POMASS">     55.84700000</v>
   <v name="DARWINR">      0.00000000</v>
   <v name="DARWINV">      1.00000000</v>
   <i type="logical" name="LCORR"> T  </i>
  </separator>
  <i type="logical" name="GGA_COMPAT"> T  </i>
  <i type="logical" name="LBERRY"> F  </i>
  <i type="int" name="ICORELEVEL">     0</i>
  <i type="logical" name="LDAU"> F  </i>
  <i type="int" name="I_CONSTRAINED_M">     0</i>
  <separator name="electronic exchange-correlation" >
   <i type="string" name="GGA">--</i>
   <i type="int" name="VOSKOWN">     0</i>
   <i type="logical" name="LHFCALC"> F  </i>
   <i type="string" name="PRECFOCK"></i>
   <i type="logical" name="LSYMGRAD"> F  </i>
   <i type="logical" name="LHFONE"> F  </i>
   <i type="logical" name="LRHFCALC"> F  </i>
   <i type="logical" name="LTHOMAS"> F  </i>
   <i type="logical" name="LMODELHF"> F  </i>
   <i name="ENCUT4O">     -1.00000000</i>
   <i type="int" name="EXXOEP">     0</i>
   <i type="int" name="FOURORBIT">     0</i>
   <i name="AEXX">      0.00000000</i>
   <i name="HFALPHA">      0.00000000</i>
   <i name="MCALPHA">      0.00000000</i>
   <i name="ALDAX">      1.00000000</i>
   <i name="AGGAX">      1.00000000</i>
   <i name="ALDAC">      1.00000000</i>
   <i name="AGGAC">      1.00000000</i>
   <i type="int" name="NKREDX">     1</i>
   <i type="int" name="NKREDY">     1</i>
   <i type="int" name="NKREDZ">     1</i>
   <i type="logical" name="SHIFTRED"> F  </i>
   <i type="logical" name="ODDONLY"> F  </i>
   <i type="logical" name="EVENONLY"> F  </i>
   <i type="int" name="LMAXFOCK">     0</i>
   <i type="int" name="NMAXFOCKAE">     0</i>
   <i type="logical" name="LFOCKAEDFT"> F  </i>
   <i name="HFSCREEN">      0.00000000</i>
   <i name="HFSCREENC">      0.00000000</i>
   <i type="int" name="NBANDSGWLOW">     0</i>
  </separator>
  <separator name="vdW DFT" >
   <i type="logical" name="LUSE_VDW"> F  </i>
   <i name="Zab_VDW">     -0.84910000</i>
   <i name="PARAM1">      0.12340000</i>
   <i name="PARAM2">      1.00000000</i>
   <i name="PARAM3">      0.00000000</i>
  </separator>
  <separator name="model GW" >
   <i type="int" name="MODEL_GW">     0</i>
   <i name="MODEL_EPS0">      6.87226868</i>
   <i name="MODEL_ALPHA">      1.00000000</i>
  </separator>
  <separator name="linear response parameters" >
   <i type="logical" name="LEPSILON"> F  </i>
   <i type="logical" name="LRPA"> F  </i>
   <i type="logical" name="LNABLA"> F  </i>
   <i type="logical" name="LVEL"> F  </i>
   <i type="int" name="KINTER">     0</i>
   <i name="CSHIFT">      0.10000000</i>
   <i name="OMEGAMAX">     -1.00000000</i>
   <i name="DEG_THRESHOLD">      0.00200000</i>
   <i name="RTIME">     -0.10000000</i>
   <i name="WPLASMAI">      0.00000000</i>
   <v name="DFIELD">      0.00000000      0.00000000      0.00000000</v>
   <v name="WPLASMA">      0.00000000      0.00000000      0.00000000      0.00000000      0.00000000      0.00000000      0.00000000      0.00000000      0.00000000</v>
  </separator>
  <separator name="orbital magnetization" >
   <i type="logical" name="NUCIND"> F  </i>
   <v name="MAGPOS">      0.00000000      0.00000000      0.00000000</v>
   <i type="logical" name="LNICSALL"> T  </i>
   <i type="logical" name="ORBITALMAG"> F  </i>
   <i type="logical" name="LMAGBLOCH"> F  </i>
   <i type="logical" name="LCHIMAG"> F  </i>
   <i type="logical" name="LGAUGE"> T  </i>
   <i type="int" name="MAGATOM">     0</i>
   <v name="MAGDIPOL">      0.00000000      0.00000000      0.00000000</v>
   <v name="AVECCONST">      0.00000000      0.00000000      0.00000000</v>
  </separator>
  <separator name="response functions" >
   <i type="logical" name="LADDER"> F  </i>
   <i type="logical" name="LRPAFORCE"> F  </i>
   <i type="logical" name="LFXC"> F  </i>
   <i type="logical" name="LHARTREE"> T  </i>
   <i type="int" name="IBSE">     0</i>
   <v type="int" name="KPOINT">    -1     0     0     0</v>
   <i type="logical" name="LTCTE"> F  </i>
   <i type="logical" name="LTETE"> F  </i>
   <i type="logical" name="LTRIPLET"> F  </i>
   <i type="logical" name="LFXCEPS"> F  </i>
   <i type="logical" name="LFXHEG"> F  </i>
   <i type="int" name="NATURALO">     2</i>
   <i type="logical" name="L2ORDER"> F  </i>
   <i type="logical" name="LMP2LT"> F  </i>
   <i type="logical" name="LUSEW"> F  </i>
   <i name="ENCUTGW">     -2.00000000</i>
   <i name="ENCUTGWSOFT">     -2.00000000</i>
   <i name="ENCUTLF">     -1.00000000</i>
   <i type="int" name="LMAXMP2">    -1</i>
   <i name="SCISSOR">      0.00000000</i>
   <i type="int" name="NOMEGA">     0</i>
   <i type="int" name="NOMEGAR">     0</i>
   <i type="int" name="NBANDSGW">    -1</i>
   <i type="int" name="NBANDSO">    -1</i>
   <i type="int" name="NBANDSV">    -1</i>
   <i type="int" name="NELM">   100</i>
   <i type="int" name="NELMHF">     1</i>
   <i type="int" name="DIM">     3</i>
   <i type="int" name="ANTIRES">     0</i>
   <i name="OMEGAMAX">    -30.00000000</i>
   <i name="OMEGAMIN">    -30.00000000</i>
   <i name="OMEGATL">   -200.00000000</i>
   <i type="int" name="OMEGAGRID">   140</i>
   <i name="CSHIFT">     -0.10000000</i>
   <i type="logical" name="SELFENERGY"> F  </i>
   <i type="logical" name="LSPECTRAL"> F  </i>
   <i type="logical" name="LSPECTRALGW"> F  </i>
   <i type="logical" name="LSINGLES"> F  </i>
   <i type="logical" name="LFERMIGW"> F  </i>
   <i type="logical" name="ODDONLYGW"> F  </i>
   <i type="logical" name="EVENONLYGW"> F  </i>
   <i type="int" name="NKREDLFX">     1</i>
   <i type="int" name="NKREDLFY">     1</i>
   <i type="int" name="NKREDLFZ">     1</i>
   <i type="int" name="MAXMEM">  2800</i>
   <i type="int" name="TELESCOPE">     0</i>
   <i type="int" name="TAUPAR">     1</i>
   <i type="int" name="OMEGAPAR">    -1</i>
   <i name="LAMBDA">      1.00000000</i>
  </separator>
  <separator name="External order field" >
   <i name="OFIELD_KAPPA">      0.00000000</i>
   <v name="OFIELD_K">      0.00000000      0.00000000      0.00000000</v>
   <i name="OFIELD_Q6_NEAR">      0.00000000</i>
   <i name="OFIELD_Q6_FAR">      0.00000000</i>
   <i name="OFIELD_A">      0.00000000</i>
  </separator>
 </parameters>
 <atominfo>
  <atoms>       2 </atoms>
  <types>       1 </types>
  <array name="atoms" >
   <dimension dim="1">ion</dimension>
   <field type="string">element</field>
   <field type="int">atomtype</field>
   <set>
    <rc><c>Fe</c><c>   1</c></rc>
    <rc><c>Fe</c><c>   1</c></rc>
   </set>
  </array>
  <array name="atomtypes" >
   <dimension dim="1">type</dimension>
   <field type="int">atomspertype</field>
   <field type="string">element</field>
   <field>mass</field>
   <field>valence</field>
   <field type="string">pseudopotential</field>
   <set>
    <rc><c>   2</c><c>Fe</c><c>     55.84700000</c><c>     14.00000000</c><c>  PAW_PBE Fe_pv 02Aug2007               </c></rc>
   </set>
  </array>
 </atominfo>
 <structure name="initialpos" >
  <crystal>
   <varray name="basis" >
    <v>       2.84005200       0.00000000       0.00000000 </v>
    <v>       0.00000000       2.84005200       0.00000000 </v>
    <v>       0.00000000       0.00000000       2.84005200 </v>
   </varray>
   <i name="volume">     22.90756226 </i>
   <varray name="rec_basis" >
    <v>       0.35210623       0.00000000       0.00000000 </v>
    <v>       0.00000000       0.35210623       0.00000000 </v>
    <v>       0.00000000       0.00000000       0.35210623 </v>
   </varray>
  </crystal>
  <varray name="positions" >
   <v>       0.00000000       0.00000000       0.00000000 </v>
   <v>       0.50000000       0.50000000       0.50000000 </v>
  </varray>
 </structure>
 <calculation>
  <scstep>
   <time name="dav">    0.53    0.54</time>
   <time name="total">    0.58    0.60</time>
   <energy>
    <i name="alphaZ">    218.87048721 </i>
    <i name="ewald">  -3616.56080017 </i>
    <i name="hartreedc">  -1162.86386254 </i>
    <i name="XCdc">    147.54621443 </i>
    <i name="pawpsdc">   3997.93860218 </i>
    <i name="pawaedc">  -4177.34792201 </i>
    <i name="eentropy">      0.00000000 </i>
    <i name="bandstr">    -83.46628511 </i>
    <i name="atom">   4914.84282100 </i>
    <i name="e_fr_energy">    238.95925499 </i>
    <i name="e_wo_entrp">    238.95925499 </i>
    <i name="e_0_energy">    238.95925499 </i>
   </energy>
  </scstep>
  <scstep>
   <time name="dav">    0.51    0.52</time>
   <time name="total">    0.55    0.55</time>
   <energy>
    <i name="e_fr_energy">     -9.13379434 </i>
    <i name="e_wo_entrp">     -9.13379434 </i>
    <i name="e_0_energy">     -9.13379434 </i>
   </energy>
  </scstep>
  <scstep>
   <time name="dav">    0.57    0.57</time>
   <time name="total">    0.60    0.60</time>
   <energy>
    <i name="e_fr_energy">    -16.21560168 </i>
    <i name="e_wo_entrp">    -16.21560168 </i>
    <i name="e_0_energy">    -16.21560168 </i>
   </energy>
  </scstep>
  <scstep>
   <time name="dav">    0.58    0.58</time>
   <time name="total">    0.61    0.61</time>
   <energy>
    <i name="e_fr_energy">    -16.27318449 </i>
    <i name="e_wo_entrp">    -16.27318449 </i>
    <i name="e_0_energy">    -16.27318449 </i>
   </energy>
  </scstep>
  <scstep>
   <time name="dav">    0.56    0.56</time>
   <time name="total">    0.62    0.62</time>
   <energy>
    <i name="e_fr_energy">    -16.27423623 </i>
    <i name="e_wo_entrp">    -16.27423623 </i>
    <i name="e_0_energy">    -16.27423623 </i>
   </energy>
  </scstep>
  <scstep>
   <time name="dav">    0.52    0.52</time>
   <time name="total">    0.59    0.59</time>
   <energy>
    <i name="e_fr_energy">    -16.45800489 </i>
    <i name="e_wo_entrp">    -16.45800489 </i>
    <i name="e_0_energy">    -16.45800489 </i>
   </energy>
  </scstep>
  <scstep>
   <time name="dav">    0.51    0.51</time>
   <time name="total">    0.58    0.58</time>
   <energy>
    <i name="e_fr_energy">    -16.51257690 </i>
    <i name="e_wo_entrp">    -16.51257690 </i>
    <i name="e_0_energy">    -16.51257690 </i>
   </energy>
  </scstep>
  <scstep>
   <time name="dav">    0.56    0.56</time>
   <time name="total">    0.63    0.63</time>
   <energy>
    <i name="e_fr_energy">    -16.52227576 </i>
    <i name="e_wo_entrp">    -16.52227576 </i>
    <i name="e_0_energy">    -16.52227576 </i>
   </energy>
  </scstep>
  <scstep>
   <time name="dav">    0.54    0.54</time>
   <time name="total">    0.61    0.61</time>
   <energy>
    <i name="e_fr_energy">    -16.51398988 </i>
    <i name="e_wo_entrp">    -16.51398988 </i>
    <i name="e_0_energy">    -16.51398988 </i>
   </energy>
  </scstep>
  <scstep>
   <time name="dav">    0.51    0.51</time>
   <time name="total">    0.58    0.58</time>
   <energy>
    <i name="e_fr_energy">    -16.51379063 </i>
    <i name="e_wo_entrp">    -16.51379063 </i>
    <i name="e_0_energy">    -16.51379063 </i>
   </energy>
  </scstep>
  <scstep>
   <time name="dav">    0.54    0.54</time>
   <time name="total">    0.61    0.62</time>
   <energy>
    <i name="e_fr_energy">    -16.51385056 </i>
    <i name="e_wo_entrp">    -16.51385056 </i>
    <i name="e_0_energy">    -16.51385056 </i>
   </energy>
  </scstep>
  <scstep>
   <time name="dav">    0.56    0.57</time>
   <time name="total">    0.64    0.64</time>
   <energy>
    <i name="e_fr_energy">    -16.51385868 </i>
    <i name="e_wo_entrp">    -16.51385868 </i>
    <i name="e_0_energy">    -16.51385868 </i>
   </energy>
  </scstep>
  <scstep>
   <time name="dav">    0.53    0.53</time>
   <time name="total">    0.60    0.60</time>
   <energy>
    <i name="e_fr_energy">    -16.51385193 </i>
    <i name="e_wo_entrp">    -16.51385193 </i>
    <i name="e_0_energy">    -16.51385193 </i>
   </energy>
  </scstep>
  <scstep>
   <time name="dav">    0.44    0.44</time>
   <time name="total">    0.51    0.52</time>
   <energy>
    <i name="e_fr_energy">    -16.51385039 </i>
    <i name="e_wo_entrp">    -16.51385039 </i>
    <i name="e_0_energy">    -16.51385039 </i>
   </energy>
  </scstep>
  <scstep>
   <time name="dav">    0.34    0.34</time>
   <time name="total">    0.39    0.39</time>
   <energy>
    <i name="alphaZ">    218.87048721 </i>
    <i name="ewald">  -3616.56080017 </i>
    <i name="hartreedc">  -1089.92660489 </i>
    <i name="XCdc">    140.87610135 </i>
    <i name="pawpsdc">   4375.45028946 </i>
    <i name="pawaedc">  -4560.79624701 </i>
    <i name="eentropy">      0.00000000 </i>
    <i name="bandstr">   -399.26989736 </i>
    <i name="atom">   4914.84282100 </i>
    <i name="e_fr_energy">    -16.51385041 </i>
    <i name="e_wo_entrp">    -16.51385041 </i>
    <i name="e_0_energy">    -16.51385041 </i>
   </energy>
  </scstep>
  <structure>
   <crystal>
    <varray name="basis" >
     <v>       2.84005200       0.00000000       0.00000000 </v>
     <v>       0.00000000       2.84005200       0.00000000 </v>
     <v>       0.00000000       0.00000000       2.84005200 </v>
    </varray>
    <i name="volume">     22.90756226 </i>
    <varray name="rec_basis" >
     <v>       0.35210623       0.00000000       0.00000000 </v>
     <v>       0.00000000       0.35210623       0.00000000 </v>
     <v>       0.00000000       0.00000000       0.35210623 </v>
    </varray>
   </crystal>
   <varray name="positions" >
    <v>       0.00000000       0.00000000       0.00000000 </v>
    <v>       0.50000000       0.50000000       0.50000000 </v>
   </varray>
  </structure>
  <varray name="forces" >
   <v>      -0.00000000      -0.00000000      -0.00000000 </v>
   <v>       0.00000000       0.00000000       0.00000000 </v>
  </varray>
  <varray name="stress" >
   <v>     -17.35412054      -0.00000000       0.00000000 </v>
   <v>       0.00000000     -17.35412054      -0.00000000 </v>
   <v>      -0.00000000       0.00000000     -17.35412054 </v>
  </varray>
  <energy>
   <i name="e_fr_energy">    -16.51385041 </i>
   <i name="e_wo_entrp">    -16.51385041 </i>
   <i name="e_0_energy">      0.00000000 </i>
  </energy>
  <time name="totalsc">    9.24    9.28</time>
  <eigenvalues>
   <array>
    <dimension dim="1">band</dimension>
    <dimension dim="2">kpoint</dimension>
    <dimension dim="3">spin</dimension>
    <field>eigene</field>
    <field>occ</field>
    <set>
     <set comment="spin 1">
      <set comment="kpoint 1">
       <r>  -44.5604    1.0000 </r>
       <r>  -44.5604    1.0000 </r>
       <r>  -44.5461    1.0000 </r>
       <r>  -44.2893    1.0000 </r>
       <r>  -44.2746    1.0000 </r>
       <r>  -44.2746    1.0000 </r>
       <r>    1.3979    1.0000 </r>
       <r>    4.9384    1.0000 </r>
       <r>    4.9384    1.0000 </r>
       <r>    7.3048    1.0000 </r>
       <r>    7.3048    1.0000 </r>
       <r>    7.4308    1.0000 </r>
       <r>    8.5803    1.0000 </r>
       <r>    8.5803    1.0000 </r>
       <r>    9.4946    1.0000 </r>
       <r>    9.6870    0.6010 </r>
       <r>    9.6870    0.0098 </r>
       <r>   19.1995    0.0000 </r>
       <r>   19.1995    0.0000 </r>
       <r>   19.4415    0.0000 </r>
       <r>   25.8101    0.0000 </r>
       <r>   25.8101    0.0000 </r>
       <r>   30.6974    0.0000 </r>
       <r>   33.3488    0.0000 </r>
      </set>
      <set comment="kpoint 2">
       <r>  -44.5664    1.0000 </r>
       <r>  -44.5456    1.0000 </r>
       <r>  -44.5240    1.0000 </r>
       <r>  -44.3211    1.0000 </r>
       <r>  -44.2878    1.0000 </r>
       <r>  -44.2801    1.0000 </r>
       <r>    1.8016    1.0000 </r>
       <r>    5.1063    1.0000 </r>
       <r>    5.1085    1.0000 </r>
       <r>    7.2463    1.0000 </r>
       <r>    7.2945    1.0000 </r>
       <r>    7.5990    1.0000 </r>
       <r>    8.4142    1.0000 </r>
       <r>    8.6553    1.0000 </r>
       <r>    9.1039    1.0000 </r>
       <r>    9.3724    1.0210 </r>
       <r>    9.6655    0.1363 </r>
       <r>   17.0986    0.0000 </r>
       <r>   19.9184    0.0000 </r>
       <r>   20.0956    0.0000 </r>
       <r>   25.9617    0.0000 </r>
       <r>   27.1438    0.0000 </r>
       <r>   31.5525    0.0000 </r>
       <r>   32.1500    0.0000 </r>
      </set>
      <set comment="kpoint 3">
       <r>  -44.5636    1.0000 </r>
       <r>  -44.5178    1.0000 </r>
       <r>  -44.4932    1.0000 </r>
       <r>  -44.3688    1.0000 </r>
       <r>  -44.3132    1.0000 </r>
       <r>  -44.3001    1.0000 </r>
       <r>    2.5671    1.0000 </r>
       <r>    5.3676    1.0000 </r>
       <r>    5.4275    1.0000 </r>
       <r>    7.2423    1.0000 </r>
       <r>    7.2873    1.0000 </r>
       <r>    7.8415    1.0000 </r>
       <r>    8.1078    1.0000 </r>
       <r>    8.6066    1.0000 </r>
       <r>    8.7946    1.0000 </r>
       <r>    8.8888    1.0000 </r>
       <r>    9.4857    1.0393 </r>
       <r>   14.5754    0.0000 </r>
       <r>   21.1876    0.0000 </r>
       <r>   21.3583    0.0000 </r>
       <r>   26.2943    0.0000 </r>
       <r>   27.9717    0.0000 </r>
       <r>   29.6287    0.0000 </r>
       <r>   31.2959    0.0000 </r>
      </set>
      <set comment="kpoint 4">
       <r>  -44.5491    1.0000 </r>
       <r>  -44.4799    1.0000 </r>
       <r>  -44.4553    1.0000 </r>
       <r>  -44.4241    1.0000 </r>
       <r>  -44.3485    1.0000 </r>
       <r>  -44.3315    1.0000 </r>
       <r>    3.5892    1.0000 </r>
       <r>    5.5402    1.0000 </r>
       <r>    5.8726    1.0000 </r>
       <r>    7.2458    1.0000 </r>
       <r>    7.3213    1.0000 </r>
       <r>    7.7679    1.0000 </r>
       <r>    8.1303    1.0000 </r>
       <r>    8.1502    1.0000 </r>
       <r>    8.3928    1.0000 </r>
       <r>    9.0191    1.0000 </r>
       <r>    9.2002    1.0386 </r>
       <r>   12.2830    0.0000 </r>
       <r>   22.7944    0.0000 </r>
       <r>   23.0072    0.0000 </r>
       <r>   26.8753    0.0000 </r>
       <r>   27.8747    0.0000 </r>
       <r>   28.6104    0.0000 </r>
       <r>   29.1473    0.0000 </r>
      </set>
      <set comment="kpoint 5">
       <r>  -44.5203    1.0000 </r>
       <r>  -44.4773    1.0000 </r>
       <r>  -44.4361    1.0000 </r>
       <r>  -44.4131    1.0000 </r>
       <r>  -44.3908    1.0000 </r>
       <r>  -44.3704    1.0000 </r>
       <r>    4.6410    1.0000 </r>
       <r>    5.3581    1.0000 </r>
       <r>    6.3947    1.0000 </r>
       <r>    6.9174    1.0000 </r>
       <r>    7.4991    1.0000 </r>
       <r>    7.7311    1.0000 </r>
       <r>    7.7624    1.0000 </r>
       <r>    7.9854    1.0000 </r>
       <r>    8.4990    1.0000 </r>
       <r>    8.8573    1.0000 </r>
       <r>    9.4831    0.9855 </r>
       <r>   10.5195    0.0000 </r>
       <r>   24.5322    0.0000 </r>
       <r>   24.9044    0.0000 </r>
       <r>   26.2266    0.0000 </r>
       <r>   26.9671    0.0000 </r>
       <r>   27.8211    0.0000 </r>
       <r>   29.2507    0.0000 </r>
      </set>
      <set comment="kpoint 6">
       <r>  -44.5804    1.0000 </r>
       <r>  -44.5368    1.0000 </r>
       <r>  -44.4916    1.0000 </r>
       <r>  -44.3626    1.0000 </r>
       <r>  -44.2980    1.0000 </r>
       <r>  -44.2746    1.0000 </r>
       <r>    2.1894    1.0000 </r>
       <r>    5.2392    1.0000 </r>
       <r>    5.2980    1.0000 </r>
       <r>    7.0937    1.0000 </r>
       <r>    7.2374    1.0000 </r>
       <r>    7.8699    1.0000 </r>
       <r>    8.4385    1.0000 </r>
       <r>    8.6105    1.0000 </r>
       <r>    8.6245    1.0000 </r>
       <r>    9.1495    1.0069 </r>
       <r>    9.7346    0.0315 </r>
       <r>   17.1957    0.0000 </r>
       <r>   18.2808    0.0000 </r>
       <r>   20.6507    0.0000 </r>
       <r>   26.6282    0.0000 </r>
       <r>   28.5392    0.0000 </r>
       <r>   29.9219    0.0000 </r>
       <r>   31.9694    0.0000 </r>
      </set>
      <set comment="kpoint 7">
       <r>  -44.5897    1.0000 </r>
       <r>  -44.5113    1.0000 </r>
       <r>  -44.4538    1.0000 </r>
       <r>  -44.4173    1.0000 </r>
       <r>  -44.3210    1.0000 </r>
       <r>  -44.2821    1.0000 </r>
       <r>    2.9158    1.0000 </r>
       <r>    5.4555    1.0000 </r>
       <r>    5.6207    1.0000 </r>
       <r>    6.9882    1.0000 </r>
       <r>    7.1824    1.0000 </r>
       <r>    8.1057    1.0000 </r>
       <r>    8.2001    1.0000 </r>
       <r>    8.2825    1.0000 </r>
       <r>    8.7216    1.0000 </r>
       <r>    8.7243    1.0000 </r>
       <r>    9.6884    0.2894 </r>
       <r>   14.9837    0.0000 </r>
       <r>   19.0119    0.0000 </r>
       <r>   21.7955    0.0000 </r>
       <r>   27.0198    0.0000 </r>
       <r>   27.7477    0.0000 </r>
       <r>   29.9238    0.0000 </r>
       <r>   30.6412    0.0000 </r>
      </set>
      <set comment="kpoint 8">
       <r>  -44.5856    1.0000 </r>
       <r>  -44.4758    1.0000 </r>
       <r>  -44.4750    1.0000 </r>
       <r>  -44.4131    1.0000 </r>
       <r>  -44.3535    1.0000 </r>
       <r>  -44.3030    1.0000 </r>
       <r>    3.8580    1.0000 </r>
       <r>    5.5955    1.0000 </r>
       <r>    6.0117    1.0000 </r>
       <r>    6.9645    1.0000 </r>
       <r>    7.1189    1.0000 </r>
       <r>    7.6670    1.0000 </r>
       <r>    8.0931    1.0000 </r>
       <r>    8.3376    1.0000 </r>
       <r>    8.5642    1.0000 </r>
       <r>    8.9631    1.0000 </r>
       <r>    9.4967    0.9240 </r>
       <r>   12.6531    0.0000 </r>
       <r>   20.3760    0.0000 </r>
       <r>   23.3119    0.0000 </r>
       <r>   25.6603    0.0000 </r>
       <r>   27.5889    0.0000 </r>
       <r>   28.7790    0.0000 </r>
       <r>   30.9263    0.0000 </r>
      </set>
      <set comment="kpoint 9">
       <r>  -44.5647    1.0000 </r>
       <r>  -44.5266    1.0000 </r>
       <r>  -44.4348    1.0000 </r>
       <r>  -44.3926    1.0000 </r>
       <r>  -44.3722    1.0000 </r>
       <r>  -44.3343    1.0000 </r>
       <r>    4.7817    1.0000 </r>
       <r>    5.4045    1.0000 </r>
       <r>    6.4367    1.0000 </r>
       <r>    6.8150    1.0000 </r>
       <r>    7.1497    1.0000 </r>
       <r>    7.3556    1.0000 </r>
       <r>    8.0549    1.0000 </r>
       <r>    8.1285    1.0000 </r>
       <r>    8.8892    1.0000 </r>
       <r>    9.2080    1.0000 </r>
       <r>    9.5411    0.7786 </r>
       <r>   10.7642    0.0000 </r>
       <r>   21.9647    0.0000 </r>
       <r>   23.7291    0.0000 </r>
       <r>   25.0472    0.0000 </r>
       <r>   26.8830    0.0000 </r>
       <r>   28.4945    0.0000 </r>
       <r>   29.8473    0.0000 </r>
      </set>
      <set comment="kpoint 10">
       <r>  -44.6129    1.0000 </r>
       <r>  -44.4906    1.0000 </r>
       <r>  -44.4770    1.0000 </r>
       <r>  -44.4109    1.0000 </r>
       <r>  -44.3388    1.0000 </r>
       <r>  -44.2748    1.0000 </r>
       <r>    3.5387    1.0000 </r>
       <r>    5.5105    1.0000 </r>
       <r>    6.0141    1.0000 </r>
       <r>    6.7714    1.0000 </r>
       <r>    7.1537    1.0000 </r>
       <r>    7.5987    1.0000 </r>
       <r>    8.4262    1.0000 </r>
       <r>    8.4287    1.0000 </r>
       <r>    8.6229    1.0000 </r>
       <r>    8.6647    1.0000 </r>
       <r>    9.8078   -0.0339 </r>
       <r>   14.8628    0.0000 </r>
       <r>   17.4657    0.0000 </r>
       <r>   22.7546    0.0000 </r>
       <r>   25.3833    0.0000 </r>
       <r>   27.3661    0.0000 </r>
       <r>   30.0595    0.0000 </r>
       <r>   32.3850    0.0000 </r>
      </set>
      <set comment="kpoint 11">
       <r>  -44.6221    1.0000 </r>
       <r>  -44.5351    1.0000 </r>
       <r>  -44.4618    1.0000 </r>
       <r>  -44.3694    1.0000 </r>
       <r>  -44.3641    1.0000 </r>
       <r>  -44.2820    1.0000 </r>
       <r>    4.2635    1.0000 </r>
       <r>    5.4678    1.0000 </r>
       <r>    6.4673    1.0000 </r>
       <r>    6.6639    1.0000 </r>
       <r>    7.1893    1.0000 </r>
       <r>    7.2435    1.0000 </r>
       <r>    8.2727    1.0000 </r>
       <r>    8.4045    1.0000 </r>
       <r>    8.8096    1.0000 </r>
       <r>    9.0697    1.0219 </r>
       <r>    9.7579    0.0040 </r>
       <r>   13.0480    0.0000 </r>
       <r>   18.1033    0.0000 </r>
       <r>   23.1677    0.0000 </r>
       <r>   24.0660    0.0000 </r>
       <r>   27.8480    0.0000 </r>
       <r>   28.7850    0.0000 </r>
       <r>   31.4418    0.0000 </r>
      </set>
      <set comment="kpoint 12">
       <r>  -44.6124    1.0000 </r>
       <r>  -44.5825    1.0000 </r>
       <r>  -44.4287    1.0000 </r>
       <r>  -44.3950    1.0000 </r>
       <r>  -44.3321    1.0000 </r>
       <r>  -44.3020    1.0000 </r>
       <r>    4.8666    1.0000 </r>
       <r>    5.2597    1.0000 </r>
       <r>    6.6822    1.0000 </r>
       <r>    6.7708    1.0000 </r>
       <r>    7.0121    1.0000 </r>
       <r>    7.2242    1.0000 </r>
       <r>    8.3124    1.0000 </r>
       <r>    8.3953    1.0000 </r>
       <r>    9.1810    1.0000 </r>
       <r>    9.5467    0.9518 </r>
       <r>    9.7286    0.0298 </r>
       <r>   11.1092    0.0000 </r>
       <r>   19.4886    0.0000 </r>
       <r>   21.1930    0.0000 </r>
       <r>   25.5957    0.0000 </r>
       <r>   27.2067    0.0000 </r>
       <r>   28.6469    0.0000 </r>
       <r>   29.8690    0.0000 </r>
      </set>
      <set comment="kpoint 13">
       <r>  -44.6452    1.0000 </r>
       <r>  -44.5897    1.0000 </r>
       <r>  -44.4425    1.0000 </r>
       <r>  -44.3796    1.0000 </r>
       <r>  -44.3311    1.0000 </r>
       <r>  -44.2749    1.0000 </r>
       <r>    4.6032    1.0000 </r>
       <r>    5.2501    1.0000 </r>
       <r>    6.4672    1.0000 </r>
       <r>    6.7900    1.0000 </r>
       <r>    7.0688    1.0000 </r>
       <r>    7.8004    1.0000 </r>
       <r>    8.3288    1.0000 </r>
       <r>    8.5818    1.0000 </r>
       <r>    8.7312    1.0000 </r>
       <r>    9.5044    0.9629 </r>
       <r>    9.8583   -0.0050 </r>
       <r>   12.6724    0.0000 </r>
       <r>   17.0752    0.0000 </r>
       <r>   20.9324    0.0000 </r>
       <r>   25.1100    0.0000 </r>
       <r>   28.2078    0.0000 </r>
       <r>   28.4079    0.0000 </r>
       <r>   30.7489    0.0000 </r>
      </set>
      <set comment="kpoint 14">
       <r>  -44.6485    1.0000 </r>
       <r>  -44.6294    1.0000 </r>
       <r>  -44.4207    1.0000 </r>
       <r>  -44.3990    1.0000 </r>
       <r>  -44.3011    1.0000 </r>
       <r>  -44.2817    1.0000 </r>
       <r>    4.8277    1.0000 </r>
       <r>    5.0274    1.0000 </r>
       <r>    6.4159    1.0000 </r>
       <r>    6.5253    1.0000 </r>
       <r>    7.6335    1.0000 </r>
       <r>    8.0155    1.0000 </r>
       <r>    8.4770    1.0000 </r>
       <r>    8.6081    1.0000 </r>
       <r>    9.2343    1.0000 </r>
       <r>    9.7474    0.3171 </r>
       <r>   10.0489    0.0000 </r>
       <r>   11.2872    0.0000 </r>
       <r>   17.6521    0.0000 </r>
       <r>   19.0563    0.0000 </r>
       <r>   26.3160    0.0000 </r>
       <r>   27.4990    0.0000 </r>
       <r>   28.8183    0.0000 </r>
       <r>   29.7271    0.0000 </r>
      </set>
      <set comment="kpoint 15">
       <r>  -44.6652    1.0000 </r>
       <r>  -44.6586    1.0000 </r>
       <r>  -44.4123    1.0000 </r>
       <r>  -44.4048    1.0000 </r>
       <r>  -44.2817    1.0000 </r>
       <r>  -44.2750    1.0000 </r>
       <r>    4.7955    1.0000 </r>
       <r>    4.8570    1.0000 </r>
       <r>    6.2866    1.0000 </r>
       <r>    6.3241    1.0000 </r>
       <r>    8.3604    1.0000 </r>
       <r>    8.5982    1.0000 </r>
       <r>    8.6193    1.0000 </r>
       <r>    8.7801    1.0000 </r>
       <r>    9.2762    1.0000 </r>
       <r>    9.7023    0.2834 </r>
       <r>   10.4350    0.0000 </r>
       <r>   10.9855    0.0000 </r>
       <r>   16.9428    0.0000 </r>
       <r>   17.5289    0.0000 </r>
       <r>   27.0343    0.0000 </r>
       <r>   27.4878    0.0000 </r>
       <r>   29.0848    0.0000 </r>
       <r>   29.4298    0.0000 </r>
      </set>
      <set comment="kpoint 16">
       <r>  -44.5647    1.0000 </r>
       <r>  -44.5647    1.0000 </r>
       <r>  -44.4558    1.0000 </r>
       <r>  -44.4001    1.0000 </r>
       <r>  -44.2888    1.0000 </r>
       <r>  -44.2888    1.0000 </r>
       <r>    2.5667    1.0000 </r>
       <r>    5.4265    1.0000 </r>
       <r>    5.4265    1.0000 </r>
       <r>    7.0362    1.0000 </r>
       <r>    7.0362    1.0000 </r>
       <r>    8.0860    1.0000 </r>
       <r>    8.1860    1.0000 </r>
       <r>    8.5281    1.0000 </r>
       <r>    8.5281    1.0000 </r>
       <r>    9.4248    0.9998 </r>
       <r>    9.4248    1.1124 </r>
       <r>   17.8410    0.0000 </r>
       <r>   17.8410    0.0000 </r>
       <r>   19.2369    0.0000 </r>
       <r>   28.7873    0.0000 </r>
       <r>   28.7873    0.0000 </r>
       <r>   29.7385    0.0000 </r>
       <r>   29.7385    0.0000 </r>
      </set>
      <set comment="kpoint 17">
       <r>  -44.5849    1.0000 </r>
       <r>  -44.5350    1.0000 </r>
       <r>  -44.4514    1.0000 </r>
       <r>  -44.4177    1.0000 </r>
       <r>  -44.3160    1.0000 </r>
       <r>  -44.2883    1.0000 </r>
       <r>    3.2654    1.0000 </r>
       <r>    5.6657    1.0000 </r>
       <r>    5.6998    1.0000 </r>
       <r>    6.9036    1.0000 </r>
       <r>    6.9349    1.0000 </r>
       <r>    7.5732    1.0000 </r>
       <r>    8.3823    1.0000 </r>
       <r>    8.5849    1.0000 </r>
       <r>    8.6826    1.0000 </r>
       <r>    8.9719    1.0000 </r>
       <r>    9.5062    0.9528 </r>
       <r>   15.4700    0.0000 </r>
       <r>   18.9549    0.0000 </r>
       <r>   19.8767    0.0000 </r>
       <r>   27.5255    0.0000 </r>
       <r>   28.5414    0.0000 </r>
       <r>   29.3029    0.0000 </r>
       <r>   30.5091    0.0000 </r>
      </set>
      <set comment="kpoint 18">
       <r>  -44.5911    1.0000 </r>
       <r>  -44.5044    1.0000 </r>
       <r>  -44.4946    1.0000 </r>
       <r>  -44.3809    1.0000 </r>
       <r>  -44.3540    1.0000 </r>
       <r>  -44.2989    1.0000 </r>
       <r>    4.1486    1.0000 </r>
       <r>    5.8193    1.0000 </r>
       <r>    5.9789    1.0000 </r>
       <r>    6.7953    1.0000 </r>
       <r>    6.9294    1.0000 </r>
       <r>    7.2680    1.0000 </r>
       <r>    8.2260    1.0000 </r>
       <r>    8.5458    1.0000 </r>
       <r>    8.8081    1.0000 </r>
       <r>    9.1279    1.0000 </r>
       <r>    9.4066    0.9271 </r>
       <r>   13.1242    0.0000 </r>
       <r>   20.3546    0.0000 </r>
       <r>   21.0650    0.0000 </r>
       <r>   25.4923    0.0000 </r>
       <r>   26.4576    0.0000 </r>
       <r>   30.1152    0.0000 </r>
       <r>   31.4556    0.0000 </r>
      </set>
      <set comment="kpoint 19">
       <r>  -44.5795    1.0000 </r>
       <r>  -44.5494    1.0000 </r>
       <r>  -44.4477    1.0000 </r>
       <r>  -44.3993    1.0000 </r>
       <r>  -44.3474    1.0000 </r>
       <r>  -44.3193    1.0000 </r>
       <r>    4.9803    1.0000 </r>
       <r>    5.5623    1.0000 </r>
       <r>    6.3100    1.0000 </r>
       <r>    6.5938    1.0000 </r>
       <r>    7.0941    1.0000 </r>
       <r>    7.2048    1.0000 </r>
       <r>    8.1539    1.0000 </r>
       <r>    8.2553    1.0000 </r>
       <r>    8.9736    1.0000 </r>
       <r>    9.1933    1.0000 </r>
       <r>    9.9045   -0.0495 </r>
       <r>   11.2096    0.0000 </r>
       <r>   21.9288    0.0000 </r>
       <r>   22.5760    0.0000 </r>
       <r>   23.6374    0.0000 </r>
       <r>   24.3861    0.0000 </r>
       <r>   31.2414    0.0000 </r>
       <r>   32.1308    0.0000 </r>
      </set>
      <set comment="kpoint 20">
       <r>  -44.5955    1.0000 </r>
       <r>  -44.5260    1.0000 </r>
       <r>  -44.4993    1.0000 </r>
       <r>  -44.3811    1.0000 </r>
       <r>  -44.3306    1.0000 </r>
       <r>  -44.2905    1.0000 </r>
       <r>    3.8865    1.0000 </r>
       <r>    5.7529    1.0000 </r>
       <r>    6.0632    1.0000 </r>
       <r>    6.6989    1.0000 </r>
       <r>    6.8476    1.0000 </r>
       <r>    7.0949    1.0000 </r>
       <r>    8.4901    1.0000 </r>
       <r>    8.6475    1.0000 </r>
       <r>    8.8033    1.0000 </r>
       <r>    9.0800    1.0000 </r>
       <r>    9.4846    0.8379 </r>
       <r>   15.5501    0.0000 </r>
       <r>   17.5338    0.0000 </r>
       <r>   20.3337    0.0000 </r>
       <r>   25.5631    0.0000 </r>
       <r>   27.9317    0.0000 </r>
       <r>   30.2204    0.0000 </r>
       <r>   30.2831    0.0000 </r>
      </set>
      <set comment="kpoint 21">
       <r>  -44.6082    1.0000 </r>
       <r>  -44.5470    1.0000 </r>
       <r>  -44.4917    1.0000 </r>
       <r>  -44.3626    1.0000 </r>
       <r>  -44.3490    1.0000 </r>
       <r>  -44.2939    1.0000 </r>
       <r>    4.5905    1.0000 </r>
       <r>    5.7248    1.0000 </r>
       <r>    6.3746    1.0000 </r>
       <r>    6.5799    1.0000 </r>
       <r>    6.9010    1.0000 </r>
       <r>    6.9069    1.0000 </r>
       <r>    8.4417    1.0000 </r>
       <r>    8.5422    1.0000 </r>
       <r>    8.7768    1.0000 </r>
       <r>    9.4400    1.0000 </r>
       <r>    9.6484    0.1950 </r>
       <r>   13.7015    0.0000 </r>
       <r>   18.2677    0.0000 </r>
       <r>   21.4247    0.0000 </r>
       <r>   23.3778    0.0000 </r>
       <r>   26.4173    0.0000 </r>
       <r>   30.0193    0.0000 </r>
       <r>   30.7691    0.0000 </r>
      </set>
      <set comment="kpoint 22">
       <r>  -44.6059    1.0000 </r>
       <r>  -44.5847    1.0000 </r>
       <r>  -44.4485    1.0000 </r>
       <r>  -44.4037    1.0000 </r>
       <r>  -44.3232    1.0000 </r>
       <r>  -44.3047    1.0000 </r>
       <r>    5.1411    1.0000 </r>
       <r>    5.5048    1.0000 </r>
       <r>    6.4598    1.0000 </r>
       <r>    6.5110    1.0000 </r>
       <r>    7.0544    1.0000 </r>
       <r>    7.0694    1.0000 </r>
       <r>    8.4028    1.0000 </r>
       <r>    8.4198    1.0000 </r>
       <r>    8.9771    1.0000 </r>
       <r>    9.2445    1.0149 </r>
       <r>   10.4632   -0.0551 </r>
       <r>   11.8103    0.0000 </r>
       <r>   19.6878    0.0000 </r>
       <r>   21.4028    0.0000 </r>
       <r>   22.8373    0.0000 </r>
       <r>   24.5274    0.0000 </r>
       <r>   30.5828    0.0000 </r>
       <r>   31.0098    0.0000 </r>
      </set>
      <set comment="kpoint 23">
       <r>  -44.6263    1.0000 </r>
       <r>  -44.5886    1.0000 </r>
       <r>  -44.4693    1.0000 </r>
       <r>  -44.3811    1.0000 </r>
       <r>  -44.3237    1.0000 </r>
       <r>  -44.2922    1.0000 </r>
       <r>    4.9327    1.0000 </r>
       <r>    5.4954    1.0000 </r>
       <r>    6.4123    1.0000 </r>
       <r>    6.5886    1.0000 </r>
       <r>    6.9874    1.0000 </r>
       <r>    7.2591    1.0000 </r>
       <r>    8.5123    1.0000 </r>
       <r>    8.5864    1.0000 </r>
       <r>    8.7368    1.0000 </r>
       <r>    9.4445    1.0068 </r>
       <r>   10.2601   -0.0186 </r>
       <r>   13.5559    0.0000 </r>
       <r>   17.1443    0.0000 </r>
       <r>   21.1504    0.0000 </r>
       <r>   22.3751    0.0000 </r>
       <r>   26.5222    0.0000 </r>
       <r>   28.2801    0.0000 </r>
       <r>   30.4808    0.0000 </r>
      </set>
      <set comment="kpoint 24">
       <r>  -44.6317    1.0000 </r>
       <r>  -44.6188    1.0000 </r>
       <r>  -44.4388    1.0000 </r>
       <r>  -44.4076    1.0000 </r>
       <r>  -44.3061    1.0000 </r>
[...]
       </set>
       <set comment="band 12">
        <r>  0.0000  0.0280  0.0430  0.0035  0.1258  0.0101  0.0858  0.0820  0.0133 </r>
        <r>  0.0000  0.0280  0.0430  0.0035  0.1258  0.0101  0.0858  0.0820  0.0133 </r>
       </set>
       <set comment="band 13">
        <r>  0.0000  0.0012  0.0001  0.0007  0.0089  0.0492  0.0333  0.0813  0.3124 </r>
        <r>  0.0000  0.0012  0.0001  0.0007  0.0089  0.0492  0.0333  0.0813  0.3124 </r>
       </set>
       <set comment="band 14">
        <r>  0.0000  0.0002  0.0013  0.0007  0.0840  0.0437  0.3124  0.0117  0.0333 </r>
        <r>  0.0000  0.0002  0.0013  0.0007  0.0840  0.0437  0.3124  0.0117  0.0333 </r>
       </set>
       <set comment="band 15">
        <r>  0.0000  0.0000  0.0000  0.0000  0.0236  0.0049  0.4518  0.0070  0.0011 </r>
        <r>  0.0000  0.0000  0.0000  0.0000  0.0236  0.0049  0.4518  0.0070  0.0011 </r>
       </set>
       <set comment="band 16">
        <r>  0.0000  0.0000  0.0000  0.0000  0.0001  0.0188  0.0011  0.0167  0.4518 </r>
        <r>  0.0000  0.0000  0.0000  0.0000  0.0001  0.0188  0.0011  0.0167  0.4518 </r>
       </set>
       <set comment="band 17">
        <r>  0.0250  0.0199  0.0199  0.0199  0.1216  0.1216  0.0000  0.1216  0.0000 </r>
        <r>  0.0250  0.0199  0.0199  0.0199  0.1216  0.1216  0.0000  0.1216  0.0000 </r>
       </set>
       <set comment="band 18">
        <r>  0.0000  0.1086  0.0273  0.0384  0.0267  0.0376  0.0126  0.1061  0.0410 </r>
        <r>  0.0000  0.1086  0.0273  0.0384  0.0267  0.0376  0.0126  0.1061  0.0410 </r>
       </set>
       <set comment="band 19">
        <r>  0.0000  0.0076  0.0889  0.0778  0.0869  0.0760  0.0410  0.0075  0.0126 </r>
        <r>  0.0000  0.0076  0.0889  0.0778  0.0869  0.0760  0.0410  0.0075  0.0126 </r>
       </set>
       <set comment="band 20">
        <r>  0.2670  0.0000  0.0000  0.0000  0.0373  0.0373  0.0000  0.0373  0.0000 </r>
        <r>  0.2670  0.0000  0.0000  0.0000  0.0373  0.0373  0.0000  0.0373  0.0000 </r>
       </set>
       <set comment="band 21">
        <r>  0.0000  0.0758  0.0019  0.0944  0.0017  0.0859  0.0004  0.0690  0.0212 </r>
        <r>  0.0000  0.0758  0.0019  0.0944  0.0017  0.0859  0.0004  0.0690  0.0212 </r>
       </set>
       <set comment="band 22">
        <r>  0.0000  0.0389  0.1128  0.0204  0.1027  0.0185  0.0212  0.0354  0.0004 </r>
        <r>  0.0000  0.0389  0.1128  0.0204  0.1027  0.0185  0.0212  0.0354  0.0004 </r>
       </set>
       <set comment="band 23">
        <r>  0.2449  0.0531  0.0531  0.0531  0.0018  0.0018  0.0000  0.0018  0.0000 </r>
        <r>  0.2449  0.0531  0.0531  0.0531  0.0018  0.0018  0.0000  0.0018  0.0000 </r>
       </set>
       <set comment="band 24">
        <r>  0.0491  0.0820  0.0820  0.0820  0.0283  0.0283  0.0000  0.0283  0.0000 </r>
        <r>  0.0491  0.0820  0.0820  0.0820  0.0283  0.0283  0.0000  0.0283  0.0000 </r>
       </set>
      </set>
      <set comment="kpoint 33">
       <set comment="band 1">
        <r>  0.0000  0.1309  0.1309  0.2343  0.0000  0.0000  0.0000  0.0000  0.0000 </r>
        <r>  0.0000  0.1309  0.1309  0.2343  0.0000  0.0000  0.0000  0.0000  0.0000 </r>
       </set>
       <set comment="band 2">
        <r>  0.0000  0.1039  0.1039  0.2884  0.0000  0.0001  0.0000  0.0000  0.0000 </r>
        <r>  0.0000  0.1039  0.1039  0.2884  0.0000  0.0001  0.0000  0.0000  0.0000 </r>
       </set>
       <set comment="band 3">
        <r>  0.0000  0.2486  0.2486  0.0000  0.0001  0.0000  0.0000  0.0001  0.0000 </r>
        <r>  0.0000  0.2486  0.2486  0.0000  0.0001  0.0000  0.0000  0.0001  0.0000 </r>
       </set>
       <set comment="band 4">
        <r>  0.0000  0.2489  0.2489  0.0000  0.0001  0.0000  0.0000  0.0001  0.0000 </r>
        <r>  0.0000  0.2489  0.2489  0.0000  0.0001  0.0000  0.0000  0.0001  0.0000 </r>
       </set>
       <set comment="band 5">
        <r>  0.0000  0.1178  0.1178  0.2630  0.0000  0.0001  0.0000  0.0000  0.0000 </r>
        <r>  0.0000  0.1178  0.1178  0.2630  0.0000  0.0001  0.0000  0.0000  0.0000 </r>
       </set>
       <set comment="band 6">
        <r>  0.0000  0.1450  0.1450  0.2088  0.0000  0.0000  0.0000  0.0000  0.0000 </r>
        <r>  0.0000  0.1450  0.1450  0.2088  0.0000  0.0000  0.0000  0.0000  0.0000 </r>
       </set>
       <set comment="band 7">
        <r>  0.0459  0.0252  0.0252  0.0112  0.1269  0.0025  0.0032  0.1269  0.0097 </r>
        <r>  0.0459  0.0252  0.0252  0.0112  0.1269  0.0025  0.0032  0.1269  0.0097 </r>
       </set>
       <set comment="band 8">
        <r>  0.0268  0.0108  0.0108  0.0011  0.1525  0.0490  0.0030  0.1525  0.0089 </r>
        <r>  0.0268  0.0108  0.0108  0.0011  0.1525  0.0490  0.0030  0.1525  0.0089 </r>
       </set>
       <set comment="band 9">
        <r>  0.0000  0.0194  0.0194  0.0000  0.1696  0.0000  0.0317  0.1696  0.0106 </r>
        <r>  0.0000  0.0194  0.0194  0.0000  0.1696  0.0000  0.0317  0.1696  0.0106 </r>
       </set>
       <set comment="band 10">
        <r>  0.0000  0.0280  0.0280  0.0000  0.1425  0.0000  0.0487  0.1425  0.0162 </r>
        <r>  0.0000  0.0280  0.0280  0.0000  0.1425  0.0000  0.0487  0.1425  0.0162 </r>
       </set>
       <set comment="band 11">
        <r>  0.0064  0.0025  0.0025  0.0522  0.0082  0.3292  0.0001  0.0082  0.0002 </r>
        <r>  0.0064  0.0025  0.0025  0.0522  0.0082  0.3292  0.0001  0.0082  0.0002 </r>
       </set>
       <set comment="band 12">
        <r>  0.0019  0.0092  0.0092  0.0634  0.0021  0.2760  0.0073  0.0021  0.0219 </r>
        <r>  0.0019  0.0092  0.0092  0.0634  0.0021  0.2760  0.0073  0.0021  0.0219 </r>
       </set>
       <set comment="band 13">
        <r>  0.0000  0.0003  0.0003  0.0000  0.0451  0.0000  0.2977  0.0451  0.0992 </r>
        <r>  0.0000  0.0003  0.0003  0.0000  0.0451  0.0000  0.2977  0.0451  0.0992 </r>
       </set>
       <set comment="band 14">
        <r>  0.0000  0.0001  0.0001  0.0000  0.0288  0.0000  0.3228  0.0288  0.1076 </r>
        <r>  0.0000  0.0001  0.0001  0.0000  0.0288  0.0000  0.3228  0.0288  0.1076 </r>
       </set>
       <set comment="band 15">
        <r>  0.0005  0.0001  0.0001  0.0006  0.0171  0.0290  0.1064  0.0171  0.3191 </r>
        <r>  0.0005  0.0001  0.0001  0.0006  0.0171  0.0290  0.1064  0.0171  0.3191 </r>
       </set>
       <set comment="band 16">
        <r>  0.0004  0.0000  0.0000  0.0001  0.0103  0.0000  0.1173  0.0103  0.3520 </r>
        <r>  0.0004  0.0000  0.0000  0.0001  0.0103  0.0000  0.1173  0.0103  0.3520 </r>
       </set>
       <set comment="band 17">
        <r>  0.0297  0.0216  0.0216  0.0426  0.0915  0.1260  0.0015  0.0915  0.0044 </r>
        <r>  0.0297  0.0216  0.0216  0.0426  0.0915  0.1260  0.0015  0.0915  0.0044 </r>
       </set>
       <set comment="band 18">
        <r>  0.0209  0.0248  0.0248  0.0799  0.0612  0.1103  0.0066  0.0612  0.0199 </r>
        <r>  0.0209  0.0248  0.0248  0.0799  0.0612  0.1103  0.0066  0.0612  0.0199 </r>
       </set>
       <set comment="band 19">
        <r>  0.0000  0.0895  0.0895  0.0000  0.0849  0.0000  0.0286  0.0849  0.0095 </r>
        <r>  0.0000  0.0895  0.0895  0.0000  0.0849  0.0000  0.0286  0.0849  0.0095 </r>
       </set>
       <set comment="band 20">
        <r>  0.2318  0.0017  0.0017  0.0348  0.0265  0.0509  0.0000  0.0265  0.0001 </r>
        <r>  0.2318  0.0017  0.0017  0.0348  0.0265  0.0509  0.0000  0.0265  0.0001 </r>
       </set>
       <set comment="band 21">
        <r>  0.0000  0.0892  0.0892  0.0000  0.0826  0.0000  0.0211  0.0826  0.0070 </r>
        <r>  0.0000  0.0892  0.0892  0.0000  0.0826  0.0000  0.0211  0.0826  0.0070 </r>
       </set>
       <set comment="band 22">
        <r>  0.1595  0.0006  0.0006  0.1012  0.0256  0.0525  0.0005  0.0256  0.0016 </r>
        <r>  0.1595  0.0006  0.0006  0.1012  0.0256  0.0525  0.0005  0.0256  0.0016 </r>
       </set>
       <set comment="band 23">
        <r>  0.1183  0.0856  0.0856  0.0169  0.0121  0.0430  0.0011  0.0121  0.0032 </r>
        <r>  0.1183  0.0856  0.0856  0.0169  0.0121  0.0430  0.0011  0.0121  0.0032 </r>
       </set>
       <set comment="band 24">
        <r>  0.0731  0.0849  0.0849  0.0488  0.0226  0.0369  0.0002  0.0226  0.0007 </r>
        <r>  0.0731  0.0849  0.0849  0.0488  0.0226  0.0369  0.0002  0.0226  0.0007 </r>
       </set>
      </set>
      <set comment="kpoint 34">
       <set comment="band 1">
        <r>  0.0000  0.2222  0.0517  0.2222  0.0000  0.0001  0.0000  0.0001  0.0000 </r>
        <r>  0.0000  0.2222  0.0517  0.2222  0.0000  0.0001  0.0000  0.0001  0.0000 </r>
       </set>
       <set comment="band 2">
        <r>  0.0000  0.2482  0.0000  0.2482  0.0000  0.0001  0.0000  0.0001  0.0000 </r>
        <r>  0.0000  0.2482  0.0000  0.2482  0.0000  0.0001  0.0000  0.0001  0.0000 </r>
       </set>
       <set comment="band 3">
        <r>  0.0000  0.0374  0.4226  0.0374  0.0001  0.0000  0.0000  0.0000  0.0000 </r>
        <r>  0.0000  0.0374  0.4226  0.0374  0.0001  0.0000  0.0000  0.0000  0.0000 </r>
       </set>
       <set comment="band 4">
        <r>  0.0000  0.0259  0.4458  0.0259  0.0001  0.0000  0.0000  0.0000  0.0000 </r>
        <r>  0.0000  0.0259  0.4458  0.0259  0.0001  0.0000  0.0000  0.0000  0.0000 </r>
       </set>
       <set comment="band 5">
        <r>  0.0000  0.2491  0.0000  0.2491  0.0000  0.0001  0.0000  0.0001  0.0000 </r>
        <r>  0.0000  0.2491  0.0000  0.2491  0.0000  0.0001  0.0000  0.0001  0.0000 </r>
       </set>
       <set comment="band 6">
        <r>  0.0000  0.2118  0.0749  0.2118  0.0000  0.0000  0.0000  0.0000  0.0000 </r>
        <r>  0.0000  0.2118  0.0749  0.2118  0.0000  0.0000  0.0000  0.0000  0.0000 </r>
       </set>
       <set comment="band 7">
        <r>  0.0191  0.0005  0.0314  0.0005  0.2658  0.0363  0.0218  0.0363  0.0000 </r>
        <r>  0.0191  0.0005  0.0314  0.0005  0.2658  0.0363  0.0218  0.0363  0.0000 </r>
       </set>
       <set comment="band 8">
        <r>  0.0234  0.0027  0.0441  0.0027  0.2944  0.0011  0.0273  0.0011  0.0000 </r>
        <r>  0.0234  0.0027  0.0441  0.0027  0.2944  0.0011  0.0273  0.0011  0.0000 </r>
       </set>
       <set comment="band 9">
        <r>  0.0000  0.0139  0.0000  0.0139  0.0000  0.2001  0.0000  0.2001  0.0032 </r>
        <r>  0.0000  0.0139  0.0000  0.0139  0.0000  0.2001  0.0000  0.2001  0.0032 </r>
       </set>
       <set comment="band 10">
        <r>  0.0001  0.0137  0.0131  0.0137  0.0407  0.1615  0.0168  0.1615  0.0000 </r>
        <r>  0.0001  0.0137  0.0131  0.0137  0.0407  0.1615  0.0168  0.1615  0.0000 </r>
       </set>
       <set comment="band 11">
        <r>  0.0048  0.0441  0.0000  0.0441  0.0144  0.1385  0.0039  0.1385  0.0000 </r>
        <r>  0.0048  0.0441  0.0000  0.0441  0.0144  0.1385  0.0039  0.1385  0.0000 </r>
       </set>
       <set comment="band 12">
        <r>  0.0000  0.0468  0.0000  0.0468  0.0000  0.1399  0.0000  0.1399  0.0134 </r>
        <r>  0.0000  0.0468  0.0000  0.0468  0.0000  0.1399  0.0000  0.1399  0.0134 </r>
       </set>
       <set comment="band 13">
        <r>  0.0003  0.0000  0.0002  0.0000  0.0502  0.0026  0.4336  0.0026  0.0000 </r>
        <r>  0.0003  0.0000  0.0002  0.0000  0.0502  0.0026  0.4336  0.0026  0.0000 </r>
       </set>
       <set comment="band 14">
        <r>  0.0002  0.0000  0.0001  0.0000  0.0427  0.0008  0.4451  0.0008  0.0000 </r>
        <r>  0.0002  0.0000  0.0001  0.0000  0.0427  0.0008  0.4451  0.0008  0.0000 </r>
       </set>
       <set comment="band 15">
        <r>  0.0000  0.0001  0.0000  0.0001  0.0000  0.0101  0.0000  0.0101  0.4705 </r>
        <r>  0.0000  0.0001  0.0000  0.0001  0.0000  0.0101  0.0000  0.0101  0.4705 </r>
       </set>
       <set comment="band 16">
        <r>  0.0000  0.0000  0.0000  0.0000  0.0000  0.0022  0.0000  0.0022  0.4866 </r>
        <r>  0.0000  0.0000  0.0000  0.0000  0.0000  0.0022  0.0000  0.0022  0.4866 </r>
       </set>
       <set comment="band 17">
        <r>  0.0247  0.0518  0.0134  0.0518  0.0493  0.1095  0.0012  0.1095  0.0000 </r>
        <r>  0.0247  0.0518  0.0134  0.0518  0.0493  0.1095  0.0012  0.1095  0.0000 </r>
       </set>
       <set comment="band 18">
        <r>  0.0000  0.0794  0.0000  0.0794  0.0000  0.1149  0.0000  0.1149  0.0083 </r>
        <r>  0.0000  0.0794  0.0000  0.0794  0.0000  0.1149  0.0000  0.1149  0.0083 </r>
       </set>
       <set comment="band 19">
        <r>  0.0989  0.0059  0.0801  0.0059  0.1796  0.0017  0.0206  0.0017  0.0000 </r>
        <r>  0.0989  0.0059  0.0801  0.0059  0.1796  0.0017  0.0206  0.0017  0.0000 </r>
       </set>
       <set comment="band 20">
        <r>  0.0890  0.0267  0.0583  0.0267  0.1385  0.0142  0.0157  0.0142  0.0000 </r>
        <r>  0.0890  0.0267  0.0583  0.0267  0.1385  0.0142  0.0157  0.0142  0.0000 </r>
       </set>
       <set comment="band 21">
        <r>  0.1380  0.0378  0.0330  0.0378  0.0002  0.0587  0.0033  0.0587  0.0000 </r>
        <r>  0.1380  0.0378  0.0330  0.0378  0.0002  0.0587  0.0033  0.0587  0.0000 </r>
       </set>
       <set comment="band 22">
        <r>  0.0000  0.0873  0.0000  0.0873  0.0000  0.0867  0.0000  0.0867  0.0026 </r>
        <r>  0.0000  0.0873  0.0000  0.0873  0.0000  0.0867  0.0000  0.0867  0.0026 </r>
       </set>
       <set comment="band 23">
        <r>  0.2257  0.0023  0.1334  0.0023  0.0181  0.0013  0.0046  0.0013  0.0000 </r>
        <r>  0.2257  0.0023  0.1334  0.0023  0.0181  0.0013  0.0046  0.0013  0.0000 </r>
       </set>
       <set comment="band 24">
        <r>  0.1097  0.0461  0.0933  0.0461  0.0206  0.0284  0.0014  0.0284  0.0000 </r>
        <r>  0.1097  0.0461  0.0933  0.0461  0.0206  0.0284  0.0014  0.0284  0.0000 </r>
       </set>
      </set>
      <set comment="kpoint 35">
       <set comment="band 1">
        <r>  0.0000  0.1655  0.1655  0.1655  0.0000  0.0000  0.0000  0.0000  0.0000 </r>
        <r>  0.0000  0.1655  0.1655  0.1655  0.0000  0.0000  0.0000  0.0000  0.0000 </r>
       </set>
       <set comment="band 2">
        <r>  0.0000  0.0000  0.2476  0.2494  0.0001  0.0001  0.0000  0.0000  0.0000 </r>
        <r>  0.0000  0.0000  0.2476  0.2494  0.0001  0.0001  0.0000  0.0000  0.0000 </r>
       </set>
       <set comment="band 3">
        <r>  0.0000  0.3313  0.0837  0.0819  0.0000  0.0000  0.0000  0.0001  0.0000 </r>
        <r>  0.0000  0.3313  0.0837  0.0819  0.0000  0.0000  0.0000  0.0001  0.0000 </r>
       </set>
       <set comment="band 4">
        <r>  0.0000  0.1034  0.0663  0.3279  0.0000  0.0001  0.0000  0.0000  0.0000 </r>
        <r>  0.0000  0.1034  0.0663  0.3279  0.0000  0.0001  0.0000  0.0000  0.0000 </r>
       </set>
       <set comment="band 5">
        <r>  0.0000  0.2283  0.2654  0.0039  0.0001  0.0000  0.0000  0.0001  0.0000 </r>
        <r>  0.0000  0.2283  0.2654  0.0039  0.0001  0.0000  0.0000  0.0001  0.0000 </r>
       </set>
       <set comment="band 6">
        <r>  0.0000  0.1660  0.1660  0.1660  0.0000  0.0000  0.0000  0.0000  0.0000 </r>
        <r>  0.0000  0.1660  0.1660  0.1660  0.0000  0.0000  0.0000  0.0000  0.0000 </r>
       </set>
       <set comment="band 7">
        <r>  0.0055  0.0117  0.0117  0.0117  0.1269  0.1269  0.0000  0.1269  0.0000 </r>
        <r>  0.0055  0.0117  0.0117  0.0117  0.1269  0.1269  0.0000  0.1269  0.0000 </r>
       </set>
       <set comment="band 8">
        <r>  0.0000  0.0161  0.0277  0.0017  0.2237  0.0136  0.0047  0.1298  0.0004 </r>
        <r>  0.0000  0.0161  0.0277  0.0017  0.2237  0.0136  0.0047  0.1298  0.0004 </r>
       </set>
       <set comment="band 9">
        <r>  0.0000  0.0143  0.0026  0.0287  0.0210  0.2311  0.0004  0.1149  0.0047 </r>
        <r>  0.0000  0.0143  0.0026  0.0287  0.0210  0.2311  0.0004  0.1149  0.0047 </r>
       </set>
       <set comment="band 10">
        <r>  0.0089  0.0261  0.0261  0.0261  0.1012  0.1012  0.0000  0.1012  0.0000 </r>
        <r>  0.0089  0.0261  0.0261  0.0261  0.1012  0.1012  0.0000  0.1012  0.0000 </r>
       </set>
       <set comment="band 11">
        <r>  0.0000  0.0437  0.0145  0.0092  0.0704  0.0449  0.0026  0.2123  0.0055 </r>
        <r>  0.0000  0.0437  0.0145  0.0092  0.0704  0.0449  0.0026  0.2123  0.0055 </r>
       </set>
       <set comment="band 12">
        <r>  0.0000  0.0012  0.0305  0.0357  0.1480  0.1735  0.0055  0.0061  0.0026 </r>
        <r>  0.0000  0.0012  0.0305  0.0357  0.1480  0.1735  0.0055  0.0061  0.0026 </r>
       </set>
       <set comment="band 13">
        <r>  0.0000  0.0000  0.0000  0.0000  0.0005  0.0072  0.0306  0.0042  0.4486 </r>
        <r>  0.0000  0.0000  0.0000  0.0000  0.0005  0.0072  0.0306  0.0042  0.4486 </r>
       </set>
       <set comment="band 14">
        <r>  0.0000  0.0000  0.0000  0.0000  0.0074  0.0007  0.4486  0.0038  0.0306 </r>
        <r>  0.0000  0.0000  0.0000  0.0000  0.0074  0.0007  0.4486  0.0038  0.0306 </r>
       </set>
       <set comment="band 15">
        <r>  0.0000  0.0000  0.0000  0.0000  0.0003  0.0026  0.0319  0.0044  0.4520 </r>
        <r>  0.0000  0.0000  0.0000  0.0000  0.0003  0.0026  0.0319  0.0044  0.4520 </r>
       </set>
       <set comment="band 16">
        <r>  0.0000  0.0000  0.0000  0.0000  0.0046  0.0023  0.4520  0.0005  0.0319 </r>
        <r>  0.0000  0.0000  0.0000  0.0000  0.0046  0.0023  0.4520  0.0005  0.0319 </r>
       </set>
       <set comment="band 17">
        <r>  0.0277  0.0450  0.0450  0.0450  0.0781  0.0781  0.0000  0.0781  0.0000 </r>
        <r>  0.0277  0.0450  0.0450  0.0450  0.0781  0.0781  0.0000  0.0781  0.0000 </r>
       </set>
       <set comment="band 18">
        <r>  0.0000  0.1053  0.0594  0.0070  0.0721  0.0085  0.0027  0.1278  0.0025 </r>
        <r>  0.0000  0.1053  0.0594  0.0070  0.0721  0.0085  0.0027  0.1278  0.0025 </r>
       </set>
       <set comment="band 19">
        <r>  0.0000  0.0091  0.0551  0.1075  0.0668  0.1304  0.0025  0.0111  0.0027 </r>
        <r>  0.0000  0.0091  0.0551  0.1075  0.0668  0.1304  0.0025  0.0111  0.0027 </r>
       </set>
       <set comment="band 20">
        <r>  0.1929  0.0188  0.0188  0.0188  0.0421  0.0421  0.0000  0.0421  0.0000 </r>
        <r>  0.1929  0.0188  0.0188  0.0188  0.0421  0.0421  0.0000  0.0421  0.0000 </r>
       </set>
       <set comment="band 21">
        <r>  0.0000  0.0778  0.0036  0.0953  0.0039  0.1031  0.0001  0.0842  0.0034 </r>
        <r>  0.0000  0.0778  0.0036  0.0953  0.0039  0.1031  0.0001  0.0842  0.0034 </r>
       </set>
       <set comment="band 22">
        <r>  0.0000  0.0400  0.1142  0.0225  0.1236  0.0244  0.0034  0.0433  0.0001 </r>
        <r>  0.0000  0.0400  0.1142  0.0225  0.1236  0.0244  0.0034  0.0433  0.0001 </r>
       </set>
       <set comment="band 23">
        <r>  0.3402  0.0133  0.0133  0.0133  0.0007  0.0007  0.0000  0.0007  0.0000 </r>
        <r>  0.3402  0.0133  0.0133  0.0133  0.0007  0.0007  0.0000  0.0007  0.0000 </r>
       </set>
       <set comment="band 24">
        <r>  0.1777  0.0432  0.0432  0.0432  0.0226  0.0226  0.0000  0.0226  0.0000 </r>
        <r>  0.1777  0.0432  0.0432  0.0432  0.0226  0.0226  0.0000  0.0226  0.0000 </r>
       </set>
      </set>
     </set>
    </set>
   </array>
  </projected>
 </calculation>
 <structure name="finalpos" >
  <crystal>
   <varray name="basis" >
    <v>       2.84005200       0.00000000       0.00000000 </v>
    <v>       0.00000000       2.84005200       0.00000000 </v>
    <v>       0.00000000       0.00000000       2.84005200 </v>
   </varray>
   <i name="volume">     22.90756226 </i>
   <varray name="rec_basis" >
    <v>       0.35210623       0.00000000       0.00000000 </v>
    <v>       0.00000000       0.35210623       0.00000000 </v>
    <v>       0.00000000       0.00000000       0.35210623 </v>
   </varray>
  </crystal>
  <varray name="positions" >
   <v>       0.00000000       0.00000000       0.00000000 </v>
   <v>       0.50000000       0.50000000       0.50000000 </v>
  </varray>
 </structure>
</modeling>
