       N       E                     dE             d eps       ncg     rms          rms(c)
DAV:   1     0.987823638974E+02    0.98782E+02   -0.91784E+03 73300   0.137E+03
DAV:   2    -0.107945607081E+01   -0.99862E+02   -0.92474E+02 70604   0.226E+02
DAV:   3    -0.670619119827E+01   -0.56267E+01   -0.55280E+01 78168   0.641E+01
DAV:   4    -0.678547664228E+01   -0.79285E-01   -0.79251E-01 82268   0.687E+00
DAV:   5    -0.678772927729E+01   -0.22526E-02   -0.22522E-02 80020   0.113E+00    0.235E+01
DAV:   6    -0.904020574554E+01   -0.22525E+01   -0.84677E+00 79872   0.563E+01    0.636E+00
DAV:   7    -0.869476611831E+01    0.34544E+00   -0.13922E+00 82844   0.225E+01    0.270E+00
DAV:   8    -0.869556948609E+01   -0.80337E-03   -0.37294E-02 85472   0.247E+00    0.145E+00
DAV:   9    -0.869123722692E+01    0.43323E-02   -0.26193E-03 92996   0.444E-01    0.702E-01
DAV:  10    -0.868878815535E+01    0.24491E-02   -0.66694E-04107868   0.386E-01    0.124E-01
DAV:  11    -0.868902920262E+01   -0.24105E-03   -0.38871E-04 87996   0.247E-01    0.430E-02
DAV:  12    -0.868917849786E+01   -0.14930E-03   -0.15516E-04 95180   0.108E-01    0.366E-02
DAV:  13    -0.868940292723E+01   -0.22443E-03   -0.35303E-04 84476   0.174E-01    0.286E-02
DAV:  14    -0.868955299743E+01   -0.15007E-03   -0.22339E-04101572   0.132E-01    0.246E-02
DAV:  15    -0.868984379740E+01   -0.29080E-03   -0.13265E-03 88648   0.339E-01    0.149E-02
DAV:  16    -0.868995421603E+01   -0.11042E-03   -0.43705E-04102248   0.175E-01    0.916E-03
DAV:  17    -0.868998201958E+01   -0.27804E-04   -0.52669E-05 98280   0.537E-02    0.494E-03
DAV:  18    -0.868998787623E+01   -0.58567E-05   -0.36809E-06 89176   0.179E-02    0.253E-03
DAV:  19    -0.868999798215E+01   -0.10106E-04   -0.11431E-05 82164   0.301E-02    0.136E-03
DAV:  20    -0.869000068130E+01   -0.26991E-05   -0.17040E-06 74468   0.999E-03    0.118E-03
DAV:  21    -0.869000006966E+01    0.61164E-06   -0.15381E-07 41688   0.431E-03    0.115E-03
DAV:  22    -0.869000046948E+01   -0.39982E-06   -0.83886E-08 36308   0.356E-03    0.113E-03
DAV:  23    -0.868999936949E+01    0.11000E-05   -0.30012E-06 62140   0.174E-02    0.104E-03
DAV:  24    -0.868999925063E+01    0.11886E-06   -0.49861E-06 76240   0.222E-02    0.918E-04
DAV:  25    -0.869000064633E+01   -0.13957E-05   -0.18158E-06 59828   0.137E-02    0.738E-04
DAV:  26    -0.869000277538E+01   -0.21290E-05   -0.27962E-06 74408   0.175E-02    0.579E-04
DAV:  27    -0.869000318673E+01   -0.41135E-06   -0.44414E-07 63300   0.713E-03    0.557E-04
DAV:  28    -0.869000325530E+01   -0.68577E-07   -0.15195E-07 41896   0.294E-03
   1 F= -.86900033E+01 E0= -.86900033E+01  d E =0.000000E+00  mag=     3.5948
