unknown system                          
   1.00000000000000     
     2.478974    0.000000    0.000000
    -1.239487    2.146854    0.000000
     0.000000   -1.431236    8.096294
   Ni
     4
Direct
  0.250000  0.500000  0.750000
  0.500000  0.000000  0.500000
  0.000000  0.000000  0.000000
  0.750000  0.500000  0.250000
 
   36   36  128
 0.21938067816E+04 0.37069397881E+04 0.74676230131E+03 0.12069829409E+04 0.12395849231E+04
 0.90188413809E+03 0.56655069134E+03 0.33655670687E+03 0.19829691213E+03 0.11928072326E+03
 0.74624075610E+02 0.49083581855E+02 0.34137389780E+02 0.24919756260E+02 0.19773479283E+02
 0.16512497999E+02 0.14595652815E+02 0.13611506927E+02 0.13310978658E+02 0.13611506908E+02
 0.14595652788E+02 0.16512497979E+02 0.19773479283E+02 0.24919756278E+02 0.34137389805E+02
 0.49083581873E+02 0.74624075612E+02 0.11928072324E+03 0.19829691211E+03 0.33655670685E+03
 0.56655069133E+03 0.90188413810E+03 0.12395849232E+04 0.12069829409E+04 0.74676230131E+03
 0.37069397881E+04 0.37067705428E+04 0.37067705421E+04 0.89206239453E+03 0.10341197164E+04
 0.13002838845E+04 0.10569207798E+04 0.70021033953E+03 0.42519560359E+03 0.25132809651E+03
 0.14978355738E+03 0.92066051464E+02 0.59199223586E+02 0.40133444533E+02 0.28127525924E+02
 0.21901120410E+02 0.17826692164E+02 0.15333474083E+02 0.13944066131E+02 0.13331018761E+02
 0.13331018832E+02 0.13944066217E+02 0.15333473924E+02 0.17826691648E+02 0.21901119757E+02
 0.28127525603E+02 0.40133444930E+02 0.59199224659E+02 0.92066052655E+02 0.14978355792E+03
 0.25132809591E+03 0.42519560206E+03 0.70021033791E+03 0.10569207791E+04 0.13002838853E+04
 0.10341197182E+04 0.89206239638E+03 0.74624344478E+03 0.89214070036E+03 0.74624344368E+03
 0.10338776609E+04 0.13015109195E+04 0.11351723579E+04 0.79553633827E+03 0.50017313160E+03
 0.30084081343E+03 0.18002565347E+03 0.10999553080E+03 0.69810659636E+02 0.46497230970E+02
 0.32686675991E+02 0.24127920092E+02 0.19250973262E+02 0.16163554952E+02 0.14349179305E+02
 0.13417543302E+02 0.13133008418E+02 0.13417543509E+02 0.14349179474E+02 0.16163554812E+02
 0.19250972778E+02 0.24127919553E+02 0.32686675836E+02 0.46497231451E+02 0.69810660573E+02
 0.10999553163E+03 0.18002565359E+03 0.30084081264E+03 0.50017313030E+03 0.79553633724E+03
 0.11351723578E+04 0.13015109205E+04 0.10338776624E+04 0.12064620451E+04 0.10329556746E+04
 0.10329556749E+04 0.12064620459E+04 0.12999999564E+04 0.11350779351E+04 0.82984258917E+03
 0.54340716238E+03 0.33654278231E+03 0.20485316645E+03 0.12595588854E+03 0.79757534393E+02
 0.52666416787E+02 0.36532489593E+02 0.26299342109E+02 0.20697986500E+02 0.17041109665E+02
 0.14804844966E+02 0.13558200793E+02 0.13007815539E+02 0.13007815604E+02 0.13558200986E+02
 0.14804845257E+02 0.17041109969E+02 0.20697986677E+02 0.26299342025E+02 0.36532489221E+02
 0.52666416264E+02 0.79757533983E+02 0.12595588850E+03 0.20485316686E+03 0.33654278300E+03
 0.54340716299E+03 0.82984258935E+03 0.11350779347E+04 0.12999999556E+04 0.12391910096E+04
 0.12991688026E+04 0.13001452194E+04 0.12991688041E+04 0.12391910117E+04 0.10566895868E+04
 0.79543196097E+03 0.54337440569E+03 0.34959594833E+03 0.21896342132E+03 0.13710594512E+03
 0.87589567145E+02 0.57906128561E+02 0.39971170716E+02 0.28974461889E+02 0.22058257626E+02
 0.17904530781E+02 0.15278434762E+02 0.13734209894E+02 0.12940179414E+02 0.12697417557E+02
 0.12940179265E+02 0.13734209855E+02 0.15278435097E+02 0.17904531461E+02 0.22058258248E+02
 0.28974461922E+02 0.39971169916E+02 0.57906127249E+02 0.87589566099E+02 0.13710594510E+03
 0.21896342251E+03 0.34959595015E+03 0.54337440705E+03 0.79543196098E+03 0.10566895854E+04
 0.90161792520E+03 0.10562002060E+04 0.11341045885E+04 0.11341045889E+04 0.10562002068E+04
 0.90161792589E+03 0.70004553468E+03 0.50008699193E+03 0.33650498996E+03 0.21895128322E+03
 0.14111818340E+03 0.91925697262E+02 0.61447134266E+02 0.42584003786E+02 0.30803014680E+02
 0.23213926994E+02 0.18682148104E+02 0.15730015598E+02 0.13922959172E+02 0.12912919149E+02
 0.12465850124E+02 0.12465849926E+02 0.12912918707E+02 0.13922958835E+02 0.15730015646E+02
 0.18682148536E+02 0.23213927510E+02 0.30803014889E+02 0.42584003494E+02 0.61447133637E+02
 0.91925696725E+02 0.14111818335E+03 0.21895128374E+03 0.33650499071E+03 0.50008699241E+03
 0.70004553453E+03 0.56637789401E+03 0.69980777112E+03 0.79489366943E+03 0.82912799316E+03
 0.79489366842E+03 0.69980776967E+03 0.56637789292E+03 0.42508354584E+03 0.30077627324E+03
 0.20481984635E+03 0.13709100198E+03 0.91920736062E+02 0.62700205317E+02 0.43996627832E+02
 0.32009729311E+02 0.24055568885E+02 0.19301777430E+02 0.16117191121E+02 0.14100859415E+02
 0.12909987038E+02 0.12294565021E+02 0.12105791986E+02 0.12294564854E+02 0.12909986683E+02
 0.14100858914E+02 0.16117190648E+02 0.19301777256E+02 0.24055569218E+02 0.32009730109E+02
 0.43996628741E+02 0.62700205822E+02 0.91920735791E+02 0.13709100097E+03 0.20481984509E+03
 0.30077627244E+03 0.42508354599E+03 0.33644478195E+03 0.42498641537E+03 0.49983882707E+03
 0.54299370470E+03 0.54299370396E+03 0.49983882530E+03 0.42498641368E+03 0.33644478135E+03
 0.25125240743E+03 0.17997880528E+03 0.12592911667E+03 0.87575607478E+02 0.61440822032E+02
 0.43994550857E+02 0.32431052335E+02 0.24498900128E+02 0.19701448969E+02 0.16400812144E+02
 0.14246063638E+02 0.12918359637E+02 0.12169907064E+02 0.11836259744E+02 0.11836259922E+02
 0.12169907407E+02 0.12918359739E+02 0.14246063239E+02 0.16400811403E+02 0.19701448411E+02
 0.24498900275E+02 0.32431053277E+02 0.43994552095E+02 0.61440822749E+02 0.87575607088E+02
 0.12592911528E+03 0.17997880368E+03 0.25125240665E+03 0.19822315417E+03 0.25122611433E+03
 0.30068946108E+03 0.33634679839E+03 0.34939364397E+03 0.33634679833E+03 0.30068946107E+03
 0.25122611448E+03 0.19822315447E+03 0.14973187735E+03 0.10996183265E+03 0.79737000898E+02
 0.57894535135E+02 0.42578096188E+02 0.32007173658E+02 0.24498139246E+02 0.19839303665E+02
 0.16550720095E+02 0.14340876842E+02 0.12928709333E+02 0.12083817548E+02 0.11641626736E+02
 0.11504912743E+02 0.11641627239E+02 0.12083818255E+02 0.12928709825E+02 0.14340876836E+02
 0.16550719612E+02 0.19839303008E+02 0.24498138803E+02 0.32007173666E+02 0.42578096596E+02
 0.57894535662E+02 0.79737001231E+02 0.10996183264E+03 0.14973187709E+03 0.11923106806E+03
 0.14973961989E+03 0.17997463567E+03 0.20478939589E+03 0.21889446819E+03 0.21889446887E+03
 0.20478939754E+03 0.17997463734E+03 0.14973962065E+03 0.11923106753E+03 0.92030384129E+02
 0.69786652660E+02 0.52651281602E+02 0.39962309939E+02 0.30798286184E+02 0.24053399844E+02
 0.19700597909E+02 0.16550502939E+02 0.14373759025E+02 0.12935239645E+02 0.12032758006E+02
 0.11513884032E+02 0.11278925257E+02 0.11278925290E+02 0.11513884193E+02 0.12032758399E+02
 0.12935240236E+02 0.14373759550E+02 0.16550503017E+02 0.19700597316E+02 0.24053398751E+02
 0.30798285154E+02 0.39962309627E+02 0.52651282328E+02 0.69786654135E+02 0.92030385557E+02
 0.74590256503E+02 0.92053986079E+02 0.10999813840E+03 0.12596659716E+03 0.13712180677E+03
 0.14114045827E+03 0.13712180779E+03 0.12596659852E+03 0.10999813920E+03 0.92053985815E+02
 0.74590255395E+02 0.59174673913E+02 0.46480522736E+02 0.36521871134E+02 0.28968224276E+02
 0.23210662921E+02 0.19300223976E+02 0.16400212638E+02 0.14340719130E+02 0.12935229734E+02
 0.12015781020E+02 0.11450245516E+02 0.11146596124E+02 0.11051232107E+02 0.11146595585E+02
 0.11450244874E+02 0.12015780819E+02 0.12935230197E+02 0.14340719966E+02 0.16400213230E+02
 0.19300223827E+02 0.23210662046E+02 0.28968223235E+02 0.36521870663E+02 0.46480523227E+02
 0.59174675101E+02 0.49060718959E+02 0.59205314964E+02 0.69841964316E+02 0.79808772337E+02
 0.87655207918E+02 0.92000853290E+02 0.92000853061E+02 0.87655207319E+02 0.79808771608E+02
 0.69841963765E+02 0.59205314847E+02 0.49060719357E+02 0.40116933571E+02 0.32675537462E+02
 0.26292634267E+02 0.22054338569E+02 0.18680146631E+02 0.16116346138E+02 0.14245814884E+02
 0.12928704358E+02 0.12032809902E+02 0.11450278154E+02 0.11102926484E+02 0.10941168401E+02
 0.10941168095E+02 0.11102925714E+02 0.11450277300E+02 0.12032809383E+02 0.12928704431E+02
 0.14245815511E+02 0.16116347007E+02 0.18680147313E+02 0.22054338736E+02 0.26292633854E+02
 0.32675536688E+02 0.40116932812E+02 0.34122389863E+02 0.40150293457E+02 0.46544011624E+02
 0.52739217180E+02 0.57999483312E+02 0.61554575262E+02 0.62814626736E+02 0.61554573966E+02
 0.57999481503E+02 0.52739215932E+02 0.46544011636E+02 0.40150294645E+02 0.34122391454E+02
 0.28117428553E+02 0.24121135380E+02 0.20693887608E+02 0.17902375152E+02 0.15729100229E+02
 0.14100623537E+02 0.12918420498E+02 0.12083953698E+02 0.11513994081E+02 0.11146654061E+02
 0.10941185400E+02 0.10875072168E+02 0.10941185537E+02 0.11146654095E+02 0.11513993768E+02
 0.12083953068E+02 0.12918419926E+02 0.14100623507E+02 0.15729100956E+02 0.17902376334E+02
 0.20693888544E+02 0.24121135402E+02 0.28117427503E+02 0.24910671210E+02 0.28151157291E+02
 0.32741686452E+02 0.36616275829E+02 0.40078987540E+02 0.42709557141E+02 0.44132467918E+02
 0.44132467602E+02 0.42709556441E+02 0.40078987014E+02 0.36616275914E+02 0.32741687128E+02
 0.28151158077E+02 0.24910671512E+02 0.21894874353E+02 0.19247121266E+02 0.17039070617E+02
 0.15277611797E+02 0.13922835417E+02 0.12910178468E+02 0.12170171096E+02 0.11641840679E+02
 0.11279051727E+02 0.11051282339E+02 0.10941171133E+02 0.10941171563E+02 0.11051283339E+02
 0.11279052622E+02 0.11641840870E+02 0.12170170463E+02 0.12910177449E+02 0.13922834702E+02
 0.15277611856E+02 0.17039071379E+02 0.19247122185E+02 0.21894874797E+02 0.19768207839E+02
 0.21928295198E+02 0.24187006464E+02 0.26387960170E+02 0.29088864421E+02 0.30937461458E+02
 0.32157330459E+02 0.32584036613E+02 0.32157331249E+02 0.30937462645E+02 0.29088865420E+02
 0.26387960495E+02 0.24187005969E+02 0.21928294147E+02 0.19768206762E+02 0.17823407732E+02
 0.16161839579E+02 0.14804232059E+02 0.13734260575E+02 0.12913276746E+02 0.12294981110E+02
 0.11836593434E+02 0.11505111914E+02 0.11278998175E+02 0.11146579669E+02 0.11102862962E+02
 0.11146580175E+02 0.11278998993E+02 0.11505112711E+02 0.11836593856E+02 0.12294980934E+02
 0.12913276001E+02 0.13734259571E+02 0.14804231271E+02 0.16161839415E+02 0.17823408316E+02
 0.16509968509E+02 0.17855913020E+02 0.19311649112E+02 0.20788237431E+02 0.22174578215E+02
 0.23351352945E+02 0.24207989004E+02 0.24659418184E+02 0.24659418796E+02 0.24207990444E+02
 0.23351354287E+02 0.22174578616E+02 0.20788236677E+02 0.19311647734E+02 0.17855911920E+02
 0.16509968351E+02 0.15332210166E+02 0.14348840546E+02 0.13558441598E+02 0.12940692761E+02
 0.12466398627E+02 0.12106222561E+02 0.11836502514E+02 0.11641680315E+02 0.11513790339E+02
 0.11450063271E+02 0.11450063007E+02 0.11513789783E+02 0.11641679979E+02 0.11836502771E+02
 0.12106223316E+02 0.12466399348E+02 0.12940692853E+02 0.13558440869E+02 0.14348839402E+02
 0.15332209372E+02 0.14594888731E+02 0.15363712263E+02 0.16224437802E+02 0.17130969277E+02
 0.18020308146E+02 0.18819501423E+02 0.19455349426E+02 0.19865195353E+02 0.20006783734E+02
 0.19865195461E+02 0.19455349446E+02 0.18819501159E+02 0.18020307630E+02 0.17130968815E+02
 0.16224437783E+02 0.15363712847E+02 0.14594889668E+02 0.13944019704E+02 0.13417953386E+02
 0.13008432603E+02 0.12698028265E+02 0.12466297738E+02 0.12294762516E+02 0.12169838346E+02
 0.12083524587E+02 0.12032317251E+02 0.12015277231E+02 0.12032316296E+02 0.12083523250E+02
 0.12169837419E+02 0.12294762525E+02 0.12466298633E+02 0.12698029475E+02 0.13008433410E+02
 0.13417953371E+02 0.13944018972E+02 0.13611735724E+02 0.13974762810E+02 0.14409722160E+02
 0.14893541817E+02 0.15392449160E+02 0.15865443578E+02 0.16269293349E+02 0.16564319773E+02
 0.16720097370E+02 0.16720096858E+02 0.16564318518E+02 0.16269292034E+02 0.15865442905E+02
 0.15392449461E+02 0.14893542885E+02 0.14409723392E+02 0.13974763561E+02 0.13611735657E+02
 0.13331557581E+02 0.13133653885E+02 0.13008379632E+02 0.12940507802E+02 0.12912911106E+02
 0.12909610430E+02 0.12917653148E+02 0.12927767878E+02 0.12934186654E+02 0.12934186517E+02
 0.12927767477E+02 0.12917652552E+02 0.12909609820E+02 0.12912910761E+02 0.12940507974E+02
 0.13008380355E+02 0.13133654879E+02 0.13331558342E+02 0.13311598524E+02 0.13361951416E+02
 0.13477772113E+02 0.13645832393E+02 0.13846440335E+02 0.14056138422E+02 0.14250690230E+02
 0.14407884215E+02 0.14509914368E+02 0.14545254751E+02 0.14509913558E+02 0.14407883183E+02
 0.14250689727E+02 0.14056138823E+02 0.13846441365E+02 0.13645833322E+02 0.13477772273E+02
 0.13361950683E+02 0.13311597408E+02 0.13331613896E+02 0.13417936371E+02 0.13558235188E+02
 0.13733771959E+02 0.13922001574E+02 0.14099417046E+02 0.14244251745E+02 0.14338867678E+02
 0.14371743695E+02 0.14338868509E+02 0.14244252809E+02 0.14099417576E+02 0.13922001183E+02
 0.13733770917E+02 0.13558234232E+02 0.13417936180E+02 0.13331614609E+02 0.13611981911E+02
 0.13362138288E+02 0.13193257806E+02 0.13094951931E+02 0.13051269341E+02 0.13044409734E+02
 0.13057868858E+02 0.13078410376E+02 0.13096732994E+02 0.13107194544E+02 0.13107194675E+02
 0.13096733381E+02 0.13078410962E+02 0.13057869472E+02 0.13044410094E+02 0.13051269185E+02
 0.13094951212E+02 0.13193256798E+02 0.13362137504E+02 0.13611981827E+02 0.13944172585E+02
 0.14348737370E+02 0.14803717350E+02 0.15276555346E+02 0.15727415397E+02 0.16114009037E+02
 0.16397280234E+02 0.16547123059E+02 0.16547123586E+02 0.16397281523E+02 0.16114010384E+02
 0.15727416080E+02 0.15276555030E+02 0.14803716252E+02 0.14348736113E+02 0.13944171831E+02
 0.14595385909E+02 0.13975344933E+02 0.13478263630E+02 0.13095230853E+02 0.12808295441E+02
 0.12596584050E+02 0.12441307491E+02 0.12328752948E+02 0.12250999401E+02 0.12204768961E+02
 0.12189356011E+02 0.12204769885E+02 0.12251000693E+02 0.12328753842E+02 0.12441307480E+02
 0.12596583182E+02 0.12808294270E+02 0.13095230074E+02 0.13478263649E+02 0.13975345647E+02
 0.14595386819E+02 0.15332404678E+02 0.16161493088E+02 0.17037953249E+02 0.17900300092E+02
 0.18677007398E+02 0.19296029464E+02 0.19695495834E+02 0.19833580144E+02 0.19695495725E+02
 0.19296029439E+02 0.18677007652E+02 0.17900300595E+02 0.17037953702E+02 0.16161493112E+02
 0.15332404114E+02 0.16510719859E+02 0.15364754720E+02 0.14410783420E+02 0.13646721696E+02
 0.13051879748E+02 0.12596880949E+02 0.12252331346E+02 0.11994628613E+02 0.11808402580E+02
 0.11685977288E+02 0.11624885730E+02 0.11624885986E+02 0.11685977826E+02 0.11808402894E+02
 0.11994628341E+02 0.12252330587E+02 0.12596880240E+02 0.13051879678E+02 0.13646722449E+02
 0.14410784578E+02 0.15364755509E+02 0.16510719679E+02 0.17823532102E+02 0.19246257849E+02
 0.20691703057E+02 0.22050588318E+02 0.23205251337E+02 0.24046425813E+02 0.24489911598E+02
 0.24489910973E+02 0.24046424340E+02 0.23205249960E+02 0.22050587898E+02 0.20691703816E+02
 0.19246259251E+02 0.17823533233E+02 0.19769202755E+02 0.17857524134E+02 0.16226232619E+02
 0.14895206300E+02 0.13847788057E+02 0.13045367352E+02 0.12441884205E+02 0.11994880315E+02
 0.11671704254E+02 0.11451173863E+02 0.11321944150E+02 0.11279260540E+02 0.11321943668E+02
 0.11451173077E+02 0.11671703475E+02 0.11994879887E+02 0.12441884357E+02 0.13045368070E+02
 0.13847789049E+02 0.14895207099E+02 0.16226232806E+02 0.17857523569E+02 0.19769201678E+02
 0.21894740635E+02 0.24119352825E+02 0.26288763798E+02 0.28961701208E+02 0.30789162602E+02
 0.31995713183E+02 0.32417870632E+02 0.31995712377E+02 0.30789161394E+02 0.28961700199E+02
 0.26288763483E+02 0.24119353342E+02 0.21894741703E+02 0.24911870411E+02 0.21930618268E+02
 0.19314433130E+02 0.17133702668E+02 0.15394805999E+02 0.14057968746E+02 0.13059158475E+02
 0.12329569820E+02 0.11808848127E+02 0.11451351221E+02 0.11226915127E+02 0.11118411922E+02
 0.11118411509E+02 0.11226914170E+02 0.11451350370E+02 0.11808847957E+02 0.12329570442E+02
 0.13059159458E+02 0.14057969422E+02 0.15394805917E+02 0.17133701909E+02 0.19314432236E+02
 0.21930617854E+02 0.24911870737E+02 0.28116773084E+02 0.32672095334E+02 0.36514984528E+02
 0.39951566929E+02 0.42563547030E+02 0.43976803459E+02 0.43976803779E+02 0.42563547743E+02
 0.39951567475E+02 0.36514984462E+02 0.32672094668E+02 0.28116772292E+02 0.34123775904E+02
 0.28154342375E+02 0.24191111267E+02 0.20792469108E+02 0.18024114448E+02 0.15868532182E+02
 0.14252988055E+02 0.13079989566E+02 0.12252000437E+02 0.11686552523E+02 0.11322228216E+02
 0.11118512273E+02 0.11052976623E+02 0.11118512135E+02 0.11322228184E+02 0.11686552842E+02
 0.12252001074E+02 0.13079990143E+02 0.14252988083E+02 0.15868531444E+02 0.18024113249E+02
 0.20792468160E+02 0.24191111247E+02 0.28154343443E+02 0.34123777521E+02 0.40115198120E+02
 0.46474446105E+02 0.52639883171E+02 0.57877374385E+02 0.61418261057E+02 0.62673500121E+02
 0.61418262374E+02 0.57877376224E+02 0.52639884441E+02 0.46474446094E+02 0.40115196914E+02
 0.49062193634E+02 0.40154895940E+02 0.32747813245E+02 0.26394213859E+02 0.22180438905E+02
 0.18824431444E+02 0.16273088743E+02 0.14410589951E+02 0.13098530731E+02 0.12205881460E+02
 0.11625519329E+02 0.11279581471E+02 0.11118542861E+02 0.11118543150E+02 0.11279582198E+02
 0.11625520142E+02 0.12205881963E+02 0.13098530676E+02 0.14410589363E+02 0.16273087910E+02
 0.18824430775E+02 0.22180438722E+02 0.26394214241E+02 0.32747813995E+02 0.40154896693E+02
 0.49062194045E+02 0.59171166065E+02 0.69776330512E+02 0.79718501983E+02 0.87548576802E+02
 0.91886240966E+02 0.91886241199E+02 0.87548577408E+02 0.79718502713E+02 0.69776331052E+02
 0.59171166164E+02 0.74591666546E+02 0.59211744765E+02 0.46552960701E+02 0.36625861999E+02
 0.29097829022E+02 0.23358878369E+02 0.19461341479E+02 0.16568718269E+02 0.14512916868E+02
 0.13109107258E+02 0.12190487713E+02 0.11625495957E+02 0.11322226997E+02 0.11227007630E+02
 0.11322227511E+02 0.11625496560E+02 0.12190487885E+02 0.13109106789E+02 0.14512916052E+02
 0.16568717711E+02 0.19461341658E+02 0.23358879256E+02 0.29097830054E+02 0.36625862443E+02
 0.46552960181E+02 0.59211743559E+02 0.74591665435E+02 0.92023846297E+02 0.10994449217E+03
 0.12589907196E+03 0.13704833413E+03 0.14106557841E+03 0.13704833310E+03 0.12589907059E+03
 0.10994449135E+03 0.92023846547E+02 0.11923212497E+03 0.92063093712E+02 0.69855074952E+02
 0.52753411150E+02 0.40092376869E+02 0.30948981922E+02 0.24217029683E+02 0.19872055484E+02
 0.16724908522E+02 0.14548389066E+02 0.13109086604E+02 0.12205809887E+02 0.11686471690E+02
 0.11451339690E+02 0.11451339664E+02 0.11686471546E+02 0.12205809509E+02 0.13109086016E+02
 0.14548388530E+02 0.16724908426E+02 0.19872056066E+02 0.24217030780E+02 0.30948982967E+02
 0.40092377197E+02 0.52753410428E+02 0.69855073466E+02 0.92063092266E+02 0.11923212443E+03
 0.14972000306E+03 0.17994933946E+03 0.20477024840E+03 0.21888314825E+03 0.21888314756E+03
 0.20477024672E+03 0.17994933777E+03 0.14972000230E+03 0.19822332143E+03 0.14975295234E+03
 0.11001768393E+03 0.79829849746E+02 0.58019302561E+02 0.42726647507E+02 0.32171096406E+02
 0.24669625629E+02 0.20014187106E+02 0.16725052394E+02 0.14512972416E+02 0.13098448188E+02
 0.12251830194E+02 0.11808688299E+02 0.11671682688E+02 0.11808687832E+02 0.12251829540E+02
 0.13098447733E+02 0.14512972423E+02 0.16725052843E+02 0.20014187716E+02 0.24669626037E+02
 0.32171096394E+02 0.42726647124E+02 0.58019302070E+02 0.79829849439E+02 0.11001768394E+03
 0.14975295260E+03 0.19822332171E+03 0.25123077778E+03 0.30072502832E+03 0.33642142837E+03
 0.34948622682E+03 0.33642142843E+03 0.30072502834E+03 0.25123077764E+03 0.33644310736E+03
 0.25124671429E+03 0.18000481821E+03 0.12599844654E+03 0.87684579027E+02 0.61579626830E+02
 0.44152617590E+02 0.32599397614E+02 0.24670271279E+02 0.19872719436E+02 0.16569104979E+02
 0.14410645921E+02 0.13079796689E+02 0.12329268502E+02 0.11994635671E+02 0.11994635501E+02
 0.12329268178E+02 0.13079796608E+02 0.14410646332E+02 0.16569105717E+02 0.19872719978E+02
 0.24670271111E+02 0.32599396656E+02 0.44152616348E+02 0.61579626123E+02 0.87684579436E+02
 0.12599844796E+03 0.18000481982E+03 0.25124671507E+03 0.33644310675E+03 0.42504365984E+03
 0.49999599402E+03 0.54323220316E+03 0.54323220391E+03 0.49999599580E+03 0.42504366155E+03
 0.56637284988E+03 0.42502045755E+03 0.30073837342E+03 0.20483906614E+03 0.13716593999E+03
 0.92037471352E+02 0.62843648669E+02 0.44154535686E+02 0.32173377575E+02 0.24218861414E+02
 0.19462536259E+02 0.16273602114E+02 0.14252962706E+02 0.13058810872E+02 0.12441445448E+02
 0.12252040826E+02 0.12441445589E+02 0.13058811190E+02 0.14252963181E+02 0.16273602588E+02
 0.19462536458E+02 0.24218861114E+02 0.32173376798E+02 0.44154534773E+02 0.62843648141E+02
 0.92037471598E+02 0.13716594099E+03 0.20483906740E+03 0.30073837423E+03 0.42502045741E+03
 0.56637284880E+03 0.69997150566E+03 0.79526955374E+03 0.82960416706E+03 0.79526955476E+03
 0.69997150712E+03 0.90160758614E+03 0.69986775794E+03 0.49992201316E+03 0.33642716968E+03
 0.21896230473E+03 0.14119432316E+03 0.92042265143E+02 0.61585597952E+02 0.42732090008E+02
 0.30953181918E+02 0.23361608195E+02 0.18825933209E+02 0.15869029839E+02 0.14057793659E+02
 0.13044856360E+02 0.12596348033E+02 0.12596348212E+02 0.13044856755E+02 0.14057793949E+02
 0.15869029769E+02 0.18825932792E+02 0.23361607720E+02 0.30953181752E+02 0.42732090321E+02
 0.61585598571E+02 0.92042265649E+02 0.14119432318E+03 0.21896230420E+03 0.33642716893E+03
 0.49992201270E+03 0.69986775810E+03 0.90160758684E+03 0.10565538266E+04 0.11347951884E+04
 0.11347951881E+04 0.10565538259E+04 0.12391746410E+04 0.10563105081E+04 0.79503977624E+03
 0.54312735487E+03 0.34950003586E+03 0.21897442810E+03 0.13718062558E+03 0.87698040827E+02
 0.58030235025E+02 0.40100499987E+02 0.29103323725E+02 0.22183667890E+02 0.18025672779E+02
 0.15395166560E+02 0.13847437020E+02 0.13051246470E+02 0.12807765021E+02 0.13051246619E+02
 0.13847437058E+02 0.15395166223E+02 0.18025672097E+02 0.22183667267E+02 0.29103323693E+02
 0.40100500790E+02 0.58030236342E+02 0.87698041877E+02 0.13718062561E+03 0.21897442690E+03
 0.34950003403E+03 0.54312735350E+03 0.79503977623E+03 0.10563105096E+04 0.12391746431E+04
 0.12997625590E+04 0.13010555577E+04 0.12997625575E+04 0.12064451659E+04 0.12993715478E+04
 0.11343609769E+04 0.82935050203E+03 0.54316086555E+03 0.33646539823E+03 0.20487228550E+03
 0.12602467965E+03 0.79849571193E+02 0.52767607296E+02 0.36635522880E+02 0.26400033723E+02
 0.20795776034E+02 0.17135098481E+02 0.14895356932E+02 0.13646215722E+02 0.13094557472E+02
 0.13094557426E+02 0.13646215576E+02 0.14895356687E+02 0.17135098196E+02 0.20795775840E+02
 0.26400033763E+02 0.36635523210E+02 0.52767607801E+02 0.79849571617E+02 0.12602467972E+03
 0.20487228512E+03 0.33646539756E+03 0.54316086493E+03 0.82935050183E+03 0.11343609773E+04
 0.12993715486E+04 0.12064451667E+04 0.10335087017E+04 0.10335087014E+04 0.74624480524E+03
 0.10332995476E+04 0.13005692959E+04 0.11344586864E+04 0.79514738693E+03 0.50001005455E+03
 0.30080350529E+03 0.18005134794E+03 0.11005053784E+03 0.69877990009E+02 0.46568510972E+02
 0.32757839804E+02 0.24196908460E+02 0.19317451614E+02 0.16227311532E+02 0.14410702001E+02
 0.13477655917E+02 0.13192644655E+02 0.13477655738E+02 0.14410701871E+02 0.16227311700E+02
 0.19317452100E+02 0.24196908975E+02 0.32757839923E+02 0.46568510465E+02 0.69877989067E+02
 0.11005053703E+03 0.18005134784E+03 0.30080350610E+03 0.50001005586E+03 0.79514738795E+03
 0.11344586865E+04 0.13005692949E+04 0.10332995460E+04 0.74624480414E+03 0.89164591322E+03
 0.37067990112E+04 0.89257475986E+03 0.10335466197E+04 0.12996653729E+04 0.10565501738E+04
 0.70003764088E+03 0.42513472064E+03 0.25132276251E+03 0.14980397131E+03 0.92097613410E+02
 0.59234976919E+02 0.40170099834E+02 0.28163271645E+02 0.21935842393E+02 0.17859991804E+02
 0.15365435167E+02 0.13975047009E+02 0.13361493464E+02 0.13361493385E+02 0.13975046905E+02
 0.15365435306E+02 0.17859992312E+02 0.21935843054E+02 0.28163271985E+02 0.40170099454E+02
 0.59234975853E+02 0.92097612212E+02 0.14980397076E+03 0.25132276310E+03 0.42513472217E+03
 0.70003764250E+03 0.10565501745E+04 0.12996653722E+04 0.10335466179E+04 0.89257475801E+03
 0.37067990104E+04 0.41371498112E+04 0.18251742343E+04 0.84907835894E+03 0.12848144744E+04
 0.12271510810E+04 0.87681278892E+03 0.54945169830E+03 0.32714849952E+03 0.19346893410E+03
 0.11683596970E+03 0.73358624994E+02 0.48399883977E+02 0.33746467750E+02 0.24700093046E+02
 0.19620113226E+02 0.16403413334E+02 0.14513514936E+02 0.13543493449E+02 0.13247320457E+02
 0.13543493386E+02 0.14513514885E+02 0.16403413379E+02 0.19620113377E+02 0.24700093211E+02
 0.33746467794E+02 0.48399883823E+02 0.73358624701E+02 0.11683596945E+03 0.19346893407E+03
 0.32714849977E+03 0.54945169871E+03 0.87681278924E+03 0.12271510810E+04 0.12848144741E+04
 0.84907835847E+03 0.18251742339E+04 0.22526661795E+04 0.22526661788E+04 0.76076219619E+03
 0.10850491596E+04 0.12887798630E+04 0.10310530448E+04 0.68163166124E+03 0.41470920515E+03
 0.24587328861E+03 0.14700406772E+03 0.90635624273E+02 0.58441234860E+02 0.39715888316E+02
 0.27917081696E+02 0.21763886640E+02 0.17738706629E+02 0.15276030867E+02 0.13903730653E+02
 0.13298241908E+02 0.13298241957E+02 0.13903730695E+02 0.15276030695E+02 0.17738706163E+02
 0.21763886080E+02 0.27917081444E+02 0.39715888693E+02 0.58441235813E+02 0.90635625308E+02
 0.14700406817E+03 0.24587328806E+03 0.41470920379E+03 0.68163165982E+03 0.10310530443E+04
 0.12887798636E+04 0.10850491612E+04 0.76076219781E+03 0.78993694436E+03 0.91860374097E+03
 0.78993694306E+03 0.10470753061E+04 0.12794713715E+04 0.11091518379E+04 0.77775068996E+03
 0.49007904339E+03 0.29550170889E+03 0.17725447724E+03 0.10854681157E+03 0.69039445298E+02
 0.46078760537E+02 0.32457447806E+02 0.24010292554E+02 0.19186424534E+02 0.16132008969E+02
 0.14336586961E+02 0.13414491023E+02 0.13132837149E+02 0.13414491231E+02 0.14336587109E+02
 0.16132008765E+02 0.19186423958E+02 0.24010291950E+02 0.32457447672E+02 0.46078761144E+02
 0.69039446413E+02 0.10854681253E+03 0.17725447734E+03 0.29550170793E+03 0.49007904183E+03
 0.77775068876E+03 0.11091518378E+04 0.12794713727E+04 0.10470753079E+04 0.12306832168E+04
 0.11184362086E+04 0.11184362087E+04 0.12306832171E+04 0.12877644492E+04 0.11179402239E+04
 0.81769154827E+03 0.53624538968E+03 0.33257497142E+03 0.20268308690E+03 0.12476132477E+03
 0.79094676649E+02 0.52300158397E+02 0.36336221573E+02 0.26206944517E+02 0.20660043922E+02
 0.17036898801E+02 0.14820056387E+02 0.13583671180E+02 0.13037652482E+02 0.13037652580E+02
 0.13583671431E+02 0.14820056678E+02 0.17036898999E+02 0.20660043931E+02 0.26206944324E+02
 0.36336221260E+02 0.52300158111E+02 0.79094676530E+02 0.12476132488E+03 0.20268308719E+03
 0.33257497176E+03 0.53624538991E+03 0.81769154827E+03 0.11179402237E+04 0.12877644489E+04
 0.12575508862E+04 0.13441393066E+04 0.13615852430E+04 0.13441393081E+04 0.12575508883E+04
 0.10607293841E+04 0.79506994063E+03 0.54221588148E+03 0.34853600379E+03 0.21815538410E+03
 0.13653533214E+03 0.87211267028E+02 0.57674141962E+02 0.39845171554E+02 0.28921290129E+02
 0.22051644793E+02 0.17929487727E+02 0.15321415793E+02 0.13786791730E+02 0.12997337625E+02
 0.12755919733E+02 0.12997337541E+02 0.13786791777E+02 0.15321416176E+02 0.17929488384E+02
 0.22051645337E+02 0.28921290082E+02 0.39845170727E+02 0.57674140693E+02 0.87211266065E+02
 0.13653533219E+03 0.21815538530E+03 0.34853600556E+03 0.54221588277E+03 0.79506994061E+03
 0.10607293826E+04 0.92668572630E+03 0.10979231563E+04 0.11900439043E+04 0.11900439047E+04
 0.10979231575E+04 0.92668572736E+03 0.71331520766E+03 0.50657231090E+03 0.33944554041E+03
 0.22015558490E+03 0.14153505069E+03 0.92026153130E+02 0.61449158509E+02 0.42576636374E+02
 0.30816495920E+02 0.23245546476E+02 0.18738718772E+02 0.15800595796E+02 0.14000852695E+02
 0.12994394935E+02 0.12548788542E+02 0.12548788341E+02 0.12994394504E+02 0.14000852418E+02
 0.15800595961E+02 0.18738719326E+02 0.23245547031E+02 0.30816496021E+02 0.42576635853E+02
 0.61449157648E+02 0.92026152508E+02 0.14153505079E+03 0.22015558573E+03 0.33944554148E+03
 0.50657231150E+03 0.71331520736E+03 0.58844156938E+03 0.73410992294E+03 0.84087703114E+03
 0.88012651481E+03 0.84087703040E+03 0.73410992186E+03 0.58844156852E+03 0.43782261589E+03
 0.30756471732E+03 0.20820884254E+03 0.13868922932E+03 0.92641676683E+02 0.63024270153E+02
 0.44157720923E+02 0.32115220476E+02 0.24134308422E+02 0.19393012516E+02 0.16215032822E+02
 0.14201767917E+02 0.13012269872E+02 0.12397466002E+02 0.12208877917E+02 0.12397465748E+02
 0.13012269426E+02 0.14201767417E+02 0.16215032471E+02 0.19393012510E+02 0.24134308839E+02
 0.32115221185E+02 0.44157721599E+02 0.63024270426E+02 0.92641676345E+02 0.13868922848E+03
 0.20820884160E+03 0.30756471679E+03 0.43782261608E+03 0.35187644655E+03 0.44860181584E+03
 0.53194009104E+03 0.58074521382E+03 0.58074521304E+03 0.53194008919E+03 0.44860181404E+03
 0.35187644586E+03 0.26044786683E+03 0.18508235540E+03 0.12861448276E+03 0.88937132538E+02
 0.62128400619E+02 0.44357537266E+02 0.32648377777E+02 0.24634023187E+02 0.19830408936E+02
 0.16525237948E+02 0.14367149576E+02 0.13037369160E+02 0.12287901535E+02 0.11953896732E+02
 0.11953896864E+02 0.12287901763E+02 0.13037369134E+02 0.14367149100E+02 0.16525237219E+02
 0.19830408474E+02 0.24634023466E+02 0.32648378823E+02 0.44357538528E+02 0.62128401271E+02
 0.88937132029E+02 0.12861448125E+03 0.18508235374E+03 0.26044786606E+03 0.20791231208E+03
 0.26591424407E+03 0.32088203998E+03 0.36103788236E+03 0.37584619443E+03 0.36103788198E+03
 0.32088203954E+03 0.26591424392E+03 0.20791231238E+03 0.15564536833E+03 0.11336514070E+03
 0.81617388198E+02 0.58916899227E+02 0.43145245394E+02 0.32345527982E+02 0.24696283326E+02
 0.20007727269E+02 0.16700251301E+02 0.14478697104E+02 0.13059852517E+02 0.12211651729E+02
 0.11768123614E+02 0.11631079098E+02 0.11768124145E+02 0.12211652437E+02 0.13059852931E+02
 0.14478696953E+02 0.16700250691E+02 0.20007726613E+02 0.24696283060E+02 0.32345528269E+02
 0.43145246019E+02 0.58916899752E+02 0.81617388274E+02 0.11336514031E+03 0.15564536778E+03
 0.12503362566E+03 0.15843665617E+03 0.19199705186E+03 0.21987417953E+03 0.23585523025E+03