unknown system                          
   1.00000000000000     
     2.478974    0.000000    0.000000
    -1.239487    2.146854    0.000000
     0.000000   -1.431236    8.096294
   Ni
     4
Direct
  0.250000  0.500000  0.750000
  0.500000  0.000000  0.500000
  0.000000  0.000000  0.000000
  0.750000  0.500000  0.250000
 
   36   36  128
 0.17528463351E+04 0.36703345342E+04 0.80237311501E+03 0.12575514460E+04 0.12745665780E+04
 0.92690452063E+03 0.58511436649E+03 0.35018713752E+03 0.20784160552E+03 0.12546566692E+03
 0.78307399310E+02 0.51015205517E+02 0.34969636367E+02 0.24993966348E+02 0.19299248528E+02
 0.15677852486E+02 0.13447045162E+02 0.12290289837E+02 0.11897672800E+02 0.12290289837E+02
 0.13447045162E+02 0.15677852486E+02 0.19299248528E+02 0.24993966348E+02 0.34969636367E+02
 0.51015205517E+02 0.78307399310E+02 0.12546566692E+03 0.20784160552E+03 0.35018713752E+03
 0.58511436649E+03 0.92690452063E+03 0.12745665780E+04 0.12575514460E+04 0.80237311501E+03
 0.36703345342E+04 0.36703357352E+04 0.36703372090E+04 0.93770997167E+03 0.10900236655E+04
 0.13405266497E+04 0.10853424321E+04 0.72122285858E+03 0.44086330014E+03 0.26262663904E+03
 0.15741710979E+03 0.96824772362E+02 0.61874315002E+02 0.41459065426E+02 0.28461386697E+02
 0.21706303342E+02 0.17165915663E+02 0.14343825248E+02 0.12707580080E+02 0.11957504559E+02
 0.11958455739E+02 0.12706532495E+02 0.14344889223E+02 0.17164825256E+02 0.21707473092E+02
 0.28459634290E+02 0.41461486545E+02 0.61873246937E+02 0.96826274492E+02 0.15741440334E+03
 0.26262904841E+03 0.44086318059E+03 0.72122261451E+03 0.10853497553E+04 0.13405176263E+04
 0.10900251996E+04 0.93770932060E+03 0.80237386462E+03 0.93771082681E+03 0.80237135856E+03
 0.10900249710E+04 0.13439290294E+04 0.11657212096E+04 0.81828262014E+03 0.51737860558E+03
 0.31355678673E+03 0.18892038556E+03 0.11576208123E+03 0.73239115735E+02 0.48313946084E+02
 0.33454176607E+02 0.24205080131E+02 0.18779465422E+02 0.15347083747E+02 0.13213802828E+02
 0.12113961824E+02 0.11731955445E+02 0.12114089894E+02 0.13213718908E+02 0.15347227031E+02
 0.18779211909E+02 0.24205885292E+02 0.33453329930E+02 0.48312728606E+02 0.73238268719E+02
 0.11576388403E+03 0.18892008023E+03 0.31355516788E+03 0.51737853642E+03 0.81827555098E+03
 0.11657237979E+04 0.13439349329E+04 0.10900247353E+04 0.12575493599E+04 0.10900230810E+04
 0.10900244356E+04 0.12575519205E+04 0.13405219891E+04 0.11657202729E+04 0.85325808648E+03
 0.56146465813E+03 0.35018347574E+03 0.21468791945E+03 0.13255541403E+03 0.83862520629E+02
 0.54956440611E+02 0.37674707153E+02 0.26585364463E+02 0.20455370239E+02 0.16377606643E+02
 0.13811039710E+02 0.12322511726E+02 0.11633620091E+02 0.11632425742E+02 0.12323637556E+02
 0.13809778409E+02 0.16378953837E+02 0.20453505182E+02 0.26587227196E+02 0.37674251157E+02
 0.54960010743E+02 0.83859721003E+02 0.13255678269E+03 0.21468724033E+03 0.35018505825E+03
 0.56147262924E+03 0.85325397316E+03 0.11657219461E+04 0.13405154281E+04 0.12745616958E+04
 0.13405225418E+04 0.13439263392E+04 0.13405204514E+04 0.12745525076E+04 0.10853465552E+04
 0.81827660593E+03 0.56147022024E+03 0.36357447333E+03 0.22929939483E+03 0.14425712994E+03
 0.92195188447E+02 0.60607697545E+02 0.41416110827E+02 0.29507781759E+02 0.22033663077E+02
 0.17394863129E+02 0.14431968278E+02 0.12589220696E+02 0.11614152459E+02 0.11287580753E+02
 0.11614038795E+02 0.12589549196E+02 0.14431574242E+02 0.17395869817E+02 0.22032619964E+02
 0.29507540302E+02 0.41413632299E+02 0.60608188272E+02 0.92194300767E+02 0.14425741501E+03
 0.22929997779E+03 0.36356477899E+03 0.56147450573E+03 0.81827539074E+03 0.10853453710E+04
 0.92690120530E+03 0.10853371544E+04 0.11657164520E+04 0.11657172956E+04 0.10853454750E+04
 0.92690289653E+03 0.72122483884E+03 0.51738023347E+03 0.35018938902E+03 0.22929075297E+03
 0.14847951205E+03 0.96797067240E+02 0.64432315320E+02 0.44243295413E+02 0.31553928023E+02
 0.23356320690E+02 0.18325845896E+02 0.15016150888E+02 0.12890631850E+02 0.11647976375E+02
 0.11062399539E+02 0.11064153028E+02 0.11646182996E+02 0.12892435663E+02 0.15013678298E+02
 0.18328188120E+02 0.23355322020E+02 0.31557725995E+02 0.44241195086E+02 0.64436155262E+02
 0.96795952599E+02 0.14847879517E+03 0.22929925868E+03 0.35018475073E+03 0.51738312027E+03
 0.72122535511E+03 0.58512100934E+03 0.72122570310E+03 0.81828240166E+03 0.85325739033E+03
 0.81827640299E+03 0.72122505111E+03 0.58511782394E+03 0.44087013843E+03 0.31355737437E+03
 0.21467773522E+03 0.14426770643E+03 0.96793543286E+02 0.65785841996E+02 0.45777909506E+02
 0.32900655478E+02 0.24320966535E+02 0.19065335733E+02 0.15524360450E+02 0.13169038124E+02
 0.11728626035E+02 0.10911853205E+02 0.10671882531E+02 0.10912069989E+02 0.11728145332E+02
 0.13170303876E+02 0.15523347823E+02 0.19065206375E+02 0.24317935036E+02 0.32901836361E+02
 0.45775334243E+02 0.65783822947E+02 0.96795929972E+02 0.14425810927E+03 0.21468598492E+03
 0.31355313111E+03 0.44086766348E+03 0.35018662422E+03 0.44086775981E+03 0.51738358358E+03
 0.56146835616E+03 0.56147217970E+03 0.51738103837E+03 0.44086993276E+03 0.35018883063E+03
 0.26262135729E+03 0.18891690485E+03 0.13256851106E+03 0.92184197822E+02 0.64436288706E+02
 0.45774671683E+02 0.33374612093E+02 0.24821805182E+02 0.19551790827E+02 0.15892240605E+02
 0.13406573077E+02 0.11807376717E+02 0.10832837308E+02 0.10382283536E+02 0.10379451924E+02
 0.10835776496E+02 0.11803918841E+02 0.13409545372E+02 0.15890250396E+02 0.19557001113E+02
 0.24819064186E+02 0.33378620581E+02 0.45775542548E+02 0.64436121850E+02 0.92194061285E+02
 0.13255803492E+03 0.18891951748E+03 0.26262553159E+03 0.20783980424E+03 0.26262413808E+03
 0.31355558358E+03 0.35018368386E+03 0.36357424915E+03 0.35018951736E+03 0.31355758057E+03
 0.26262285535E+03 0.20783788343E+03 0.15741867142E+03 0.11576756499E+03 0.83844358360E+02
 0.60624431031E+02 0.44237124859E+02 0.32905642909E+02 0.24821062316E+02 0.19718207165E+02
 0.16090233477E+02 0.13561107636E+02 0.11880169168E+02 0.10789494962E+02 0.10194580386E+02
 0.99936577646E+01 0.10194211431E+02 0.10790532469E+02 0.11879437104E+02 0.13561139790E+02
 0.16086990280E+02 0.19718429142E+02 0.24819456600E+02 0.32901594170E+02 0.44241417654E+02
 0.60608143573E+02 0.83859256402E+02 0.11576494979E+03 0.15741556343E+03 0.12546755276E+03
 0.15741765906E+03 0.18891963085E+03 0.21468732685E+03 0.22930011238E+03 0.22929229190E+03
 0.21467928373E+03 0.18891705927E+03 0.15741738154E+03 0.12547422957E+03 0.96820766765E+02
 0.73238624096E+02 0.54972577362E+02 0.41397145312E+02 0.31561866382E+02 0.24313784974E+02
 0.19553232511E+02 0.16088356487E+02 0.13616092048E+02 0.11921345593E+02 0.10773588267E+02
 0.10078751928E+02 0.97404025882E+01 0.97445547882E+01 0.10074262615E+02 0.10777464277E+02
 0.11918460281E+02 0.13621775018E+02 0.16086508519E+02 0.19556255342E+02 0.24317693539E+02
 0.31557177916E+02 0.41413582690E+02 0.54960329220E+02 0.73237576834E+02 0.96826440053E+02
 0.78306555398E+02 0.96824920135E+02 0.11576295221E+03 0.13255582528E+03 0.14425647741E+03
 0.14847823472E+03 0.14426573696E+03 0.13256675324E+03 0.11576741319E+03 0.96821519673E+02
 0.78296582725E+02 0.61880164458E+02 0.48315131663E+02 0.37656819820E+02 0.29530717043E+02
 0.23344782661E+02 0.19076934877E+02 0.15887535822E+02 0.13565490862E+02 0.11918981242E+02
 0.10769169016E+02 0.10022551629E+02 0.95954860832E+01 0.94614916511E+01 0.95957587476E+01
 0.10023077598E+02 0.10767422896E+02 0.11918204820E+02 0.13561651936E+02 0.15890384454E+02
 0.19066040321E+02 0.23356329349E+02 0.29507942346E+02 0.37674043933E+02 0.48313106173E+02
 0.61873197897E+02 0.51015625764E+02 0.61874455217E+02 0.73238378030E+02 0.83862072380E+02
 0.92195415133E+02 0.96797574533E+02 0.96794573832E+02 0.92185501154E+02 0.83845126726E+02
 0.73238009498E+02 0.61879799602E+02 0.51035303005E+02 0.41435728216E+02 0.33465216194E+02
 0.26596828102E+02 0.22013013208E+02 0.18338375167E+02 0.15511911305E+02 0.13414318792E+02
 0.11874663114E+02 0.10775371549E+02 0.10021106752E+02 0.95519068069E+01 0.93258177798E+01
 0.93258071481E+01 0.95509966003E+01 0.10023321758E+02 0.10775698848E+02 0.11879391153E+02
 0.13411059019E+02 0.15523388945E+02 0.18327842384E+02 0.22032383465E+02 0.26587417692E+02
 0.33452799196E+02 0.41460880703E+02 0.34970067558E+02 0.41457556386E+02 0.48313335397E+02
 0.54957097564E+02 0.60608885290E+02 0.64433922780E+02 0.65786983754E+02 0.64437165203E+02
 0.60624675889E+02 0.54972809239E+02 0.48314810843E+02 0.41435070199E+02 0.34964522377E+02
 0.28489281193E+02 0.24181818610E+02 0.20455593615E+02 0.17406944951E+02 0.15007274940E+02
 0.13179579281E+02 0.11802330554E+02 0.10794038339E+02 0.10075472901E+02 0.96000476704E+01
 0.93255535561E+01 0.92386062980E+01 0.93263074421E+01 0.95980537381E+01 0.10074580672E+02
 0.10789801275E+02 0.11803981826E+02 0.13170209774E+02 0.15013147842E+02 0.17395246293E+02
 0.20453779505E+02 0.24206663623E+02 0.28460665882E+02 0.24995735487E+02 0.28461241419E+02
 0.33454047916E+02 0.37676161625E+02 0.41417330435E+02 0.44243725172E+02 0.45778150209E+02
 0.45775023319E+02 0.44238408192E+02 0.41398985314E+02 0.37658063900E+02 0.33465374690E+02
 0.28487867880E+02 0.24981282632E+02 0.21693323979E+02 0.18801611120E+02 0.16373894321E+02
 0.14423951381E+02 0.12893892580E+02 0.11719458419E+02 0.10834574793E+02 0.10191688446E+02
 0.97430546971E+01 0.94625645261E+01 0.93251169969E+01 0.93257807676E+01 0.94633148960E+01
 0.97455819569E+01 0.10194526664E+02 0.10835303051E+02 0.11726486297E+02 0.12892048899E+02
 0.14430968558E+02 0.16379280603E+02 0.18778543289E+02 0.21708237750E+02 0.19298722003E+02
 0.21705402138E+02 0.24206782442E+02 0.26586933053E+02 0.29508754447E+02 0.31553140623E+02
 0.32899321827E+02 0.33373106209E+02 0.32903774380E+02 0.31560765256E+02 0.29531343165E+02
 0.26598431570E+02 0.24182803118E+02 0.21691972688E+02 0.19317021039E+02 0.17168802605E+02
 0.15330316182E+02 0.13812431111E+02 0.12597283626E+02 0.11644808158E+02 0.10918321793E+02
 0.10379347448E+02 0.99978625335E+01 0.97432462489E+01 0.95998600385E+01 0.95527163648E+01
 0.95975606700E+01 0.97415820790E+01 0.99937020995E+01 0.10379041466E+02 0.10910354201E+02
 0.11646460108E+02 0.12589803485E+02 0.13809718213E+02 0.15346959927E+02 0.17164270270E+02
 0.15677157174E+02 0.17164601830E+02 0.18779934602E+02 0.20456240561E+02 0.22033116292E+02
 0.23355575705E+02 0.24319086216E+02 0.24820379887E+02 0.24820121163E+02 0.24312626361E+02
 0.23343528240E+02 0.22012444101E+02 0.20456355721E+02 0.18802437725E+02 0.17167940663E+02
 0.15663602877E+02 0.14340669349E+02 0.13227998177E+02 0.12320708784E+02 0.11609120042E+02
 0.11062589947E+02 0.10662732074E+02 0.10379974365E+02 0.10192808735E+02 0.10076887415E+02
 0.10023314252E+02 0.10025354208E+02 0.10080388150E+02 0.10196103035E+02 0.10382154259E+02
 0.10669626403E+02 0.11063188562E+02 0.11615190555E+02 0.12323355935E+02 0.13212506177E+02
 0.14343881076E+02 0.13445266567E+02 0.14342281458E+02 0.15347242508E+02 0.16378003939E+02
 0.17393916465E+02 0.18325308143E+02 0.19065767680E+02 0.19551349196E+02 0.19718069075E+02
 0.19552669047E+02 0.19076464472E+02 0.18337882774E+02 0.17406601795E+02 0.16374007191E+02
 0.15330866624E+02 0.14340190649E+02 0.13458095105E+02 0.12706605040E+02 0.12099725748E+02
 0.11633975403E+02 0.11294946886E+02 0.11061560002E+02 0.10919050898E+02 0.10836517360E+02
 0.10796876750E+02 0.10778634398E+02 0.10771756814E+02 0.10774810511E+02 0.10791731909E+02
 0.10834546357E+02 0.10910864982E+02 0.11060822723E+02 0.11287956522E+02 0.11633394029E+02
 0.12113036848E+02 0.12705679429E+02 0.12289898313E+02 0.12706187237E+02 0.13213510720E+02
 0.13810413936E+02 0.14431080383E+02 0.15014956236E+02 0.15525368616E+02 0.15893356962E+02
 0.16091067989E+02 0.16090029619E+02 0.15888954652E+02 0.15512757754E+02 0.15007145641E+02
 0.14423472135E+02 0.13811974955E+02 0.13228874137E+02 0.12705999030E+02 0.12279131840E+02
 0.11955995125E+02 0.11744974957E+02 0.11633934866E+02 0.11606687107E+02 0.11643595487E+02
 0.11720918958E+02 0.11805260058E+02 0.11877102825E+02 0.11920235553E+02 0.11922305177E+02
 0.11882770632E+02 0.11809890385E+02 0.11728526942E+02 0.11646652535E+02 0.11612870206E+02
 0.11634396102E+02 0.11731135276E+02 0.11957216538E+02 0.11896612288E+02 0.11956028742E+02
 0.12114356961E+02 0.12322346285E+02 0.12588076941E+02 0.12890182981E+02 0.13169819778E+02
 0.13409157212E+02 0.13562639870E+02 0.13617709173E+02 0.13566339355E+02 0.13415277187E+02
 0.13180248586E+02 0.12893596600E+02 0.12595900649E+02 0.12320695774E+02 0.12101172599E+02
 0.11955851273E+02 0.11907968691E+02 0.11955851273E+02 0.12101172599E+02 0.12320695774E+02
 0.12595900649E+02 0.12893596600E+02 0.13180248586E+02 0.13415277187E+02 0.13566339355E+02
 0.13617709173E+02 0.13562639870E+02 0.13409157212E+02 0.13169819778E+02 0.12890182981E+02
 0.12588076941E+02 0.12322346285E+02 0.12114356961E+02 0.11956028742E+02 0.12289898313E+02
 0.11957216538E+02 0.11731135276E+02 0.11634396102E+02 0.11612870206E+02 0.11646652535E+02
 0.11728526942E+02 0.11809890385E+02 0.11882770632E+02 0.11922305177E+02 0.11920235553E+02
 0.11877102825E+02 0.11805260058E+02 0.11720918958E+02 0.11643595487E+02 0.11606687107E+02
 0.11633934866E+02 0.11744974957E+02 0.11955995125E+02 0.12279131840E+02 0.12705999030E+02
 0.13228874137E+02 0.13811974955E+02 0.14423472135E+02 0.15007145641E+02 0.15512757754E+02
 0.15888954652E+02 0.16090029619E+02 0.16091067989E+02 0.15893356962E+02 0.15525368616E+02
 0.15014956236E+02 0.14431080383E+02 0.13810413936E+02 0.13213510720E+02 0.12706187237E+02
 0.13445266567E+02 0.12705679429E+02 0.12113036848E+02 0.11633394029E+02 0.11287956522E+02
 0.11060822723E+02 0.10910864982E+02 0.10834546357E+02 0.10791731909E+02 0.10774810511E+02
 0.10771756814E+02 0.10778634398E+02 0.10796876750E+02 0.10836517360E+02 0.10919050898E+02
 0.11061560002E+02 0.11294946886E+02 0.11633975403E+02 0.12099725748E+02 0.12706605040E+02
 0.13458095105E+02 0.14340190649E+02 0.15330866624E+02 0.16374007191E+02 0.17406601795E+02
 0.18337882774E+02 0.19076464472E+02 0.19552669047E+02 0.19718069075E+02 0.19551349196E+02
 0.19065767680E+02 0.18325308143E+02 0.17393916465E+02 0.16378003939E+02 0.15347242508E+02
 0.14342281458E+02 0.15677157174E+02 0.14343881076E+02 0.13212506177E+02 0.12323355935E+02
 0.11615190555E+02 0.11063188562E+02 0.10669626403E+02 0.10382154259E+02 0.10196103035E+02
 0.10080388150E+02 0.10025354208E+02 0.10023314252E+02 0.10076887415E+02 0.10192808735E+02
 0.10379974365E+02 0.10662732074E+02 0.11062589947E+02 0.11609120042E+02 0.12320708784E+02
 0.13227998177E+02 0.14340669349E+02 0.15663602877E+02 0.17167940663E+02 0.18802437725E+02
 0.20456355721E+02 0.22012444101E+02 0.23343528240E+02 0.24312626361E+02 0.24820121163E+02
 0.24820379887E+02 0.24319086216E+02 0.23355575705E+02 0.22033116292E+02 0.20456240561E+02
 0.18779934602E+02 0.17164601830E+02 0.19298722003E+02 0.17164270270E+02 0.15346959927E+02
 0.13809718213E+02 0.12589803485E+02 0.11646460108E+02 0.10910354201E+02 0.10379041466E+02
 0.99937020995E+01 0.97415820790E+01 0.95975606700E+01 0.95527163648E+01 0.95998600385E+01
 0.97432462489E+01 0.99978625335E+01 0.10379347448E+02 0.10918321793E+02 0.11644808158E+02
 0.12597283626E+02 0.13812431111E+02 0.15330316182E+02 0.17168802605E+02 0.19317021039E+02
 0.21691972688E+02 0.24182803118E+02 0.26598431570E+02 0.29531343165E+02 0.31560765256E+02
 0.32903774380E+02 0.33373106209E+02 0.32899321827E+02 0.31553140623E+02 0.29508754447E+02
 0.26586933053E+02 0.24206782442E+02 0.21705402138E+02 0.24995735487E+02 0.21708237750E+02
 0.18778543289E+02 0.16379280603E+02 0.14430968558E+02 0.12892048899E+02 0.11726486297E+02
 0.10835303051E+02 0.10194526664E+02 0.97455819569E+01 0.94633148960E+01 0.93257807676E+01
 0.93251169969E+01 0.94625645261E+01 0.97430546971E+01 0.10191688446E+02 0.10834574793E+02
 0.11719458419E+02 0.12893892580E+02 0.14423951381E+02 0.16373894321E+02 0.18801611120E+02
 0.21693323979E+02 0.24981282632E+02 0.28487867880E+02 0.33465374690E+02 0.37658063900E+02
 0.41398985314E+02 0.44238408192E+02 0.45775023319E+02 0.45778150209E+02 0.44243725172E+02
 0.41417330435E+02 0.37676161625E+02 0.33454047916E+02 0.28461241419E+02 0.34970067558E+02
 0.28460665882E+02 0.24206663623E+02 0.20453779505E+02 0.17395246293E+02 0.15013147842E+02
 0.13170209774E+02 0.11803981826E+02 0.10789801275E+02 0.10074580672E+02 0.95980537381E+01
 0.93263074421E+01 0.92386062980E+01 0.93255535561E+01 0.96000476704E+01 0.10075472901E+02
 0.10794038339E+02 0.11802330554E+02 0.13179579281E+02 0.15007274940E+02 0.17406944951E+02
 0.20455593615E+02 0.24181818610E+02 0.28489281193E+02 0.34964522377E+02 0.41435070199E+02
 0.48314810843E+02 0.54972809239E+02 0.60624675889E+02 0.64437165203E+02 0.65786983754E+02
 0.64433922780E+02 0.60608885290E+02 0.54957097564E+02 0.48313335397E+02 0.41457556386E+02
 0.51015625764E+02 0.41460880703E+02 0.33452799196E+02 0.26587417692E+02 0.22032383465E+02
 0.18327842384E+02 0.15523388945E+02 0.13411059019E+02 0.11879391153E+02 0.10775698848E+02
 0.10023321758E+02 0.95509966003E+01 0.93258071481E+01 0.93258177798E+01 0.95519068069E+01
 0.10021106752E+02 0.10775371549E+02 0.11874663114E+02 0.13414318792E+02 0.15511911305E+02
 0.18338375167E+02 0.22013013208E+02 0.26596828102E+02 0.33465216194E+02 0.41435728216E+02
 0.51035303005E+02 0.61879799602E+02 0.73238009498E+02 0.83845126726E+02 0.92185501154E+02
 0.96794573832E+02 0.96797574533E+02 0.92195415133E+02 0.83862072380E+02 0.73238378030E+02
 0.61874455217E+02 0.78306555398E+02 0.61873197897E+02 0.48313106173E+02 0.37674043933E+02
 0.29507942346E+02 0.23356329349E+02 0.19066040321E+02 0.15890384454E+02 0.13561651936E+02
 0.11918204820E+02 0.10767422896E+02 0.10023077598E+02 0.95957587476E+01 0.94614916511E+01
 0.95954860832E+01 0.10022551629E+02 0.10769169016E+02 0.11918981242E+02 0.13565490862E+02
 0.15887535822E+02 0.19076934877E+02 0.23344782661E+02 0.29530717043E+02 0.37656819820E+02
 0.48315131663E+02 0.61880164458E+02 0.78296582725E+02 0.96821519673E+02 0.11576741319E+03
 0.13256675324E+03 0.14426573696E+03 0.14847823472E+03 0.14425647741E+03 0.13255582528E+03
 0.11576295221E+03 0.96824920135E+02 0.12546755276E+03 0.96826440053E+02 0.73237576834E+02
 0.54960329220E+02 0.41413582690E+02 0.31557177916E+02 0.24317693539E+02 0.19556255342E+02
 0.16086508519E+02 0.13621775018E+02 0.11918460281E+02 0.10777464277E+02 0.10074262615E+02
 0.97445547882E+01 0.97404025882E+01 0.10078751928E+02 0.10773588267E+02 0.11921345593E+02
 0.13616092048E+02 0.16088356487E+02 0.19553232511E+02 0.24313784974E+02 0.31561866382E+02
 0.41397145312E+02 0.54972577362E+02 0.73238624096E+02 0.96820766765E+02 0.12547422957E+03
 0.15741738154E+03 0.18891705927E+03 0.21467928373E+03 0.22929229190E+03 0.22930011238E+03
 0.21468732685E+03 0.18891963085E+03 0.15741765906E+03 0.20783980424E+03 0.15741556343E+03
 0.11576494979E+03 0.83859256402E+02 0.60608143573E+02 0.44241417654E+02 0.32901594170E+02
 0.24819456600E+02 0.19718429142E+02 0.16086990280E+02 0.13561139790E+02 0.11879437104E+02
 0.10790532469E+02 0.10194211431E+02 0.99936577646E+01 0.10194580386E+02 0.10789494962E+02
 0.11880169168E+02 0.13561107636E+02 0.16090233477E+02 0.19718207165E+02 0.24821062316E+02
 0.32905642909E+02 0.44237124859E+02 0.60624431031E+02 0.83844358360E+02 0.11576756499E+03
 0.15741867142E+03 0.20783788343E+03 0.26262285535E+03 0.31355758057E+03 0.35018951736E+03
 0.36357424915E+03 0.35018368386E+03 0.31355558358E+03 0.26262413808E+03 0.35018662422E+03
 0.26262553159E+03 0.18891951748E+03 0.13255803492E+03 0.92194061285E+02 0.64436121850E+02
 0.45775542548E+02 0.33378620581E+02 0.24819064186E+02 0.19557001113E+02 0.15890250396E+02
 0.13409545372E+02 0.11803918841E+02 0.10835776496E+02 0.10379451924E+02 0.10382283536E+02
 0.10832837308E+02 0.11807376717E+02 0.13406573077E+02 0.15892240605E+02 0.19551790827E+02
 0.24821805182E+02 0.33374612093E+02 0.45774671683E+02 0.64436288706E+02 0.92184197822E+02
 0.13256851106E+03 0.18891690485E+03 0.26262135729E+03 0.35018883063E+03 0.44086993276E+03
 0.51738103837E+03 0.56147217970E+03 0.56146835616E+03 0.51738358358E+03 0.44086775981E+03
 0.58512100934E+03 0.44086766348E+03 0.31355313111E+03 0.21468598492E+03 0.14425810927E+03
 0.96795929972E+02 0.65783822947E+02 0.45775334243E+02 0.32901836361E+02 0.24317935036E+02
 0.19065206375E+02 0.15523347823E+02 0.13170303876E+02 0.11728145332E+02 0.10912069989E+02
 0.10671882531E+02 0.10911853205E+02 0.11728626035E+02 0.13169038124E+02 0.15524360450E+02
 0.19065335733E+02 0.24320966535E+02 0.32900655478E+02 0.45777909506E+02 0.65785841996E+02
 0.96793543286E+02 0.14426770643E+03 0.21467773522E+03 0.31355737437E+03 0.44087013843E+03
 0.58511782394E+03 0.72122505111E+03 0.81827640299E+03 0.85325739033E+03 0.81828240166E+03
 0.72122570310E+03 0.92690120530E+03 0.72122535511E+03 0.51738312027E+03 0.35018475073E+03
 0.22929925868E+03 0.14847879517E+03 0.96795952599E+02 0.64436155262E+02 0.44241195086E+02
 0.31557725995E+02 0.23355322020E+02 0.18328188120E+02 0.15013678298E+02 0.12892435663E+02
 0.11646182996E+02 0.11064153028E+02 0.11062399539E+02 0.11647976375E+02 0.12890631850E+02
 0.15016150888E+02 0.18325845896E+02 0.23356320690E+02 0.31553928023E+02 0.44243295413E+02
 0.64432315320E+02 0.96797067240E+02 0.14847951205E+03 0.22929075297E+03 0.35018938902E+03
 0.51738023347E+03 0.72122483884E+03 0.92690289653E+03 0.10853454750E+04 0.11657172956E+04
 0.11657164520E+04 0.10853371544E+04 0.12745616958E+04 0.10853453710E+04 0.81827539074E+03
 0.56147450573E+03 0.36356477899E+03 0.22929997779E+03 0.14425741501E+03 0.92194300767E+02
 0.60608188272E+02 0.41413632299E+02 0.29507540302E+02 0.22032619964E+02 0.17395869817E+02
 0.14431574242E+02 0.12589549196E+02 0.11614038795E+02 0.11287580753E+02 0.11614152459E+02
 0.12589220696E+02 0.14431968278E+02 0.17394863129E+02 0.22033663077E+02 0.29507781759E+02
 0.41416110827E+02 0.60607697545E+02 0.92195188447E+02 0.14425712994E+03 0.22929939483E+03
 0.36357447333E+03 0.56147022024E+03 0.81827660593E+03 0.10853465552E+04 0.12745525076E+04
 0.13405204514E+04 0.13439263392E+04 0.13405225418E+04 0.12575493599E+04 0.13405154281E+04
 0.11657219461E+04 0.85325397316E+03 0.56147262924E+03 0.35018505825E+03 0.21468724033E+03
 0.13255678269E+03 0.83859721003E+02 0.54960010743E+02 0.37674251157E+02 0.26587227196E+02
 0.20453505182E+02 0.16378953837E+02 0.13809778409E+02 0.12323637556E+02 0.11632425742E+02
 0.11633620091E+02 0.12322511726E+02 0.13811039710E+02 0.16377606643E+02 0.20455370239E+02
 0.26585364463E+02 0.37674707153E+02 0.54956440611E+02 0.83862520629E+02 0.13255541403E+03
 0.21468791945E+03 0.35018347574E+03 0.56146465813E+03 0.85325808648E+03 0.11657202729E+04
 0.13405219891E+04 0.12575519205E+04 0.10900244356E+04 0.10900230810E+04 0.80237386462E+03
 0.10900247353E+04 0.13439349329E+04 0.11657237979E+04 0.81827555098E+03 0.51737853642E+03
 0.31355516788E+03 0.18892008023E+03 0.11576388403E+03 0.73238268719E+02 0.48312728606E+02
 0.33453329930E+02 0.24205885292E+02 0.18779211909E+02 0.15347227031E+02 0.13213718908E+02
 0.12114089894E+02 0.11731955445E+02 0.12113961824E+02 0.13213802828E+02 0.15347083747E+02
 0.18779465422E+02 0.24205080131E+02 0.33454176607E+02 0.48313946084E+02 0.73239115735E+02
 0.11576208123E+03 0.18892038556E+03 0.31355678673E+03 0.51737860558E+03 0.81828262014E+03
 0.11657212096E+04 0.13439290294E+04 0.10900249710E+04 0.80237135856E+03 0.93771082681E+03
 0.36703357352E+04 0.93770932060E+03 0.10900251996E+04 0.13405176263E+04 0.10853497553E+04
 0.72122261451E+03 0.44086318059E+03 0.26262904841E+03 0.15741440334E+03 0.96826274492E+02
 0.61873246937E+02 0.41461486545E+02 0.28459634290E+02 0.21707473092E+02 0.17164825256E+02
 0.14344889223E+02 0.12706532495E+02 0.11958455739E+02 0.11957504559E+02 0.12707580080E+02
 0.14343825248E+02 0.17165915663E+02 0.21706303342E+02 0.28461386697E+02 0.41459065426E+02
 0.61874315002E+02 0.96824772362E+02 0.15741710979E+03 0.26262663904E+03 0.44086330014E+03
 0.72122285858E+03 0.10853424321E+04 0.13405266497E+04 0.10900236655E+04 0.93770997167E+03
 0.36703372090E+04 0.40972398913E+04 0.17802738450E+04 0.84861121331E+03 0.13007738064E+04
 0.12456292815E+04 0.89428127806E+03 0.56447740869E+03 0.33903313240E+03 0.20210483286E+03
 0.12254181105E+03 0.76785176889E+02 0.50204975355E+02 0.34517305803E+02 0.24761618914E+02
 0.19142071401E+02 0.15576016031E+02 0.13372663827E+02 0.12234196107E+02 0.11844056087E+02
 0.12234171779E+02 0.13372720174E+02 0.15575916797E+02 0.19142239076E+02 0.24761314435E+02
 0.34517501576E+02 0.50205976671E+02 0.76784959671E+02 0.12253978626E+03 0.20210330769E+03
 0.33902944919E+03 0.56447672350E+03 0.89427704485E+03 0.12456299369E+04 0.13007770299E+04
 0.84861130217E+03 0.17802748055E+04 0.22244360939E+04 0.22244373596E+04 0.82156197348E+03
 0.11492797517E+04 0.13332333620E+04 0.10614732063E+04 0.70356130283E+03 0.43078259448E+03
 0.25734228674E+03 0.15471323558E+03 0.95433154532E+02 0.61141468013E+02 0.41062424218E+02
 0.28270671880E+02 0.21580256019E+02 0.17085524704E+02 0.14288975478E+02 0.12668196366E+02
 0.11924657707E+02 0.11925479711E+02 0.12667432759E+02 0.14289802691E+02 0.17084581329E+02
 0.21581449400E+02 0.28269206187E+02 0.41063781509E+02 0.61140021824E+02 0.95435703383E+02
 0.15471299291E+03 0.25734674139E+03 0.43078479582E+03 0.70356318262E+03 0.10614814003E+04
 0.13332238143E+04 0.11492786413E+04 0.82156159577E+03 0.80874973821E+03 0.86075837006E+03
 0.80874837183E+03 0.11219444085E+04 0.13442072034E+04 0.11535351862E+04 0.80778722592E+03
 0.51096930166E+03 0.31007955528E+03 0.18711456476E+03 0.11482980478E+03 0.72749889694E+02
 0.48053169719E+02 0.33309122824E+02 0.24132697117E+02 0.18733664982E+02 0.15319117178E+02
 0.13195453553E+02 0.12101531806E+02 0.11720571931E+02 0.12101533291E+02 0.13195262705E+02
 0.15319432640E+02 0.18733112891E+02 0.24133437318E+02 0.33308845764E+02 0.48052553624E+02
 0.72748653818E+02 0.11483002089E+03 0.18711124069E+03 0.31007731593E+03 0.51096543386E+03
 0.80778159854E+03 0.11535365240E+04 0.13442129853E+04 0.11219462255E+04 0.12591131699E+04
 0.10928367980E+04 0.10928375858E+04 0.12591164079E+04 0.13402709674E+04 0.11646780994E+04
 0.85232032271E+03 0.56085654005E+03 0.34984128849E+03 0.21450582175E+03 0.13246252284E+03
 0.83816767525E+02 0.54935660661E+02 0.37666460162E+02 0.26586040573E+02 0.20459119098E+02
 0.16384235044E+02 0.13818701010E+02 0.12331317206E+02 0.11642647255E+02 0.11641769662E+02
 0.12332322612E+02 0.13817700925E+02 0.16385472152E+02 0.20457692061E+02 0.26587054330E+02
 0.37665867397E+02 0.54939259861E+02 0.83814930842E+02 0.13246613803E+03 0.21450660051E+03
 0.34984523263E+03 0.56086422140E+03 0.85231569788E+03 0.11646815657E+04 0.13402649194E+04
 0.12824331508E+04 0.13425410306E+04 0.13427053259E+04 0.13425380291E+04 0.12824261441E+04
 0.10956834304E+04 0.82706982907E+03 0.56739416658E+03 0.36709214792E+03 0.23126101055E+03
 0.14532016293E+03 0.92773049680E+02 0.60927058961E+02 0.41599106072E+02 0.29618803005E+02
 0.22102589169E+02 0.17442360666E+02 0.14469425574E+02 0.12619850684E+02 0.11642757871E+02
 0.11314382950E+02 0.11642586407E+02 0.12620124922E+02 0.14468728796E+02 0.17443267937E+02
 0.22102080800E+02 0.29619031117E+02 0.41596183578E+02 0.60926945489E+02 0.92770528281E+02
 0.14531986210E+03 0.23125809445E+03 0.36708461561E+03 0.56739748911E+03 0.82706836515E+03
 0.10956805947E+04 0.94740973748E+03 0.11070631567E+04 0.11866815976E+04 0.11866833042E+04
 0.11070693887E+04 0.94740801176E+03 0.73769810665E+03 0.52878231906E+03 0.35729370754E+03
 0.23343332189E+03 0.15080900668E+03 0.98097249618E+02 0.65163315700E+02 0.44659722167E+02
 0.31804056604E+02 0.23502975655E+02 0.18425872957E+02 0.15085699376E+02 0.12943253604E+02
 0.11692204116E+02 0.11103454504E+02 0.11104734002E+02 0.11690857415E+02 0.12944920097E+02
 0.15084032391E+02 0.18427126394E+02 0.23501843364E+02 0.31807853172E+02 0.44658727176E+02
 0.65168488830E+02 0.98095726286E+02 0.15081150627E+03 0.23344015306E+03 0.35728875527E+03
 0.52878688930E+03 0.73769837844E+03 0.60529237016E+03 0.74648866007E+03 0.84677666236E+03
 0.88277553977E+03 0.84677320443E+03 0.74649119412E+03 0.60529127922E+03 0.45533785756E+03
 0.32304669672E+03 0.22050659879E+03 0.14770115244E+03 0.98781147338E+02 0.66932677242E+02
 0.46445363588E+02 0.33303374105E+02 0.24547732657E+02 0.19223967560E+02 0.15633497136E+02
 0.13247076575E+02 0.11788473954E+02 0.10963483742E+02 0.10720517055E+02 0.10963815378E+02
 0.11787705142E+02 0.13248026720E+02 0.15632624611E+02 0.19224974595E+02 0.24544078881E+02
 0.33304213938E+02 0.46440405668E+02 0.66932166790E+02 0.98780528250E+02 0.14769431847E+03
 0.22051399341E+03 0.32304179297E+03 0.45533511415E+03 0.36493221941E+03 0.46044511681E+03
 0.54107155975E+03 0.58750519485E+03 0.58750599907E+03 0.54106515993E+03 0.46044531567E+03
 0.36493112348E+03 0.27285732981E+03 0.19556965259E+03 0.13670201204E+03 0.94686578304E+02
 0.65934152873E+02 0.46670255989E+02 0.33923389995E+02 0.25131300319E+02 0.19766018611E+02
 0.16039038897E+02 0.13511841719E+02 0.11886762084E+02 0.10897557910E+02 0.10439829392E+02
 0.10437215151E+02 0.10900339824E+02 0.11883903120E+02 0.13514466419E+02 0.16036555083E+02
 0.19770858390E+02 0.25129445465E+02 0.33929384891E+02 0.46670063588E+02 0.65936566494E+02
 0.94692664944E+02 0.13669164246E+03 0.19557516259E+03 0.27285913569E+03 0.21737284282E+03
 0.27555231559E+03 0.32977332145E+03 0.36882178561E+03 0.38311114393E+03 0.36883131892E+03
 0.32977825855E+03 0.27555466645E+03 0.21737197047E+03 0.16400303447E+03 0.12010379851E+03
 0.86601191002E+02 0.62344512954E+02 0.45302791146E+02 0.33575756741E+02 0.25205221123E+02
 0.19986273497E+02 0.16271240107E+02 0.13688825295E+02 0.11973768913E+02 0.10863411436E+02
 0.10256810189E+02 0.10053428889E+02 0.10256259449E+02 0.10864374126E+02 0.11972923023E+02
 0.13689712449E+02 0.16267712530E+02 0.19986973708E+02 0.25200244770E+02 0.33574280371E+02
 0.45302977854E+02 0.62333152368E+02 0.86617462356E+02 0.12009701991E+03 0.16400199165E+03
 0.13132021604E+03 0.16538938762E+03 0.19909547549E+03 0.22673272044E+03 0.24242730471E+03