unknown system                          
   1.00000000000000     
     2.478974    0.000000    0.000000
    -1.239487    2.146854    0.000000
     0.000000   -1.431236    8.096294
   Ni
     4
Direct
  0.250000  0.500000  0.750000
  0.500000  0.000000  0.500000
  0.000000  0.000000  0.000000
  0.750000  0.500000  0.250000
 
   36   36  128
 0.56522458214E+07 0.43170244981E+05 0.85321979675E+04 0.11770572489E+04 0.34684151879E+03
 0.19503078458E+03 0.10844476509E+03 0.55042804313E+02 0.26306004595E+02 0.12145953592E+02
 0.55010544163E+01 0.24667151623E+01 0.10994355781E+01 0.48990733125E+00 0.21798841632E+00
 0.97917834170E-01 0.44910443855E-01 0.23355031921E-01 0.17236538231E-01 0.23355031921E-01
 0.44910443855E-01 0.97917834170E-01 0.21798841632E+00 0.48990733124E+00 0.10994355781E+01
 0.24667151623E+01 0.55010544163E+01 0.12145953592E+02 0.26306004595E+02 0.55042804313E+02
 0.10844476509E+03 0.19503078458E+03 0.34684151879E+03 0.11770572489E+04 0.85321979675E+04
 0.43170244981E+05 0.43170253667E+05 0.43170253532E+05 0.14201590094E+05 0.23105514198E+04
 0.49212280815E+03 0.24384083143E+03 0.14148251200E+03 0.75009274148E+02 0.36880577280E+02
 0.17331037357E+02 0.79364601939E+01 0.35821723795E+01 0.16045927293E+01 0.71664967543E+00
 0.31926609463E+00 0.14298546457E+00 0.64587739807E-01 0.31025616650E-01 0.18425494851E-01
 0.18426061040E-01 0.31026956465E-01 0.64586552839E-01 0.14298683287E+00 0.31926410195E+00
 0.71665543407E+00 0.16045820636E+01 0.35821734842E+01 0.79364551991E+01 0.17331083493E+02
 0.36880533778E+02 0.75009342044E+02 0.14148242206E+03 0.24384082054E+03 0.49212283116E+03
 0.23105512357E+04 0.14201590287E+05 0.85322033086E+04 0.14201597270E+05 0.85322036173E+04
 0.23105520817E+04 0.58019436950E+03 0.27595890176E+03 0.16602703475E+03 0.92526738733E+02
 0.47285985053E+02 0.22841430334E+02 0.10667714211E+02 0.48835061918E+01 0.22112008815E+01
 0.99440452035E+00 0.44623586560E+00 0.20009431406E+00 0.90259073620E-01 0.41769137087E-01
 0.21690516601E-01 0.16203014129E-01 0.21688386122E-01 0.41769511825E-01 0.90257796731E-01
 0.20009663684E+00 0.44622992134E+00 0.99441165084E+00 0.22112079168E+01 0.48835165398E+01
 0.10667663512E+02 0.22841438901E+02 0.47285944669E+02 0.92526782336E+02 0.16602711258E+03
 0.27595890084E+03 0.58019453422E+03 0.23105520582E+04 0.11770582216E+04 0.23105536102E+04
 0.23105534550E+04 0.11770580970E+04 0.49212294997E+03 0.27595916615E+03 0.17514437891E+03
 0.10284604666E+03 0.55042642980E+02 0.27587055692E+02 0.13257234793E+02 0.62055391039E+01
 0.28582615697E+01 0.13031935653E+01 0.59144230965E+00 0.26722809664E+00 0.12114781007E+00
 0.55387224302E-01 0.26865279075E-01 0.16108378312E-01 0.16110858142E-01 0.26864610004E-01
 0.55390751201E-01 0.12114390218E+00 0.26723514920E+00 0.59143411619E+00 0.13031919693E+01
 0.28582371527E+01 0.62055900234E+01 0.13257225600E+02 0.27587140514E+02 0.55042561361E+02
 0.10284602005E+03 0.17514432518E+03 0.27595895855E+03 0.49212301404E+03 0.34684171700E+03
 0.49212316144E+03 0.58019475806E+03 0.49212311547E+03 0.34684187223E+03 0.24384101331E+03
 0.16602692183E+03 0.10284600904E+03 0.57926861015E+02 0.30361071295E+02 0.15142713005E+02
 0.73064662121E+01 0.34486977177E+01 0.16045276217E+01 0.74018914347E+00 0.33884918986E+00
 0.15530238510E+00 0.70959020954E-01 0.33685208214E-01 0.17474350493E-01 0.13487663076E-01
 0.17475273118E-01 0.33680798949E-01 0.70962185222E-01 0.15529462806E+00 0.33885942267E+00
 0.74018725984E+00 0.16045552529E+01 0.34486519710E+01 0.73064882738E+01 0.15142609180E+02
 0.30361128300E+02 0.57926909709E+02 0.10284601262E+03 0.16602719047E+03 0.24384097873E+03
 0.19503099008E+03 0.24384105111E+03 0.27595909778E+03 0.27595930475E+03 0.24384107816E+03
 0.19503088731E+03 0.14148249239E+03 0.92527006313E+02 0.55042576156E+02 0.30361158610E+02
 0.15835773477E+02 0.79364890982E+01 0.38669673603E+01 0.18481912433E+01 0.87118984958E+00
 0.40669296204E+00 0.18894143678E+00 0.87453320088E-01 0.41009707444E-01 0.20228043170E-01
 0.12398838285E-01 0.12391851880E-01 0.20235931864E-01 0.41003333998E-01 0.87467008747E-01
 0.18892613556E+00 0.40669928960E+00 0.87115536606E+00 0.18482450581E+01 0.38669245765E+01
 0.79365970318E+01 0.15835721938E+02 0.30361141695E+02 0.55042566198E+02 0.92526756725E+02
 0.14148250581E+03 0.10844477489E+03 0.14148262814E+03 0.16602719711E+03 0.17514451625E+03
 0.16602700844E+03 0.14148252157E+03 0.10844485435E+03 0.75009370163E+02 0.47285686814E+02
 0.27587212027E+02 0.15142607720E+02 0.79365300599E+01 0.40188358351E+01 0.19847033839E+01
 0.96195637333E+00 0.46004727790E+00 0.21796805759E+00 0.10260186884E+00 0.48391017967E-01
 0.23325568005E-01 0.12619045359E-01 0.96130993869E-02 0.12615706150E-01 0.23331699137E-01
 0.48375329360E-01 0.10261721255E+00 0.21795942121E+00 0.46009016915E+00 0.96189417295E+00
 0.19847575849E+01 0.40187282019E+01 0.79365976875E+01 0.15142607851E+02 0.27587171381E+02
 0.47285975513E+02 0.75009305848E+02 0.55042821967E+02 0.75009256609E+02 0.92526749295E+02
 0.10284608318E+03 0.10284605109E+03 0.92527037779E+02 0.75009393963E+02 0.55042710072E+02
 0.36880520370E+02 0.22841768317E+02 0.13257116954E+02 0.73065144682E+01 0.38670140478E+01
 0.19846342940E+01 0.99456022447E+00 0.48950603945E+00 0.23774371984E+00 0.11428062864E+00
 0.54744672502E-01 0.26361859260E-01 0.13448490430E-01 0.83935424518E-02 0.84196765595E-02
 0.13421475080E-01 0.26394743894E-01 0.54714627350E-01 0.11430758823E+00 0.23767880455E+00
 0.48958567131E+00 0.99448641839E+00 0.19847565633E+01 0.38669263977E+01 0.73064936898E+01
 0.13257219869E+02 0.22841471646E+02 0.36880599997E+02 0.26306064909E+02 0.36880644714E+02
 0.47286031626E+02 0.55042680490E+02 0.57926905058E+02 0.55042614215E+02 0.47285707331E+02
 0.36880513334E+02 0.26306182959E+02 0.17331234369E+02 0.10667333937E+02 0.62057660868E+01
 0.34485701736E+01 0.18481800514E+01 0.96200665420E+00 0.48951149329E+00 0.24475665909E+00
 0.12067586614E+00 0.58993974854E-01 0.28783694208E-01 0.14386112518E-01 0.80333217836E-02
 0.62380033788E-02 0.80403459320E-02 0.14369007713E-01 0.28803256525E-01 0.58971344589E-01
 0.12073916355E+00 0.24468283481E+00 0.48958280346E+00 0.96189669297E+00 0.18482445560E+01
 0.34486541191E+01 0.62056008567E+01 0.10667657530E+02 0.17331091079E+02 0.12145942975E+02
 0.17331053913E+02 0.22841471167E+02 0.27587097737E+02 0.30361094852E+02 0.30361169058E+02
 0.27587211121E+02 0.22841779447E+02 0.17331249310E+02 0.12145716320E+02 0.79362885716E+01
 0.48839034108E+01 0.28580198624E+01 0.16046895963E+01 0.87120907225E+00 0.45997852649E+00
 0.23778186572E+00 0.12063829698E+00 0.60546137190E-01 0.30045524570E-01 0.15130662769E-01
 0.79691619800E-02 0.52420453149E-02 0.51717145834E-02 0.80426946107E-02 0.15060091609E-01
 0.30113970911E-01 0.60442495432E-01 0.12074183958E+00 0.23768630156E+00 0.46009114858E+00
 0.87116033389E+00 0.16045557285E+01 0.28582368477E+01 0.48835296206E+01 0.79364638688E+01
 0.55010745584E+01 0.79364701245E+01 0.10667717804E+02 0.13257246906E+02 0.15142738083E+02
 0.15835802876E+02 0.15142641887E+02 0.13257141760E+02 0.10667339032E+02 0.79362853040E+01
 0.55014698470E+01 0.35822977587E+01 0.22107575717E+01 0.13035503899E+01 0.73989646793E+00
 0.40676948591E+00 0.21794690457E+00 0.11429980421E+00 0.58986287217E-01 0.30089034354E-01
 0.15375957626E-01 0.80717847758E-02 0.47701535791E-02 0.38154208660E-02 0.47661602906E-02
 0.80731525011E-02 0.15377721503E-01 0.30120236358E-01 0.58966524891E-01 0.11430338066E+00
 0.21794911998E+00 0.40668920901E+00 0.74018400795E+00 0.13031960245E+01 0.22112064258E+01
 0.35821804304E+01 0.24667130784E+01 0.35821800342E+01 0.48835263217E+01 0.62055526008E+01
 0.73064713255E+01 0.79364893145E+01 0.79365242321E+01 0.73065056667E+01 0.62057663312E+01
 0.48839137743E+01 0.35823035507E+01 0.24660934970E+01 0.16047906351E+01 0.99464715326E+00
 0.59116805455E+00 0.33914062442E+00 0.18885525398E+00 0.10263455287E+00 0.54700333809E-01
 0.28789001777E-01 0.15112046957E-01 0.80548225205E-02 0.46259683451E-02 0.32185628969E-02
 0.32368007485E-02 0.46127792367E-02 0.80616736310E-02 0.15075124882E-01 0.28804754004E-01
 0.54700660783E-01 0.10262053451E+00 0.18893673226E+00 0.33886612085E+00 0.59143196095E+00
 0.99441624645E+00 0.16045863991E+01 0.10994287075E+01 0.16046109527E+01 0.22112038875E+01
 0.28582469026E+01 0.34486848822E+01 0.38669576902E+01 0.40188335948E+01 0.38670102511E+01
 0.34485614211E+01 0.28580066273E+01 0.22107570723E+01 0.16048012913E+01 0.10998895351E+01
 0.71634509634E+00 0.44615536614E+00 0.26738680046E+00 0.15506672453E+00 0.87539537352E-01
 0.48368393404E-01 0.26408441058E-01 0.14373219918E-01 0.80026085825E-02 0.47272341130E-02
 0.32440828327E-02 0.27879052741E-02 0.32409781257E-02 0.47361564812E-02 0.80267215448E-02
 0.14372572458E-01 0.26402490004E-01 0.48387654445E-01 0.87474599414E-01 0.15530055622E+00
 0.26723403953E+00 0.44622062394E+00 0.71664127533E+00 0.48989807425E+00 0.71664783952E+00
 0.99439385732E+00 0.13031763746E+01 0.16045296155E+01 0.18482109058E+01 0.19847276732E+01
 0.19846562049E+01 0.18481929989E+01 0.16046855398E+01 0.13035328232E+01 0.99463369759E+00
 0.71636080451E+00 0.48964631462E+00 0.31949555174E+00 0.20012187265E+00 0.12106411604E+00
 0.71152757002E-01 0.40970685376E-01 0.23356308395E-01 0.13446358004E-01 0.80131884975E-02
 0.52001628201E-02 0.37943486586E-02 0.32564895230E-02 0.32391312470E-02 0.38037334245E-02
 0.51556860495E-02 0.80292540472E-02 0.13430901945E-01 0.23353609230E-01 0.41001345826E-01
 0.70962131251E-01 0.12114135099E+00 0.20011425189E+00 0.31926842222E+00 0.21801581755E+00
 0.31928741900E+00 0.44620661131E+00 0.59143064449E+00 0.74020184468E+00 0.87122016804E+00
 0.96199003667E+00 0.99459186105E+00 0.96204252785E+00 0.87124175796E+00 0.73991256343E+00
 0.59115621051E+00 0.44613519343E+00 0.31950815341E+00 0.21816513125E+00 0.14286697248E+00
 0.90249318383E-01 0.55451710321E-01 0.33479934071E-01 0.20253298994E-01 0.12613958743E-01
 0.84246372559E-02 0.62256349319E-02 0.51956399132E-02 0.47375107384E-02 0.46317584196E-02
 0.47501555517E-02 0.52229066198E-02 0.62314449806E-02 0.84258502747E-02 0.12634651006E-01
 0.20223310549E-01 0.33670703722E-01 0.55392293766E-01 0.90265552006E-01 0.14300399722E+00
 0.97930707975E-01 0.14300932889E+00 0.20009371844E+00 0.26722756885E+00 0.33887460928E+00
 0.40670876051E+00 0.46006094847E+00 0.48951140006E+00 0.48951309056E+00 0.45998913594E+00
 0.40678997729E+00 0.33916191062E+00 0.26738552394E+00 0.20010718229E+00 0.14287550820E+00
 0.97797772779E-01 0.64697046797E-01 0.41783547112E-01 0.26844336195E-01 0.17627354838E-01
 0.12397875685E-01 0.96299996237E-02 0.84064553084E-02 0.79981166726E-02 0.80013070674E-02
 0.80516988122E-02 0.80510254567E-02 0.79525493119E-02 0.80066063317E-02 0.83835310015E-02
 0.96248782392E-02 0.12395853525E-01 0.17459341057E-01 0.26865337423E-01 0.41784103245E-01
 0.64596011303E-01 0.44921468189E-01 0.64602284250E-01 0.90261262803E-01 0.12114916353E+00
 0.15531778302E+00 0.18894924101E+00 0.21795424913E+00 0.23773677706E+00 0.24474662060E+00
 0.23777356080E+00 0.21794209778E+00 0.18885678885E+00 0.15507584472E+00 0.12106756700E+00
 0.90242078334E-01 0.64701104735E-01 0.45023893476E-01 0.30979817876E-01 0.21676971149E-01
 0.16114557433E-01 0.13309114752E-01 0.12397329219E-01 0.12579505047E-01 0.13414233951E-01
 0.14353739843E-01 0.15096692821E-01 0.15366688725E-01 0.15137717594E-01 0.14366645758E-01
 0.13425096953E-01 0.12603523018E-01 0.12398759984E-01 0.13490838663E-01 0.16098306849E-01
 0.21691300519E-01 0.31024625587E-01 0.23339514777E-01 0.31026378664E-01 0.41774352181E-01
 0.55401743468E-01 0.70956544482E-01 0.87456504762E-01 0.10258698270E+00 0.11426330317E+00
 0.12067037204E+00 0.12062700951E+00 0.11428602648E+00 0.10261712986E+00 0.87529008848E-01
 0.71153556072E-01 0.55463151174E-01 0.41775194311E-01 0.30983602938E-01 0.23228247383E-01
 0.18446810682E-01 0.16202807193E-01 0.16124203402E-01 0.17658667448E-01 0.20243020636E-01
 0.23317944258E-01 0.26374407968E-01 0.28779612274E-01 0.30103974351E-01 0.30062990524E-01
 0.28772131775E-01 0.26341315389E-01 0.23307118661E-01 0.20208966247E-01 0.17489122596E-01
 0.16107486743E-01 0.16201666908E-01 0.18423155334E-01 0.17229950088E-01 0.18422669124E-01
 0.21678315471E-01 0.26877406397E-01 0.33685787655E-01 0.40987530974E-01 0.48379709891E-01
 0.54725705765E-01 0.58997234724E-01 0.60549551621E-01 0.58992968604E-01 0.54695076600E-01
 0.48348177084E-01 0.40951719675E-01 0.33490331710E-01 0.26856911839E-01 0.21661963799E-01
 0.18445776191E-01 0.17325768397E-01 0.18445776191E-01 0.21661963799E-01 0.26856911839E-01
 0.33490331710E-01 0.40951719675E-01 0.48348177084E-01 0.54695076598E-01 0.58992968603E-01
 0.60549551621E-01 0.58997234727E-01 0.54725705766E-01 0.48379709892E-01 0.40987530974E-01
 0.33685787655E-01 0.26877406397E-01 0.21678315471E-01 0.18422669125E-01 0.23339514777E-01
 0.18423155334E-01 0.16201666908E-01 0.16107486743E-01 0.17489122596E-01 0.20208966247E-01
 0.23307118661E-01 0.26341315389E-01 0.28772131775E-01 0.30062990524E-01 0.30103974353E-01
 0.28779612275E-01 0.26374407968E-01 0.23317944258E-01 0.20243020636E-01 0.17658667448E-01
 0.16124203402E-01 0.16202807193E-01 0.18446810683E-01 0.23228247383E-01 0.30983602937E-01
 0.41775194311E-01 0.55463151174E-01 0.71153556072E-01 0.87529008848E-01 0.10261712986E+00
 0.11428602648E+00 0.12062700951E+00 0.12067037204E+00 0.11426330317E+00 0.10258698270E+00
 0.87456504762E-01 0.70956544482E-01 0.55401743468E-01 0.41774352181E-01 0.31026378664E-01
 0.44921468189E-01 0.31024625587E-01 0.21691300520E-01 0.16098306848E-01 0.13490838663E-01
 0.12398759984E-01 0.12603523018E-01 0.13425096953E-01 0.14366645757E-01 0.15137717592E-01
 0.15366688725E-01 0.15096692821E-01 0.14353739842E-01 0.13414233951E-01 0.12579505047E-01
 0.12397329219E-01 0.13309114752E-01 0.16114557433E-01 0.21676971148E-01 0.30979817876E-01
 0.45023893477E-01 0.64701104735E-01 0.90242078334E-01 0.12106756700E+00 0.15507584472E+00
 0.18885678885E+00 0.21794209778E+00 0.23777356080E+00 0.24474662059E+00 0.23773677706E+00
 0.21795424913E+00 0.18894924101E+00 0.15531778302E+00 0.12114916353E+00 0.90261262803E-01
 0.64602284251E-01 0.97930707975E-01 0.64596011302E-01 0.41784103245E-01 0.26865337423E-01
 0.17459341057E-01 0.12395853525E-01 0.96248782392E-02 0.83835310015E-02 0.80066063315E-02
 0.79525493146E-02 0.80510254566E-02 0.80516988119E-02 0.80013070674E-02 0.79981166726E-02
 0.84064553084E-02 0.96299996236E-02 0.12397875685E-01 0.17627354838E-01 0.26844336195E-01
 0.41783547112E-01 0.64697046797E-01 0.97797772779E-01 0.14287550820E+00 0.20010718229E+00
 0.26738552394E+00 0.33916191062E+00 0.40678997729E+00 0.45998913593E+00 0.48951309056E+00
 0.48951140006E+00 0.46006094847E+00 0.40670876051E+00 0.33887460928E+00 0.26722756885E+00
 0.20009371844E+00 0.14300932889E+00 0.21801581755E+00 0.14300399722E+00 0.90265552006E-01
 0.55392293766E-01 0.33670703722E-01 0.20223310549E-01 0.12634651006E-01 0.84258502745E-02
 0.62314449803E-02 0.52229066213E-02 0.47501555516E-02 0.46317584195E-02 0.47375107384E-02
 0.51956399132E-02 0.62256349318E-02 0.84246372558E-02 0.12613958743E-01 0.20253298994E-01
 0.33479934071E-01 0.55451710321E-01 0.90249318383E-01 0.14286697248E+00 0.21816513125E+00
 0.31950815341E+00 0.44613519343E+00 0.59115621051E+00 0.73991256343E+00 0.87124175796E+00
 0.96204252785E+00 0.99459186105E+00 0.96199003667E+00 0.87122016804E+00 0.74020184467E+00
 0.59143064449E+00 0.44620661131E+00 0.31928741900E+00 0.48989807425E+00 0.31926842222E+00
 0.20011425189E+00 0.12114135099E+00 0.70962131251E-01 0.41001345826E-01 0.23353609230E-01
 0.13430901945E-01 0.80292540475E-02 0.51556860521E-02 0.38037334243E-02 0.32391312469E-02
 0.32564895229E-02 0.37943486586E-02 0.52001628201E-02 0.80131884975E-02 0.13446358004E-01
 0.23356308395E-01 0.40970685376E-01 0.71152757001E-01 0.12106411604E+00 0.20012187265E+00
 0.31949555174E+00 0.48964631462E+00 0.71636080451E+00 0.99463369759E+00 0.13035328232E+01
 0.16046855398E+01 0.18481929989E+01 0.19846562049E+01 0.19847276732E+01 0.18482109058E+01
 0.16045296155E+01 0.13031763746E+01 0.99439385732E+00 0.71664783952E+00 0.10994287075E+01
 0.71664127533E+00 0.44622062394E+00 0.26723403953E+00 0.15530055622E+00 0.87474599414E-01
 0.48387654445E-01 0.26402490004E-01 0.14372572458E-01 0.80267215466E-02 0.47361564812E-02
 0.32409781258E-02 0.27879052740E-02 0.32440828327E-02 0.47272341131E-02 0.80026085825E-02
 0.14373219918E-01 0.26408441058E-01 0.48368393404E-01 0.87539537352E-01 0.15506672453E+00
 0.26738680046E+00 0.44615536614E+00 0.71634509634E+00 0.10998895351E+01 0.16048012913E+01
 0.22107570723E+01 0.28580066273E+01 0.34485614211E+01 0.38670102511E+01 0.40188335948E+01
 0.38669576902E+01 0.34486848822E+01 0.28582469026E+01 0.22112038875E+01 0.16046109527E+01
 0.24667130784E+01 0.16045863991E+01 0.99441624644E+00 0.59143196095E+00 0.33886612085E+00
 0.18893673226E+00 0.10262053451E+00 0.54700660782E-01 0.28804754003E-01 0.15075124879E-01
 0.80616736310E-02 0.46127792370E-02 0.32368007485E-02 0.32185628968E-02 0.46259683451E-02
 0.80548225204E-02 0.15112046957E-01 0.28789001778E-01 0.54700333809E-01 0.10263455286E+00
 0.18885525398E+00 0.33914062442E+00 0.59116805455E+00 0.99464715326E+00 0.16047906351E+01
 0.24660934970E+01 0.35823035507E+01 0.48839137743E+01 0.62057663312E+01 0.73065056667E+01
 0.79365242321E+01 0.79364893145E+01 0.73064713255E+01 0.62055526008E+01 0.48835263217E+01
 0.35821800342E+01 0.55010745584E+01 0.35821804304E+01 0.22112064258E+01 0.13031960245E+01
 0.74018400795E+00 0.40668920901E+00 0.21794911998E+00 0.11430338066E+00 0.58966524891E-01
 0.30120236362E-01 0.15377721502E-01 0.80731525011E-02 0.47661602906E-02 0.38154208660E-02
 0.47701535789E-02 0.80717847758E-02 0.15375957626E-01 0.30089034354E-01 0.58986287217E-01
 0.11429980421E+00 0.21794690457E+00 0.40676948591E+00 0.73989646793E+00 0.13035503899E+01
 0.22107575717E+01 0.35822977587E+01 0.55014698470E+01 0.79362853040E+01 0.10667339032E+02
 0.13257141760E+02 0.15142641887E+02 0.15835802876E+02 0.15142738083E+02 0.13257246906E+02
 0.10667717804E+02 0.79364701244E+01 0.12145942975E+02 0.79364638688E+01 0.48835296206E+01
 0.28582368477E+01 0.16045557285E+01 0.87116033389E+00 0.46009114858E+00 0.23768630156E+00
 0.12074183958E+00 0.60442495435E-01 0.30113970911E-01 0.15060091609E-01 0.80426946107E-02
 0.51717145834E-02 0.52420453148E-02 0.79691619800E-02 0.15130662769E-01 0.30045524570E-01
 0.60546137190E-01 0.12063829698E+00 0.23778186572E+00 0.45997852649E+00 0.87120907225E+00
 0.16046895963E+01 0.28580198624E+01 0.48839034108E+01 0.79362885716E+01 0.12145716320E+02
 0.17331249310E+02 0.22841779447E+02 0.27587211121E+02 0.30361169058E+02 0.30361094852E+02
 0.27587097737E+02 0.22841471167E+02 0.17331053913E+02 0.26306064909E+02 0.17331091079E+02
 0.10667657530E+02 0.62056008567E+01 0.34486541191E+01 0.18482445560E+01 0.96189669297E+00
 0.48958280346E+00 0.24468283481E+00 0.12073916355E+00 0.58971344589E-01 0.28803256525E-01
 0.14369007713E-01 0.80403459321E-02 0.62380033788E-02 0.80333217835E-02 0.14386112518E-01
 0.28783694207E-01 0.58993974854E-01 0.12067586614E+00 0.24475665909E+00 0.48951149329E+00
 0.96200665420E+00 0.18481800514E+01 0.34485701736E+01 0.62057660868E+01 0.10667333937E+02
 0.17331234369E+02 0.26306182959E+02 0.36880513334E+02 0.47285707331E+02 0.55042614215E+02
 0.57926905058E+02 0.55042680490E+02 0.47286031626E+02 0.36880644714E+02 0.55042821967E+02
 0.36880599997E+02 0.22841471646E+02 0.13257219869E+02 0.73064936898E+01 0.38669263977E+01
 0.19847565633E+01 0.99448641839E+00 0.48958567131E+00 0.23767880455E+00 0.11430758823E+00
 0.54714627350E-01 0.26394743894E-01 0.13421475080E-01 0.84196765594E-02 0.83935424518E-02
 0.13448490430E-01 0.26361859260E-01 0.54744672502E-01 0.11428062864E+00 0.23774371984E+00
 0.48950603945E+00 0.99456022447E+00 0.19846342940E+01 0.38670140478E+01 0.73065144682E+01
 0.13257116954E+02 0.22841768317E+02 0.36880520370E+02 0.55042710072E+02 0.75009393963E+02
 0.92527037779E+02 0.10284605109E+03 0.10284608318E+03 0.92526749295E+02 0.75009256609E+02
 0.10844477489E+03 0.75009305848E+02 0.47285975513E+02 0.27587171381E+02 0.15142607851E+02
 0.79365976875E+01 0.40187282019E+01 0.19847575849E+01 0.96189417295E+00 0.46009016915E+00
 0.21795942121E+00 0.10261721255E+00 0.48375329360E-01 0.23331699137E-01 0.12615706150E-01
 0.96130993869E-02 0.12619045359E-01 0.23325568005E-01 0.48391017967E-01 0.10260186884E+00
 0.21796805759E+00 0.46004727790E+00 0.96195637333E+00 0.19847033839E+01 0.40188358351E+01
 0.79365300599E+01 0.15142607720E+02 0.27587212027E+02 0.47285686814E+02 0.75009370163E+02
 0.10844485435E+03 0.14148252157E+03 0.16602700844E+03 0.17514451625E+03 0.16602719711E+03
 0.14148262814E+03 0.19503099008E+03 0.14148250581E+03 0.92526756725E+02 0.55042566198E+02
 0.30361141695E+02 0.15835721938E+02 0.79365970318E+01 0.38669245765E+01 0.18482450581E+01
 0.87115536606E+00 0.40669928960E+00 0.18892613556E+00 0.87467008747E-01 0.41003333998E-01
 0.20235931864E-01 0.12391851880E-01 0.12398838285E-01 0.20228043170E-01 0.41009707444E-01
 0.87453320088E-01 0.18894143678E+00 0.40669296204E+00 0.87118984958E+00 0.18481912433E+01
 0.38669673603E+01 0.79364890982E+01 0.15835773477E+02 0.30361158610E+02 0.55042576156E+02
 0.92527006313E+02 0.14148249239E+03 0.19503088731E+03 0.24384107816E+03 0.27595930475E+03
 0.27595909778E+03 0.24384105111E+03 0.34684171700E+03 0.24384097873E+03 0.16602719047E+03
 0.10284601262E+03 0.57926909709E+02 0.30361128300E+02 0.15142609180E+02 0.73064882738E+01
 0.34486519710E+01 0.16045552529E+01 0.74018725984E+00 0.33885942267E+00 0.15529462806E+00
 0.70962185222E-01 0.33680798949E-01 0.17475273118E-01 0.13487663076E-01 0.17474350493E-01
 0.33685208214E-01 0.70959020954E-01 0.15530238510E+00 0.33884918986E+00 0.74018914347E+00
 0.16045276216E+01 0.34486977177E+01 0.73064662121E+01 0.15142713005E+02 0.30361071295E+02
 0.57926861015E+02 0.10284600904E+03 0.16602692183E+03 0.24384101331E+03 0.34684187223E+03
 0.49212311547E+03 0.58019475806E+03 0.49212316144E+03 0.11770582216E+04 0.49212301404E+03
 0.27595895855E+03 0.17514432518E+03 0.10284602005E+03 0.55042561361E+02 0.27587140514E+02
 0.13257225600E+02 0.62055900234E+01 0.28582371527E+01 0.13031919693E+01 0.59143411619E+00
 0.26723514920E+00 0.12114390218E+00 0.55390751201E-01 0.26864610004E-01 0.16110858142E-01
 0.16108378312E-01 0.26865279075E-01 0.55387224303E-01 0.12114781007E+00 0.26722809664E+00
 0.59144230965E+00 0.13031935653E+01 0.28582615697E+01 0.62055391039E+01 0.13257234793E+02
 0.27587055692E+02 0.55042642980E+02 0.10284604666E+03 0.17514437891E+03 0.27595916615E+03
 0.49212294997E+03 0.11770580970E+04 0.23105534550E+04 0.23105536102E+04 0.85322033086E+04
 0.23105520582E+04 0.58019453422E+03 0.27595890084E+03 0.16602711258E+03 0.92526782336E+02
 0.47285944669E+02 0.22841438901E+02 0.10667663512E+02 0.48835165398E+01 0.22112079168E+01
 0.99441165084E+00 0.44622992134E+00 0.20009663684E+00 0.90257796732E-01 0.41769511825E-01
 0.21688386121E-01 0.16203014129E-01 0.21690516602E-01 0.41769137088E-01 0.90259073620E-01
 0.20009431406E+00 0.44623586560E+00 0.99440452034E+00 0.22112008815E+01 0.48835061918E+01
 0.10667714211E+02 0.22841430334E+02 0.47285985053E+02 0.92526738733E+02 0.16602703475E+03
 0.27595890176E+03 0.58019436950E+03 0.23105520817E+04 0.85322036173E+04 0.14201597270E+05
 0.43170253667E+05 0.14201590287E+05 0.23105512357E+04 0.49212283116E+03 0.24384082054E+03
 0.14148242206E+03 0.75009342044E+02 0.36880533778E+02 0.17331083493E+02 0.79364551991E+01
 0.35821734842E+01 0.16045820636E+01 0.71665543407E+00 0.31926410195E+00 0.14298683287E+00
 0.64586552839E-01 0.31026956465E-01 0.18426061037E-01 0.18425494854E-01 0.31025616651E-01
 0.64587739807E-01 0.14298546457E+00 0.31926609463E+00 0.71664967543E+00 0.16045927293E+01
 0.35821723795E+01 0.79364601939E+01 0.17331037357E+02 0.36880577280E+02 0.75009274148E+02
 0.14148251200E+03 0.24384083143E+03 0.49212280815E+03 0.23105514198E+04 0.14201590094E+05
 0.43170253532E+05 0.47032344604E+05 0.26238531006E+05 0.56413485483E+04 0.92431773348E+03
 0.32196724379E+03 0.18609054668E+03 0.10355577241E+03 0.52659500993E+02 0.25244541064E+02
 0.11695225352E+02 0.53133937594E+01 0.23894371258E+01 0.10677412725E+01 0.47677015601E+00
 0.21266511528E+00 0.95657514874E-01 0.43987897070E-01 0.22840858424E-01 0.16913856918E-01
 0.22840414971E-01 0.43988750929E-01 0.95656201127E-01 0.21266708890E+00 0.47676742389E+00
 0.10677464061E+01 0.23894237825E+01 0.53134050979E+01 0.11695247520E+02 0.25244574924E+02
 0.52659527903E+02 0.10355579675E+03 0.18609062743E+03 0.32196724947E+03 0.92431781165E+03
 0.56413485379E+04 0.26238530878E+05 0.30701480598E+05 0.30701480425E+05 0.10475132524E+05
 0.18624456469E+04 0.45259807771E+03 0.23563581945E+03 0.13711389663E+03 0.72742525615E+02
 0.35830722227E+02 0.16875052189E+02 0.77448648161E+01 0.35028686074E+01 0.15718313129E+01
 0.70314038087E+00 0.31370903252E+00 0.14070172764E+00 0.63634734184E-01 0.30589557572E-01
 0.18171532620E-01 0.18171363346E-01 0.30588328074E-01 0.63634754189E-01 0.14070331018E+00
 0.31370481212E+00 0.70314662405E+00 0.15718246540E+01 0.35028747181E+01 0.77448394359E+01
 0.16875063490E+02 0.35830650089E+02 0.72742562832E+02 0.13711376490E+03 0.23563576354E+03
 0.45259806500E+03 0.18624454540E+04 0.10475132762E+05 0.73476955871E+04 0.12095768913E+05
 0.73476958436E+04 0.20608768667E+04 0.54973676573E+03 0.27048853922E+03 0.16332182944E+03
 0.91037885199E+02 0.46560600682E+02 0.22515871011E+02 0.10527730645E+02 0.48247147370E+01
 0.21867054836E+01 0.98427960129E+00 0.44198554136E+00 0.19837252683E+00 0.89530338288E-01
 0.41478925672E-01 0.21525872027E-01 0.16105695024E-01 0.21527285523E-01 0.41480101915E-01
 0.89529059839E-01 0.19837439747E+00 0.44198472184E+00 0.98427691623E+00 0.21867157990E+01
 0.48247280383E+01 0.10527715249E+02 0.22515910080E+02 0.46560593210E+02 0.91037976617E+02
 0.16332190956E+03 0.27048861318E+03 0.54973689778E+03 0.20608768172E+04 0.11679267131E+04
 0.22876752364E+04 0.22876751710E+04 0.11679266598E+04 0.49018327228E+03 0.27548110719E+03
 0.17489734166E+03 0.10270251145E+03 0.54968730664E+02 0.27552426163E+02 0.13241868188E+02
 0.61989194169E+01 0.28554612455E+01 0.13020143381E+01 0.59094668774E+00 0.26702101561E+00
 0.12105824905E+00 0.55354876575E-01 0.26850241649E-01 0.16102138889E-01 0.16099298375E-01
 0.26850568312E-01 0.55353057273E-01 0.12105779496E+00 0.26702276446E+00 0.59094500186E+00
 0.13020140490E+01 0.28554285086E+01 0.61989490977E+01 0.13241829666E+02 0.27552472896E+02
 0.54968599890E+02 0.10270248153E+03 0.17489724941E+03 0.27548090296E+03 0.49018339531E+03
 0.35511378705E+03 0.51175558790E+03 0.60810704856E+03 0.51175543935E+03 0.35511389595E+03
 0.24754282089E+03 0.16830324976E+03 0.10424425632E+03 0.58687904931E+02 0.30736227015E+02
 0.15316104117E+02 0.73835458163E+01 0.34821881167E+01 0.16189459427E+01 0.74631519352E+00
 0.34147381076E+00 0.15642535338E+00 0.71425085651E-01 0.33874723267E-01 0.17556862959E-01
 0.13545238597E-01 0.17558600742E-01 0.33873690253E-01 0.71431083002E-01 0.15641901396E+00
 0.34147843321E+00 0.74631375778E+00 0.16189772828E+01 0.34821698695E+01 0.73835835680E+01
 0.15316035893E+02 0.30736343994E+02 0.58687947577E+02 0.10424431092E+03 0.16830346934E+03
 0.24754275768E+03 0.20078768651E+03 0.25174479145E+03 0.28606049387E+03 0.28606071008E+03
 0.25174489147E+03 0.20078766830E+03 0.14558206648E+03 0.95182820779E+02 0.56569150636E+02
 0.31156268122E+02 0.16221987678E+02 0.81155411322E+01 0.39475878465E+01 0.18837292374E+01
 0.88669818327E+00 0.41342481565E+00 0.19186011031E+00 0.88743095431E-01 0.41561552461E-01
 0.20468045536E-01 0.12514172001E-01 0.12513583573E-01 0.20468838287E-01 0.41556334521E-01
 0.88745715667E-01 0.19185778002E+00 0.41342818848E+00 0.88666072684E+00 0.18837572002E+01
 0.39475233921E+01 0.81156293467E+01 0.16221873691E+02 0.31156255209E+02 0.56569088939E+02
 0.95182613213E+02 0.14558215671E+03 0.11325399567E+03 0.14778074041E+03 0.17344101829E+03
 0.18299176159E+03 0.17344085353E+03 0.14778052976E+03 0.11325402756E+03 0.78280959167E+02
 0.49273733836E+02 0.28685394901E+02 0.15706597152E+02 0.82113295285E+01 0.41479588473E+01
 0.20436973294E+01 0.98845910966E+00 0.47188602939E+00 0.22314439837E+00 0.10491606066E+00
 0.49412825026E-01 0.23824302858E-01 0.12854180565E-01 0.98098270789E-02 0.12850606072E-01
 0.23832954972E-01 0.49404751834E-01 0.10492972161E+00 0.22312657570E+00 0.47193776857E+00
 0.98841976454E+00 0.20437764834E+01 0.41478702716E+01 0.82114521415E+01 0.15706581134E+02
 0.28685423951E+02 0.49273975211E+02 0.78280820580E+02 0.58220365336E+02 0.79441093730E+02
 0.98054698009E+02 0.10901415285E+03 0.10901408474E+03 0.98054987406E+02 0.79441291381E+02
 0.58220321761E+02 0.38930760769E+02 0.24047965430E+02 0.13915876294E+02 0.76452737532E+01
 0.40342691895E+01 0.20643598258E+01 0.10317171587E+01 0.50660158486E+00 0.24547289541E+00
 0.11776203413E+00 0.56286724628E-01 0.27076259229E-01 0.13792606535E-01 0.86128566613E-02
 0.86335501706E-02 0.13770087160E-01 0.27098175681E-01 0.56259171155E-01 0.11779035782E+00
 0.24541200953E+00 0.50665002932E+00 0.10316202434E+01 0.20644637443E+01 0.40341193732E+01
 0.76452916120E+01 0.13915911427E+02 0.24047692356E+02 0.38930935118E+02 0.28091360186E+02
 0.39475710581E+02 0.50695033043E+02 0.59065206136E+02 0.62178321144E+02 0.59065157303E+02
 0.50694760868E+02 0.39475496845E+02 0.28091416760E+02 0.18453617922E+02 0.11321258544E+02
 0.65632129023E+01 0.36343594200E+01 0.19411671858E+01 0.10072355302E+01 0.51108142968E+00
 0.25481216196E+00 0.12536123285E+00 0.61109973063E-01 0.29757304321E-01 0.14818531281E-01
 0.82777572223E-02 0.64017129160E-02 0.82853735377E-02 0.14805506289E-01 0.29779367261E-01
 0.61084353408E-01 0.12542561178E+00 0.25475767689E+00 0.51118997465E+00 0.10071319121E+01
 0.19413071035E+01 0.36343942369E+01 0.65631005791E+01 0.11321563430E+02 0.18453391579E+02
 0.13061347416E+02 0.18691841807E+02 0.24692558425E+02 0.29870124672E+02 0.32900216619E+02