unknown system                          
   1.00000000000000     
     2.478974    0.000000    0.000000
    -1.239487    2.146854    0.000000
     0.000000    1.431236    4.048147
   Ni
     2
Direct
  0.500000  0.000000  0.500000
  0.000000  0.000000  0.000000
 
   36   36   64
 0.10639008970E+04 0.18486030978E+04 0.36322043612E+03 0.59293373476E+03 0.61179263487E+03
 0.44576592284E+03 0.28015258414E+03 0.16641419926E+03 0.97995598266E+02 0.58881283456E+02
 0.36781101242E+02 0.24156665377E+02 0.16785393158E+02 0.12253915055E+02 0.97280733263E+01
 0.81316711055E+01 0.71949962529E+01 0.67146867102E+01 0.65681124023E+01 0.67146867102E+01
 0.71949962529E+01 0.81316711055E+01 0.97280733263E+01 0.12253915055E+02 0.16785393158E+02
 0.24156665377E+02 0.36781101242E+02 0.58881283456E+02 0.97995598266E+02 0.16641419926E+03
 0.28015258414E+03 0.44576592284E+03 0.61179263487E+03 0.59293373476E+03 0.36322043612E+03
 0.18486030978E+04 0.18487102171E+04 0.18487102171E+04 0.43715443927E+03 0.50607262112E+03
 0.64087416370E+03 0.52209900264E+03 0.34616782463E+03 0.21024872695E+03 0.12424329666E+03
 0.73987724709E+02 0.45420246111E+02 0.29164106657E+02 0.19750498756E+02 0.13842063746E+02
 0.10781091350E+02 0.87838596134E+01 0.75642136084E+01 0.68854981069E+01 0.65862965491E+01
 0.65862965491E+01 0.68854981069E+01 0.75642136084E+01 0.87838596134E+01 0.10781091350E+02
 0.13842063746E+02 0.19750498756E+02 0.29164106657E+02 0.45420246111E+02 0.73987724709E+02
 0.12424329666E+03 0.21024872695E+03 0.34616782463E+03 0.52209900264E+03 0.64087416370E+03
 0.50607262112E+03 0.43715443927E+03 0.36357197044E+03 0.43750139776E+03 0.36357197044E+03
 0.50623118217E+03 0.64116866963E+03 0.56056485594E+03 0.39322488205E+03 0.24731593853E+03
 0.14874444361E+03 0.88964689542E+02 0.54304183791E+02 0.34422026085E+02 0.22902278784E+02
 0.16093337774E+02 0.11886270610E+02 0.94926420603E+01 0.79807189031E+01 0.70935854702E+01
 0.66385408319E+01 0.64996416696E+01 0.66385408319E+01 0.70935854702E+01 0.79807189031E+01
 0.94926420603E+01 0.11886270610E+02 0.16093337774E+02 0.22902278784E+02 0.34422026085E+02
 0.54304183791E+02 0.88964689542E+02 0.14874444361E+03 0.24731593853E+03 0.39322488205E+03
 0.56056485594E+03 0.64116866963E+03 0.50623118217E+03 0.59331514000E+03 0.50655785614E+03
 0.50655785614E+03 0.59331514000E+03 0.64107122750E+03 0.56062909483E+03 0.41019315437E+03
 0.26869969820E+03 0.16641408826E+03 0.10126148342E+03 0.62214658889E+02 0.39353988284E+02
 0.25961249798E+02 0.18000548223E+02 0.12966732128E+02 0.10214482543E+02 0.84219823728E+01
 0.73276320359E+01 0.67182614189E+01 0.64494249909E+01 0.64494249909E+01 0.67182614189E+01
 0.73276320359E+01 0.84219823728E+01 0.10214482543E+02 0.12966732128E+02 0.18000548223E+02
 0.25961249798E+02 0.39353988284E+02 0.62214658889E+02 0.10126148342E+03 0.16641408826E+03
 0.26869969820E+03 0.41019315437E+03 0.56062909483E+03 0.64107122750E+03 0.61208907910E+03
 0.64128404974E+03 0.64156168668E+03 0.64128404974E+03 0.61208907910E+03 0.52226283758E+03
 0.39329602976E+03 0.26872135584E+03 0.17288851463E+03 0.10825587041E+03 0.67744019962E+02
 0.43239878163E+02 0.28561830111E+02 0.19708032293E+02 0.14291966247E+02 0.10894475589E+02
 0.88568726476E+01 0.75708607451E+01 0.68155478826E+01 0.64274992681E+01 0.63089165061E+01
 0.64274992681E+01 0.68155478826E+01 0.75708607450E+01 0.88568726476E+01 0.10894475589E+02
 0.14291966247E+02 0.19708032293E+02 0.28561830111E+02 0.43239878163E+02 0.67744019962E+02
 0.10825587041E+03 0.17288851463E+03 0.26872135584E+03 0.39329602976E+03 0.52226283758E+03
 0.44596610101E+03 0.52238416425E+03 0.56088217399E+03 0.56088217399E+03 0.52238416425E+03
 0.44596610101E+03 0.34628432186E+03 0.24737395142E+03 0.16643850002E+03 0.10826340731E+03
 0.69739337594E+02 0.45394167114E+02 0.30321286005E+02 0.21006990140E+02 0.15202489559E+02
 0.11473244993E+02 0.92490826221E+01 0.78027566593E+01 0.69185191886E+01 0.64247416447E+01
 0.62063294052E+01 0.62063294052E+01 0.64247416447E+01 0.69185191886E+01 0.78027566593E+01
 0.92490826221E+01 0.11473244993E+02 0.15202489559E+02 0.21006990140E+02 0.30321286005E+02
 0.45394167114E+02 0.69739337594E+02 0.10826340731E+03 0.16643850002E+03 0.24737395142E+03
 0.34628432186E+03 0.28028019841E+03 0.34635044500E+03 0.39344364223E+03 0.41040156475E+03
 0.39344364223E+03 0.34635044500E+03 0.28028019841E+03 0.21032649168E+03 0.14878688936E+03
 0.10128236484E+03 0.67752980783E+02 0.45397028183E+02 0.30946317495E+02 0.21710640826E+02
 0.15804247982E+02 0.11895476583E+02 0.95619893769E+01 0.80015703502E+01 0.70148232574E+01
 0.64326257168E+01 0.61320159140E+01 0.60398581396E+01 0.61320159140E+01 0.64326257168E+01
 0.70148232574E+01 0.80015703502E+01 0.95619893769E+01 0.11895476583E+02 0.15804247982E+02
 0.21710640826E+02 0.30946317495E+02 0.45397028183E+02 0.67752980783E+02 0.10128236484E+03
 0.14878688936E+03 0.21032649168E+03 0.16649439411E+03 0.21036252184E+03 0.24745732483E+03
 0.26884823399E+03 0.26884823399E+03 0.24745732483E+03 0.21036252184E+03 0.16649439411E+03
 0.12429426411E+03 0.88994517622E+02 0.62230869275E+02 0.43247970275E+02 0.30324819001E+02
 0.21711774606E+02 0.16015324793E+02 0.12118443112E+02 0.97641149558E+01 0.81472480638E+01
 0.70930624377E+01 0.64442107995E+01 0.60788359256E+01 0.59161062915E+01 0.59161062915E+01
 0.60788359256E+01 0.64442107995E+01 0.70930624377E+01 0.81472480638E+01 0.97641149558E+01
 0.12118443112E+02 0.16015324793E+02 0.21711774606E+02 0.30324819001E+02 0.43247970275E+02
 0.62230869275E+02 0.88994517622E+02 0.12429426411E+03 0.98046419904E+02 0.12431436634E+03
 0.14883417445E+03 0.16651384063E+03 0.17298356919E+03 0.16651384063E+03 0.14883417445E+03
 0.12431436634E+03 0.98046419904E+02 0.74021240286E+02 0.54324869141E+02 0.39366003486E+02
 0.28568355395E+02 0.21010222691E+02 0.15805621698E+02 0.12118846775E+02 0.98341584656E+01
 0.82243518800E+01 0.71440358335E+01 0.64545057077E+01 0.60425095988E+01 0.58271730966E+01
 0.57606567160E+01 0.58271730966E+01 0.60425095988E+01 0.64545057077E+01 0.71440358335E+01
 0.82243518800E+01 0.98341584656E+01 0.12118846775E+02 0.15805621698E+02 0.21010222691E+02
 0.28568355395E+02 0.39366003486E+02 0.54324869141E+02 0.74021240286E+02 0.58914041810E+02
 0.74032850298E+02 0.89021968377E+02 0.10132729680E+03 0.10832301050E+03 0.10832301050E+03
 0.10132729680E+03 0.89021968377E+02 0.74032850298E+02 0.58914041810E+02 0.45442472939E+02
 0.34436245614E+02 0.25969841916E+02 0.19712903195E+02 0.15205033861E+02 0.11896626337E+02
 0.97645603824E+01 0.82244621095E+01 0.71617491512E+01 0.64603927610E+01 0.60210814057E+01
 0.57689607900E+01 0.56549737259E+01 0.56549737259E+01 0.57689607900E+01 0.60210814057E+01
 0.64603927610E+01 0.71617491512E+01 0.82244621095E+01 0.97645603824E+01 0.11896626337E+02
 0.15205033861E+02 0.19712903195E+02 0.25969841916E+02 0.34436245614E+02 0.45442472939E+02
 0.36802482090E+02 0.45449411549E+02 0.54341286688E+02 0.62258167563E+02 0.67790416997E+02
 0.69783694302E+02 0.67790416997E+02 0.62258167563E+02 0.54341286688E+02 0.45449411549E+02
 0.36802482090E+02 0.29178844921E+02 0.22911866991E+02 0.18006424442E+02 0.14295329142E+02
 0.11474972789E+02 0.95628008326E+01 0.81475527617E+01 0.71441089698E+01 0.64603929636E+01
 0.60139575526E+01 0.57399855359E+01 0.55932157578E+01 0.55471890312E+01 0.55932157578E+01
 0.57399855359E+01 0.60139575526E+01 0.64603929636E+01 0.71441089698E+01 0.81475527617E+01
 0.95628008326E+01 0.11474972789E+02 0.14295329142E+02 0.18006424442E+02 0.22911866991E+02
 0.29178844921E+02 0.24170581154E+02 0.29183092980E+02 0.34446312316E+02 0.39382924673E+02
 0.43271717209E+02 0.45426205985E+02 0.45426205985E+02 0.43271717209E+02 0.39382924673E+02
 0.34446312316E+02 0.29183092980E+02 0.24170581154E+02 0.19760092592E+02 0.16099555681E+02
 0.12970348573E+02 0.10896547342E+02 0.92501249581E+01 0.80020009109E+01 0.70931796923E+01
 0.64544977507E+01 0.60210492646E+01 0.57399692902E+01 0.55728438700E+01 0.54951925180E+01
 0.54951925180E+01 0.55728438700E+01 0.57399692902E+01 0.60210492646E+01 0.64544977507E+01
 0.70931796923E+01 0.80020009109E+01 0.92501249581E+01 0.10896547342E+02 0.12970348573E+02
 0.16099555681E+02 0.19760092592E+02 0.16794229315E+02 0.19762717066E+02 0.22918117502E+02
 0.25980457239E+02 0.28583525317E+02 0.30343977517E+02 0.30968146114E+02 0.30343977517E+02
 0.28583525317E+02 0.25980457239E+02 0.22918117502E+02 0.19762717066E+02 0.16794229315E+02
 0.13847736578E+02 0.11889953760E+02 0.10216649070E+02 0.88579914648E+01 0.78032250153E+01
 0.70149390684E+01 0.64441739552E+01 0.60424380043E+01 0.57689111017E+01 0.55932024500E+01
 0.54952019415E+01 0.54637217791E+01 0.54952019415E+01 0.55932024500E+01 0.57689111017E+01
 0.60424380043E+01 0.64441739552E+01 0.70149390684E+01 0.78032250153E+01 0.88579914648E+01
 0.10216649070E+02 0.11889953760E+02 0.13847736578E+02 0.12259102528E+02 0.13849279985E+02
 0.16103430070E+02 0.18013081401E+02 0.19722573684E+02 0.21022715571E+02 0.21726433063E+02
 0.21726433063E+02 0.21022715571E+02 0.19722573684E+02 0.18013081401E+02 0.16103430070E+02
 0.13849279985E+02 0.12259102528E+02 0.10784517523E+02 0.94946842695E+01 0.84230386442E+01
 0.75712849699E+01 0.69185894191E+01 0.64325390147E+01 0.60787174731E+01 0.58270905328E+01
 0.56549519084E+01 0.55472224708E+01 0.54952550297E+01 0.54952550297E+01 0.55472224708E+01
 0.56549519084E+01 0.58270905328E+01 0.60787174731E+01 0.64325390147E+01 0.69185894191E+01
 0.75712849699E+01 0.84230386442E+01 0.94946842695E+01 0.10784517523E+02 0.97310109939E+01
 0.10785483015E+02 0.11892279274E+02 0.12974343252E+02 0.14301417812E+02 0.15213059533E+02
 0.15815275702E+02 0.16026036545E+02 0.15815275702E+02 0.15213059533E+02 0.14301417812E+02
 0.12974343252E+02 0.11892279274E+02 0.10785483015E+02 0.97310109939E+01 0.87856176630E+01
 0.79816111182E+01 0.73279540387E+01 0.68155443426E+01 0.64245960279E+01 0.61318533312E+01
 0.59160012861E+01 0.57606423396E+01 0.56550505578E+01 0.55933603908E+01 0.55730175810E+01
 0.55933603908E+01 0.56550505578E+01 0.57606423396E+01 0.59160012861E+01 0.61318533312E+01
 0.64245960279E+01 0.68155443426E+01 0.73279540387E+01 0.79816111182E+01 0.87856176630E+01
 0.81330550970E+01 0.87861865067E+01 0.94960927253E+01 0.10219135584E+02 0.10900264030E+02
 0.11479939215E+02 0.11902703934E+02 0.12125742238E+02 0.12125742238E+02 0.11902703934E+02
 0.11479939215E+02 0.10900264030E+02 0.10219135584E+02 0.94960927253E+01 0.87861865067E+01
 0.81330550970E+01 0.75648848483E+01 0.70937767092E+01 0.67181775657E+01 0.64273040877E+01
 0.62061432407E+01 0.60397597891E+01 0.59161359973E+01 0.58273367168E+01 0.57692357746E+01
 0.57403291749E+01 0.57403291749E+01 0.57692357746E+01 0.58273367168E+01 0.59161359973E+01
 0.60397597891E+01 0.62061432407E+01 0.64273040877E+01 0.67181775657E+01 0.70937767092E+01
 0.75648848483E+01 0.71954302373E+01 0.75651994944E+01 0.79824161240E+01 0.84244995820E+01
 0.88602322220E+01 0.92531961321E+01 0.95666554535E+01 0.97690446065E+01 0.98390224069E+01
 0.97690446065E+01 0.95666554535E+01 0.92531961321E+01 0.88602322220E+01 0.84244995820E+01
 0.79824161240E+01 0.75651994944E+01 0.71954302373E+01 0.68855558703E+01 0.66383889294E+01
 0.64492068744E+01 0.63087466210E+01 0.62062902009E+01 0.61321551336E+01 0.60791650874E+01
 0.60430059091E+01 0.60216945377E+01 0.60146211045E+01 0.60216945377E+01 0.60430059091E+01
 0.60791650874E+01 0.61321551336E+01 0.62062902009E+01 0.63087466210E+01 0.64492068744E+01
 0.66383889294E+01 0.68855558703E+01 0.67146267374E+01 0.68857105579E+01 0.70942022378E+01
 0.73287613437E+01 0.75725636259E+01 0.78050253978E+01 0.80043175060E+01 0.81503131112E+01
 0.82275263493E+01 0.82275263493E+01 0.81503131112E+01 0.80043175060E+01 0.78050253978E+01
 0.75725636259E+01 0.73287613437E+01 0.70942022378E+01 0.68857105579E+01 0.67146267374E+01
 0.65861005397E+01 0.64994378476E+01 0.64493254525E+01 0.64275930926E+01 0.64250869650E+01
 0.64332420337E+01 0.64450752210E+01 0.64555565459E+01 0.64615413956E+01 0.64615413956E+01
 0.64555565459E+01 0.64450752210E+01 0.64332420337E+01 0.64250869650E+01 0.64275930926E+01
 0.64493254525E+01 0.64994378476E+01 0.65861005397E+01 0.65679012910E+01 0.65861467239E+01
 0.66385705565E+01 0.67185745351E+01 0.68162205704E+01 0.69195852532E+01 0.70162628268E+01
 0.70947999550E+01 0.71459507801E+01 0.71636978243E+01 0.71459507801E+01 0.70947999550E+01
 0.70162628268E+01 0.69195852532E+01 0.68162205704E+01 0.67185745351E+01 0.66385705565E+01
 0.65861467239E+01 0.65679012910E+01 0.65861467239E+01 0.66385705565E+01 0.67185745351E+01
 0.68162205704E+01 0.69195852532E+01 0.70162628268E+01 0.70947999550E+01 0.71459507801E+01
 0.71636978243E+01 0.71459507801E+01 0.70947999550E+01 0.70162628268E+01 0.69195852532E+01
 0.68162205704E+01 0.67185745351E+01 0.66385705565E+01 0.65861467239E+01 0.67146267374E+01
 0.65861005397E+01 0.64994378476E+01 0.64493254525E+01 0.64275930926E+01 0.64250869650E+01
 0.64332420337E+01 0.64450752210E+01 0.64555565459E+01 0.64615413956E+01 0.64615413956E+01
 0.64555565459E+01 0.64450752210E+01 0.64332420337E+01 0.64250869650E+01 0.64275930926E+01
 0.64493254525E+01 0.64994378476E+01 0.65861005397E+01 0.67146267374E+01 0.68857105579E+01
 0.70942022378E+01 0.73287613437E+01 0.75725636259E+01 0.78050253978E+01 0.80043175060E+01
 0.81503131112E+01 0.82275263493E+01 0.82275263493E+01 0.81503131112E+01 0.80043175060E+01
 0.78050253978E+01 0.75725636259E+01 0.73287613437E+01 0.70942022378E+01 0.68857105579E+01
 0.71954302373E+01 0.68855558703E+01 0.66383889294E+01 0.64492068744E+01 0.63087466210E+01
 0.62062902009E+01 0.61321551336E+01 0.60791650874E+01 0.60430059091E+01 0.60216945377E+01
 0.60146211045E+01 0.60216945377E+01 0.60430059091E+01 0.60791650874E+01 0.61321551336E+01
 0.62062902009E+01 0.63087466210E+01 0.64492068744E+01 0.66383889294E+01 0.68855558703E+01
 0.71954302373E+01 0.75651994944E+01 0.79824161240E+01 0.84244995820E+01 0.88602322220E+01
 0.92531961321E+01 0.95666554535E+01 0.97690446065E+01 0.98390224069E+01 0.97690446065E+01
 0.95666554535E+01 0.92531961321E+01 0.88602322220E+01 0.84244995820E+01 0.79824161240E+01
 0.75651994944E+01 0.81330550970E+01 0.75648848483E+01 0.70937767092E+01 0.67181775657E+01
 0.64273040877E+01 0.62061432407E+01 0.60397597891E+01 0.59161359973E+01 0.58273367168E+01
 0.57692357746E+01 0.57403291749E+01 0.57403291749E+01 0.57692357746E+01 0.58273367168E+01
 0.59161359973E+01 0.60397597891E+01 0.62061432407E+01 0.64273040877E+01 0.67181775657E+01
 0.70937767092E+01 0.75648848483E+01 0.81330550970E+01 0.87861865067E+01 0.94960927253E+01
 0.10219135584E+02 0.10900264030E+02 0.11479939215E+02 0.11902703934E+02 0.12125742238E+02
 0.12125742238E+02 0.11902703934E+02 0.11479939215E+02 0.10900264030E+02 0.10219135584E+02
 0.94960927253E+01 0.87861865067E+01 0.97310109939E+01 0.87856176630E+01 0.79816111182E+01
 0.73279540387E+01 0.68155443426E+01 0.64245960279E+01 0.61318533312E+01 0.59160012861E+01
 0.57606423396E+01 0.56550505578E+01 0.55933603908E+01 0.55730175810E+01 0.55933603908E+01
 0.56550505578E+01 0.57606423396E+01 0.59160012861E+01 0.61318533312E+01 0.64245960279E+01
 0.68155443426E+01 0.73279540387E+01 0.79816111182E+01 0.87856176630E+01 0.97310109939E+01
 0.10785483015E+02 0.11892279274E+02 0.12974343252E+02 0.14301417812E+02 0.15213059533E+02
 0.15815275702E+02 0.16026036545E+02 0.15815275702E+02 0.15213059533E+02 0.14301417812E+02
 0.12974343252E+02 0.11892279274E+02 0.10785483015E+02 0.12259102528E+02 0.10784517523E+02
 0.94946842695E+01 0.84230386442E+01 0.75712849699E+01 0.69185894191E+01 0.64325390147E+01
 0.60787174731E+01 0.58270905328E+01 0.56549519084E+01 0.55472224708E+01 0.54952550297E+01
 0.54952550297E+01 0.55472224708E+01 0.56549519084E+01 0.58270905328E+01 0.60787174731E+01
 0.64325390147E+01 0.69185894191E+01 0.75712849699E+01 0.84230386442E+01 0.94946842695E+01
 0.10784517523E+02 0.12259102528E+02 0.13849279985E+02 0.16103430070E+02 0.18013081401E+02
 0.19722573684E+02 0.21022715571E+02 0.21726433063E+02 0.21726433063E+02 0.21022715571E+02
 0.19722573684E+02 0.18013081401E+02 0.16103430070E+02 0.13849279985E+02 0.16794229315E+02
 0.13847736578E+02 0.11889953760E+02 0.10216649070E+02 0.88579914648E+01 0.78032250153E+01
 0.70149390684E+01 0.64441739552E+01 0.60424380043E+01 0.57689111017E+01 0.55932024500E+01
 0.54952019415E+01 0.54637217791E+01 0.54952019415E+01 0.55932024500E+01 0.57689111017E+01
 0.60424380043E+01 0.64441739552E+01 0.70149390684E+01 0.78032250153E+01 0.88579914648E+01
 0.10216649070E+02 0.11889953760E+02 0.13847736578E+02 0.16794229315E+02 0.19762717066E+02
 0.22918117502E+02 0.25980457239E+02 0.28583525317E+02 0.30343977517E+02 0.30968146114E+02
 0.30343977517E+02 0.28583525317E+02 0.25980457239E+02 0.22918117502E+02 0.19762717066E+02
 0.24170581154E+02 0.19760092592E+02 0.16099555681E+02 0.12970348573E+02 0.10896547342E+02
 0.92501249581E+01 0.80020009109E+01 0.70931796923E+01 0.64544977507E+01 0.60210492646E+01
 0.57399692902E+01 0.55728438700E+01 0.54951925180E+01 0.54951925180E+01 0.55728438700E+01
 0.57399692902E+01 0.60210492646E+01 0.64544977507E+01 0.70931796923E+01 0.80020009109E+01
 0.92501249581E+01 0.10896547342E+02 0.12970348573E+02 0.16099555681E+02 0.19760092592E+02
 0.24170581154E+02 0.29183092980E+02 0.34446312316E+02 0.39382924673E+02 0.43271717209E+02
 0.45426205985E+02 0.45426205985E+02 0.43271717209E+02 0.39382924673E+02 0.34446312316E+02
 0.29183092980E+02 0.36802482090E+02 0.29178844921E+02 0.22911866991E+02 0.18006424442E+02
 0.14295329142E+02 0.11474972789E+02 0.95628008326E+01 0.81475527617E+01 0.71441089698E+01
 0.64603929636E+01 0.60139575526E+01 0.57399855359E+01 0.55932157578E+01 0.55471890312E+01
 0.55932157578E+01 0.57399855359E+01 0.60139575526E+01 0.64603929636E+01 0.71441089698E+01
 0.81475527617E+01 0.95628008326E+01 0.11474972789E+02 0.14295329142E+02 0.18006424442E+02
 0.22911866991E+02 0.29178844921E+02 0.36802482090E+02 0.45449411549E+02 0.54341286688E+02
 0.62258167563E+02 0.67790416997E+02 0.69783694302E+02 0.67790416997E+02 0.62258167563E+02
 0.54341286688E+02 0.45449411549E+02 0.58914041810E+02 0.45442472939E+02 0.34436245614E+02
 0.25969841916E+02 0.19712903195E+02 0.15205033861E+02 0.11896626337E+02 0.97645603824E+01
 0.82244621095E+01 0.71617491512E+01 0.64603927610E+01 0.60210814057E+01 0.57689607900E+01
 0.56549737259E+01 0.56549737259E+01 0.57689607900E+01 0.60210814057E+01 0.64603927610E+01
 0.71617491512E+01 0.82244621095E+01 0.97645603824E+01 0.11896626337E+02 0.15205033861E+02
 0.19712903195E+02 0.25969841916E+02 0.34436245614E+02 0.45442472939E+02 0.58914041810E+02
 0.74032850298E+02 0.89021968377E+02 0.10132729680E+03 0.10832301050E+03 0.10832301050E+03
 0.10132729680E+03 0.89021968377E+02 0.74032850298E+02 0.98046419904E+02 0.74021240286E+02
 0.54324869141E+02 0.39366003486E+02 0.28568355395E+02 0.21010222691E+02 0.15805621698E+02
 0.12118846775E+02 0.98341584656E+01 0.82243518800E+01 0.71440358335E+01 0.64545057077E+01
 0.60425095988E+01 0.58271730966E+01 0.57606567160E+01 0.58271730966E+01 0.60425095988E+01
 0.64545057077E+01 0.71440358335E+01 0.82243518800E+01 0.98341584656E+01 0.12118846775E+02
 0.15805621698E+02 0.21010222691E+02 0.28568355395E+02 0.39366003486E+02 0.54324869141E+02
 0.74021240286E+02 0.98046419904E+02 0.12431436634E+03 0.14883417445E+03 0.16651384063E+03
 0.17298356919E+03 0.16651384063E+03 0.14883417445E+03 0.12431436634E+03 0.16649439411E+03
 0.12429426411E+03 0.88994517622E+02 0.62230869275E+02 0.43247970275E+02 0.30324819001E+02
 0.21711774606E+02 0.16015324793E+02 0.12118443112E+02 0.97641149558E+01 0.81472480638E+01
 0.70930624377E+01 0.64442107995E+01 0.60788359256E+01 0.59161062915E+01 0.59161062915E+01
 0.60788359256E+01 0.64442107995E+01 0.70930624377E+01 0.81472480638E+01 0.97641149558E+01
 0.12118443112E+02 0.16015324793E+02 0.21711774606E+02 0.30324819001E+02 0.43247970275E+02
 0.62230869275E+02 0.88994517622E+02 0.12429426411E+03 0.16649439411E+03 0.21036252184E+03
 0.24745732483E+03 0.26884823399E+03 0.26884823399E+03 0.24745732483E+03 0.21036252184E+03
 0.28028019841E+03 0.21032649168E+03 0.14878688936E+03 0.10128236484E+03 0.67752980783E+02
 0.45397028183E+02 0.30946317495E+02 0.21710640826E+02 0.15804247982E+02 0.11895476583E+02
 0.95619893769E+01 0.80015703502E+01 0.70148232574E+01 0.64326257168E+01 0.61320159140E+01
 0.60398581396E+01 0.61320159140E+01 0.64326257168E+01 0.70148232574E+01 0.80015703502E+01
 0.95619893769E+01 0.11895476583E+02 0.15804247982E+02 0.21710640826E+02 0.30946317495E+02
 0.45397028183E+02 0.67752980783E+02 0.10128236484E+03 0.14878688936E+03 0.21032649168E+03
 0.28028019841E+03 0.34635044500E+03 0.39344364223E+03 0.41040156475E+03 0.39344364223E+03
 0.34635044500E+03 0.44596610101E+03 0.34628432186E+03 0.24737395142E+03 0.16643850002E+03
 0.10826340731E+03 0.69739337594E+02 0.45394167114E+02 0.30321286005E+02 0.21006990140E+02
 0.15202489559E+02 0.11473244993E+02 0.92490826221E+01 0.78027566593E+01 0.69185191886E+01
 0.64247416447E+01 0.62063294052E+01 0.62063294052E+01 0.64247416447E+01 0.69185191886E+01
 0.78027566593E+01 0.92490826221E+01 0.11473244993E+02 0.15202489559E+02 0.21006990140E+02
 0.30321286005E+02 0.45394167114E+02 0.69739337594E+02 0.10826340731E+03 0.16643850002E+03
 0.24737395142E+03 0.34628432186E+03 0.44596610101E+03 0.52238416425E+03 0.56088217399E+03
 0.56088217399E+03 0.52238416425E+03 0.61208907910E+03 0.52226283758E+03 0.39329602976E+03
 0.26872135584E+03 0.17288851463E+03 0.10825587041E+03 0.67744019962E+02 0.43239878163E+02
 0.28561830111E+02 0.19708032293E+02 0.14291966247E+02 0.10894475589E+02 0.88568726476E+01
 0.75708607450E+01 0.68155478826E+01 0.64274992681E+01 0.63089165061E+01 0.64274992681E+01
 0.68155478826E+01 0.75708607450E+01 0.88568726476E+01 0.10894475589E+02 0.14291966247E+02
 0.19708032293E+02 0.28561830111E+02 0.43239878163E+02 0.67744019962E+02 0.10825587041E+03
 0.17288851463E+03 0.26872135584E+03 0.39329602976E+03 0.52226283758E+03 0.61208907910E+03
 0.64128404974E+03 0.64156168668E+03 0.64128404974E+03 0.59331514000E+03 0.64107122750E+03
 0.56062909483E+03 0.41019315437E+03 0.26869969820E+03 0.16641408826E+03 0.10126148342E+03
 0.62214658889E+02 0.39353988284E+02 0.25961249798E+02 0.18000548223E+02 0.12966732128E+02
 0.10214482543E+02 0.84219823728E+01 0.73276320359E+01 0.67182614189E+01 0.64494249909E+01
 0.64494249909E+01 0.67182614189E+01 0.73276320359E+01 0.84219823728E+01 0.10214482543E+02
 0.12966732128E+02 0.18000548223E+02 0.25961249798E+02 0.39353988284E+02 0.62214658889E+02
 0.10126148342E+03 0.16641408826E+03 0.26869969820E+03 0.41019315437E+03 0.56062909483E+03
 0.64107122750E+03 0.59331514000E+03 0.50655785614E+03 0.50655785614E+03 0.36357197044E+03
 0.50623118217E+03 0.64116866963E+03 0.56056485594E+03 0.39322488205E+03 0.24731593853E+03
 0.14874444361E+03 0.88964689542E+02 0.54304183791E+02 0.34422026085E+02 0.22902278784E+02
 0.16093337774E+02 0.11886270610E+02 0.94926420603E+01 0.79807189031E+01 0.70935854702E+01
 0.66385408319E+01 0.64996416696E+01 0.66385408319E+01 0.70935854702E+01 0.79807189031E+01
 0.94926420603E+01 0.11886270610E+02 0.16093337774E+02 0.22902278784E+02 0.34422026085E+02
 0.54304183791E+02 0.88964689542E+02 0.14874444361E+03 0.24731593853E+03 0.39322488205E+03
 0.56056485594E+03 0.64116866963E+03 0.50623118217E+03 0.36357197044E+03 0.43750139776E+03
 0.18487102171E+04 0.43715443927E+03 0.50607262112E+03 0.64087416370E+03 0.52209900264E+03
 0.34616782463E+03 0.21024872695E+03 0.12424329666E+03 0.73987724709E+02 0.45420246111E+02
 0.29164106657E+02 0.19750498756E+02 0.13842063746E+02 0.10781091350E+02 0.87838596134E+01
 0.75642136084E+01 0.68854981069E+01 0.65862965491E+01 0.65862965491E+01 0.68854981069E+01
 0.75642136084E+01 0.87838596134E+01 0.10781091350E+02 0.13842063746E+02 0.19750498756E+02
 0.29164106657E+02 0.45420246111E+02 0.73987724709E+02 0.12424329666E+03 0.21024872695E+03
 0.34616782463E+03 0.52209900264E+03 0.64087416370E+03 0.50607262112E+03 0.43715443927E+03
 0.18487102171E+04 0.19433223738E+04 0.85299499280E+03 0.41265930122E+03 0.63029395181E+03
 0.60275854846E+03 0.43114619879E+03 0.27042072327E+03 0.16110614511E+03 0.95288005618E+02
 0.57521178741E+02 0.36086727280E+02 0.23789895464E+02 0.16582553470E+02 0.12145429987E+02
 0.96559681732E+01 0.80832128509E+01 0.71606096718E+01 0.66875540862E+01 0.65431961795E+01
 0.66875540862E+01 0.71606096718E+01 0.80832128509E+01 0.96559681732E+01 0.12145429987E+02
 0.16582553470E+02 0.23789895464E+02 0.36086727280E+02 0.57521178741E+02 0.95288005618E+02
 0.16110614511E+03 0.27042072327E+03 0.43114619879E+03 0.60275854846E+03 0.63029395181E+03
 0.41265930122E+03 0.85299499280E+03 0.58477629059E+03 0.58477629059E+03 0.39806191408E+03
 0.59322801025E+03 0.63903323149E+03 0.49679374069E+03 0.32650308103E+03 0.19889767312E+03
 0.11831794518E+03 0.70992506853E+02 0.43904241906E+02 0.28378366994E+02 0.19327696263E+02
 0.13637726878E+02 0.10647873786E+02 0.86984649856E+01 0.75084455984E+01 0.68462875654E+01
 0.65543828837E+01 0.65543828837E+01 0.68462875654E+01 0.75084455984E+01 0.86984649856E+01
 0.10647873786E+02 0.13637726878E+02 0.19327696263E+02 0.28378366994E+02 0.43904241906E+02
 0.70992506853E+02 0.11831794518E+03 0.19889767312E+03 0.32650308103E+03 0.49679374069E+03
 0.63903323149E+03 0.59322801025E+03 0.39806191408E+03 0.47114396838E+03 0.41345162062E+03
 0.47114396838E+03 0.61046353177E+03 0.64384712204E+03 0.52563197855E+03 0.36257825766E+03
 0.22845715800E+03 0.13853620144E+03 0.83704054761E+02 0.51621339965E+02 0.33035756496E+02
 0.22164712855E+02 0.15686437643E+02 0.11671189648E+02 0.93562084298E+01 0.78947737038E+01
 0.70373872946E+01 0.65975696302E+01 0.64633059304E+01 0.65975696302E+01 0.70373872946E+01
 0.78947737038E+01 0.93562084298E+01 0.11671189648E+02 0.15686437643E+02 0.22164712855E+02
 0.33035756496E+02 0.51621339965E+02 0.83704054761E+02 0.13853620144E+03 0.22845715800E+03
 0.36257825766E+03 0.52563197855E+03 0.64384712204E+03 0.61046353177E+03 0.64888598602E+03
 0.62063292307E+03 0.62063292307E+03 0.64888598602E+03 0.62419101273E+03 0.51435916703E+03
 0.36949643685E+03 0.24237624945E+03 0.15153928034E+03 0.93355814563E+02 0.58104087870E+02
 0.37209840395E+02 0.24819308191E+02 0.17373712070E+02 0.12651078022E+02 0.10013293594E+02
 0.82967049901E+01 0.72488821654E+01 0.66653068386E+01 0.64077806511E+01 0.64077806511E+01
 0.66653068386E+01 0.72488821654E+01 0.82967049901E+01 0.10013293594E+02 0.12651078022E+02
 0.17373712070E+02 0.24819308191E+02 0.37209840395E+02 0.58104087870E+02 0.93355814563E+02
 0.15153928034E+03 0.24237624945E+03 0.36949643685E+03 0.51435916703E+03 0.62419101273E+03
 0.56108111109E+03 0.61355627631E+03 0.62735778361E+03 0.61355627631E+03 0.56108111109E+03
 0.46396842154E+03 0.34550445500E+03 0.23683664592E+03 0.15404304141E+03 0.97834621368E+02
 0.62156861408E+02 0.40262618639E+02 0.26957151883E+02 0.18823523638E+02 0.13504584699E+02
 0.10617441261E+02 0.86842241305E+01 0.74643185335E+01 0.67475519899E+01 0.63790890050E+01
 0.62664449426E+01 0.63790890050E+01 0.67475519899E+01 0.74643185335E+01 0.86842241305E+01
 0.10617441261E+02 0.13504584699E+02 0.18823523638E+02 0.26957151883E+02 0.40262618639E+02
 0.62156861408E+02 0.97834621368E+02 0.15404304141E+03 0.23683664592E+03 0.34550445500E+03
 0.46396842154E+03 0.38269938595E+03 0.45232130687E+03 0.49010050415E+03 0.49010050415E+03
 0.45232130687E+03 0.38269938595E+03 0.29669697757E+03 0.21338044017E+03 0.14537782328E+03
 0.96057552189E+02 0.62928815802E+02 0.41650704319E+02 0.28257491485E+02 0.19851243655E+02
 0.14543660342E+02 0.11114097252E+02 0.90236953314E+01 0.76645655000E+01 0.68330806553E+01
 0.63682612718E+01 0.61624623071E+01 0.61624623071E+01 0.63682612718E+01 0.68330806553E+01
 0.76645655000E+01 0.90236953314E+01 0.11114097252E+02 0.14543660342E+02 0.19851243655E+02
 0.28257491485E+02 0.41650704319E+02 0.62928815802E+02 0.96057552189E+02 0.14537782328E+03
 0.21338044017E+03 0.29669697757E+03 0.23517584738E+03 0.28922698734E+03 0.32821277464E+03
 0.34240313964E+03 0.32821277464E+03 0.28922698734E+03 0.23517584738E+03 0.17818973471E+03
 0.12781152332E+03 0.88462395423E+02 0.60248199342E+02 0.41102711390E+02 0.28502249432E+02
 0.20310421443E+02 0.14991752802E+02 0.11454516024E+02 0.92825099460E+01 0.78301917957E+01
 0.69108627412E+01 0.63675094693E+01 0.60864575677E+01 0.60001985846E+01 0.60864575677E+01
 0.63675094693E+01 0.69108627412E+01 0.78301917957E+01 0.92825099460E+01 0.11454516024E+02
 0.14991752802E+02 0.20310421443E+02 0.28502249432E+02 0.41102711390E+02 0.60248199342E+02
 0.88462395423E+02 0.12781152332E+03 0.17818973471E+03 0.13929289098E+03 0.17411501111E+03
 0.20342119277E+03 0.22030065511E+03 0.22030065511E+03 0.20342119277E+03 0.17411501111E+03
 0.13929289098E+03 0.10547819667E+03 0.76804072036E+02 0.54697979935E+02 0.38727463451E+02
 0.27649531548E+02 0.20129960526E+02 0.15075501545E+02 0.11603498679E+02 0.94340738576E+01
 0.79440974212E+01 0.69712418695E+01 0.63709588158E+01 0.60319628340E+01 0.58806307846E+01
 0.58806307846E+01 0.60319628340E+01 0.63709588158E+01 0.69712418695E+01 0.79440974212E+01
 0.94340738576E+01 0.11603498679E+02 0.15075501545E+02 0.20129960526E+02 0.27649531548E+02
 0.38727463451E+02 0.54697979935E+02 0.76804072036E+02 0.10547819667E+03 0.82639353978E+02
 0.10337478648E+03 0.12252465290E+03 0.13623724823E+03 0.14123853666E+03 0.13623724823E+03
 0.12252465290E+03 0.10337478648E+03 0.82639353978E+02 0.63406118247E+02 0.47372645632E+02
 0.34969340008E+02 0.25844305415E+02 0.19338143295E+02 0.14783091408E+02 0.11545209549E+02
 0.94621651219E+01 0.79940168068E+01 0.70068828798E+01 0.63747315205E+01 0.59954506239E+01
 0.57964322386E+01 0.57348061719E+01 0.57964322386E+01 0.59954506239E+01 0.63747315205E+01
 0.70068828798E+01 0.79940168068E+01 0.94621651219E+01 0.11545209549E+02 0.14783091408E+02
 0.19338143295E+02 0.25844305415E+02 0.34969340008E+02 0.47372645632E+02 0.63406118247E+02
 0.50335147445E+02 0.62328669953E+02 0.74065354788E+02 0.83605623547E+02 0.88996994152E+02
 0.88996994152E+02 0.83605623547E+02 0.74065354788E+02 0.62328669953E+02 0.50335147445E+02