unknown system                          
   1.00000000000000     
     2.478974    0.000000    0.000000
    -1.239487    2.146854    0.000000
     0.000000    1.431236    4.048147
   Ni
     2
Direct
  0.500000  0.000000  0.500000
  0.000000  0.000000  0.000000
 
   36   36   64
 0.28261229107E+07 0.21585122438E+05 0.42660989116E+04 0.58852856053E+03 0.17342073609E+03
 0.97515448515E+02 0.54222394626E+02 0.27521373942E+02 0.13153020571E+02 0.60729657004E+01
 0.27505354338E+01 0.12333545122E+01 0.54970189601E+00 0.24497789488E+00 0.10901940522E+00
 0.48954509422E-01 0.22425114452E-01 0.11635573450E-01 0.85725120734E-02 0.11635573450E-01
 0.22425114452E-01 0.48954509422E-01 0.10901940522E+00 0.24497789487E+00 0.54970189601E+00
 0.12333545122E+01 0.27505354338E+01 0.60729657004E+01 0.13153020571E+02 0.27521373942E+02
 0.54222394626E+02 0.97515448515E+02 0.17342073609E+03 0.58852856053E+03 0.42660989116E+04
 0.21585122438E+05 0.21585126790E+05 0.21585126722E+05 0.71007949920E+04 0.11552756519E+04
 0.24606137828E+03 0.12192043934E+03 0.70741285393E+02 0.37504612232E+02 0.18440291919E+02
 0.86655229570E+01 0.39682253694E+01 0.17910935013E+01 0.80228605286E+00 0.35832220070E+00
 0.15965199578E+00 0.71505434024E-01 0.32283902388E-01 0.15492640305E-01 0.91870408705E-02
 0.91877106297E-02 0.15490591287E-01 0.32285587587E-01 0.71504679025E-01 0.15965025635E+00
 0.35832604468E+00 0.80228052704E+00 0.17910938205E+01 0.39682249193E+01 0.86655434032E+01
 0.18440270724E+02 0.37504646195E+02 0.70741238591E+02 0.12192043851E+03 0.24606138342E+03
 0.11552755622E+04 0.71007950930E+04 0.42661016386E+04 0.71007986167E+04 0.42661017965E+04
 0.11552760399E+04 0.29009719515E+03 0.13797947583E+03 0.83013521486E+02 0.46263352690E+02
 0.23643002265E+02 0.11420712644E+02 0.53338566358E+01 0.24417533487E+01 0.11056004671E+01
 0.49720734073E+00 0.22310898255E+00 0.10004556984E+00 0.45135555461E-01 0.20894232689E-01
 0.10852164236E-01 0.81110232513E-02 0.10853392112E-01 0.20895225642E-01 0.45133866088E-01
 0.10004865332E+00 0.22310638056E+00 0.49720940244E+00 0.11056050136E+01 0.24417562419E+01
 0.53338321875E+01 0.11420718864E+02 0.23642981471E+02 0.46263376939E+02 0.83013556051E+02
 0.13797947916E+03 0.29009727983E+03 0.11552760219E+04 0.58852915635E+03 0.11552768443E+04
 0.11552767627E+04 0.58852909046E+03 0.24606152362E+03 0.13797960552E+03 0.87572165344E+02
 0.51422993270E+02 0.27521343475E+02 0.13793525300E+02 0.66286137500E+01 0.31027750128E+01
 0.14291222184E+01 0.65160444131E+00 0.29572920075E+00 0.13359550143E+00 0.60551413150E-01
 0.27694673080E-01 0.13449556793E-01 0.80791861718E-02 0.80773245677E-02 0.13449068810E-01
 0.27693561333E-01 0.60551159024E-01 0.13359669198E+00 0.29572564351E+00 0.65160439744E+00
 0.14291112857E+01 0.31028000539E+01 0.66286085589E+01 0.13793566409E+02 0.27521299375E+02
 0.51422985787E+02 0.87572132792E+02 0.13797950237E+03 0.24606155861E+03 0.17342088755E+03
 0.24606162673E+03 0.29009743113E+03 0.24606160714E+03 0.17342096431E+03 0.12192050526E+03
 0.83013424588E+02 0.51422986922E+02 0.28963457581E+02 0.15180528504E+02 0.75713536402E+01
 0.36532368054E+01 0.17243477187E+01 0.80226029486E+00 0.37010118097E+00 0.16943434014E+00
 0.77635808159E-01 0.35457393491E-01 0.16825983906E-01 0.87352492012E-02 0.67445287019E-02
 0.87368991094E-02 0.16826124279E-01 0.35461651741E-01 0.77629704770E-01 0.16944158692E+00
 0.37009992141E+00 0.80227128989E+00 0.17243260112E+01 0.36532486042E+01 0.75713003680E+01
 0.15180564625E+02 0.28963474172E+02 0.51422994947E+02 0.83013559637E+02 0.12192048059E+03
 0.97515463112E+02 0.12192049652E+03 0.13797952204E+03 0.13797962749E+03 0.12192051066E+03
 0.97515411049E+02 0.70741227193E+02 0.46263520470E+02 0.27521298498E+02 0.15180566523E+02
 0.79178931911E+01 0.39682418728E+01 0.19334847514E+01 0.92409524472E+00 0.43559317523E+00
 0.20334746424E+00 0.94471860263E-01 0.43731260795E-01 0.20503584311E-01 0.10109421337E-01
 0.61903305591E-02 0.61885117703E-02 0.10109986600E-01 0.20497848842E-01 0.43735660424E-01
 0.94467715216E-01 0.20334770903E+00 0.43557824341E+00 0.92412338617E+00 0.19334601433E+01
 0.39682994922E+01 0.79178593246E+01 0.15180564203E+02 0.27521288120E+02 0.46263392628E+02
 0.70741244239E+02 0.54222423742E+02 0.70741327674E+02 0.83013589814E+02 0.87572242723E+02
 0.83013489375E+02 0.70741273792E+02 0.54222465678E+02 0.37504726479E+02 0.23642821420E+02
 0.13793591675E+02 0.75713201425E+01 0.39682558385E+01 0.20094230971E+01 0.99234832532E+00
 0.48098072189E+00 0.23002649355E+00 0.10897874092E+00 0.51288453865E-01 0.24201356477E-01
 0.11678937850E-01 0.63322503743E-02 0.48277330963E-02 0.63308982678E-02 0.11686056208E-01
 0.24196009368E-01 0.51298042847E-01 0.10896882184E+00 0.23005236075E+00 0.48094547568E+00
 0.99237962981E+00 0.20093646686E+01 0.39682987069E+01 0.75713126841E+01 0.13793577299E+02
 0.23642973031E+02 0.37504680274E+02 0.27521410029E+02 0.37504663023E+02 0.46263419345E+02
 0.51423088900E+02 0.51423076153E+02 0.46263571013E+02 0.37504732642E+02 0.27521347250E+02
 0.18440214239E+02 0.11420897587E+02 0.66285682084E+01 0.36532469859E+01 0.19335134809E+01
 0.99231327212E+00 0.49728158778E+00 0.24474946351E+00 0.11888319750E+00 0.57134980415E-01
 0.27357510529E-01 0.13168190822E-01 0.67247208001E-02 0.42015682319E-02 0.42163878156E-02
 0.67068244968E-02 0.13183634486E-01 0.27335938944E-01 0.57153736603E-01 0.11885201354E+00
 0.24478786123E+00 0.49724253689E+00 0.99237880568E+00 0.19334616447E+01 0.36532403857E+01
 0.66286220518E+01 0.11420731601E+02 0.18440270281E+02 0.13153015136E+02 0.18440302338E+02
 0.23643011492E+02 0.27521343254E+02 0.28963455124E+02 0.27521305045E+02 0.23642840489E+02
 0.18440237424E+02 0.13153089731E+02 0.86656316158E+01 0.53336603339E+01 0.31028839581E+01
 0.17242856852E+01 0.92408901132E+00 0.48100564093E+00 0.24475393186E+00 0.12237513085E+00
 0.60344740556E-01 0.29500419326E-01 0.14382967431E-01 0.71836112639E-02 0.40078384284E-02
 0.31132275919E-02 0.40127288840E-02 0.71774802570E-02 0.14397548547E-01 0.29490606626E-01
 0.60370295633E-01 0.12233891908E+00 0.24479369518E+00 0.48094774702E+00 0.92412425167E+00
 0.17243311178E+01 0.31027920477E+01 0.53338398134E+01 0.86655543965E+01 0.60729820051E+01
 0.86655275302E+01 0.11420727642E+02 0.13793545620E+02 0.15180551229E+02 0.15180589030E+02
 0.13793611006E+02 0.11420889610E+02 0.86656173336E+01 0.60728534977E+01 0.39681491282E+01
 0.24419501980E+01 0.14290102633E+01 0.80234484499E+00 0.43560342023E+00 0.22999036900E+00
 0.11889257506E+00 0.60315622479E-01 0.30273157554E-01 0.15029077358E-01 0.75667366677E-02
 0.39809343645E-02 0.26139364496E-02 0.25789038486E-02 0.40157939477E-02 0.75273706105E-02
 0.15059276147E-01 0.30225414080E-01 0.60369612613E-01 0.11884176364E+00 0.23004629483E+00
 0.43557765101E+00 0.80227542739E+00 0.14291230772E+01 0.24417565503E+01 0.39682308732E+01
 0.27505319985E+01 0.39682338143E+01 0.53338589050E+01 0.66286176270E+01 0.75713582758E+01
 0.79178906497E+01 0.75713052177E+01 0.66285561304E+01 0.53336661765E+01 0.39681550223E+01
 0.27507339653E+01 0.17911462752E+01 0.11053804491E+01 0.65177405775E+00 0.36995002165E+00
 0.20338270088E+00 0.10897405665E+00 0.57148691502E-01 0.29495797284E-01 0.15047570585E-01
 0.76842502805E-02 0.40273094991E-02 0.23768893899E-02 0.18992257069E-02 0.23747691520E-02
 0.40315826079E-02 0.76898356255E-02 0.15061769016E-01 0.29482824256E-01 0.57153061670E-01
 0.10897370916E+00 0.20334743381E+00 0.37009362514E+00 0.65159532237E+00 0.11056089152E+01
 0.17910907215E+01 0.12333621041E+01 0.17910924424E+01 0.24417613818E+01 0.31027783962E+01
 0.36532403924E+01 0.39682483139E+01 0.39682700484E+01 0.36532637570E+01 0.31028922859E+01
 0.24419509641E+01 0.17911462460E+01 0.12330511278E+01 0.80239418656E+00 0.49732391765E+00
 0.29558302201E+00 0.16957174868E+00 0.94427895326E-01 0.51315478366E-01 0.27354645018E-01
 0.14389404159E-01 0.75488955138E-02 0.40315980490E-02 0.23238581399E-02 0.16235898645E-02
 0.16329533517E-02 0.23160210238E-02 0.40303151331E-02 0.75294819381E-02 0.14400428509E-01
 0.27352123067E-01 0.51310169565E-01 0.94465657488E-01 0.16943167715E+00 0.29571782027E+00
 0.49720362681E+00 0.80229228988E+00 0.54971316911E+00 0.80229585287E+00 0.11056008160E+01
 0.14291312788E+01 0.17243519121E+01 0.19334891600E+01 0.20094224421E+01 0.19335097370E+01
 0.17242836410E+01 0.14290108724E+01 0.11053805251E+01 0.80239455963E+00 0.54994576657E+00
 0.35817376901E+00 0.22307695078E+00 0.13369346684E+00 0.77531877098E-01 0.43771050050E-01
 0.24185987726E-01 0.13199439748E-01 0.71850799524E-02 0.40059598048E-02 0.23700125146E-02
 0.16273717023E-02 0.13971327769E-02 0.16268071215E-02 0.23765310972E-02 0.40206669862E-02
 0.71828570090E-02 0.13198374819E-01 0.24195177688E-01 0.43740234389E-01 0.77650784579E-01
 0.13361658330E+00 0.22311326436E+00 0.35832118204E+00 0.24495228641E+00 0.35832015242E+00
 0.49720408759E+00 0.65159846982E+00 0.80226546949E+00 0.92409477366E+00 0.99235197967E+00
 0.99231766837E+00 0.92409305872E+00 0.80234504481E+00 0.65177561306E+00 0.49732377114E+00
 0.35817422183E+00 0.24482342446E+00 0.15974864061E+00 0.10006106971E+00 0.60532875314E-01
 0.35575374230E-01 0.20486873595E-01 0.11675192290E-01 0.67230490446E-02 0.40127586588E-02
 0.26054812657E-02 0.19003049227E-02 0.16302605377E-02 0.16202921120E-02 0.19035038475E-02
 0.25825033795E-02 0.40206840714E-02 0.67134141163E-02 0.11673975022E-01 0.20500230579E-01
 0.35478824948E-01 0.60572529733E-01 0.10005233613E+00 0.15963624671E+00 0.10900489889E+00
 0.15963563815E+00 0.22311363236E+00 0.29572091202E+00 0.37009375692E+00 0.43559806090E+00
 0.48098045542E+00 0.49728087033E+00 0.48100304130E+00 0.43560521981E+00 0.36994911054E+00
 0.29558370132E+00 0.22307662945E+00 0.15974867092E+00 0.10908296663E+00 0.71433371427E-01
 0.45123932017E-01 0.27726067036E-01 0.16740433424E-01 0.10127873022E-01 0.63018585256E-02
 0.42121662688E-02 0.31175598758E-02 0.26038146674E-02 0.23711221891E-02 0.23197780532E-02
 0.23791583735E-02 0.26178299717E-02 0.31191307599E-02 0.42160409756E-02 0.63124746826E-02
 0.10114879911E-01 0.16837164351E-01 0.27695346729E-01 0.45135332754E-01 0.71502416946E-01
 0.48967970806E-01 0.71503941233E-01 0.10005258635E+00 0.13361451968E+00 0.16942714690E+00
 0.20334148070E+00 0.23002433617E+00 0.24475327770E+00 0.24475689364E+00 0.22998942495E+00
 0.20338426527E+00 0.16957131608E+00 0.13369441627E+00 0.10006059559E+00 0.71434136525E-01
 0.48900016097E-01 0.32349577841E-01 0.20890598401E-01 0.13422137208E-01 0.88174429427E-02
 0.61912706041E-02 0.48147690499E-02 0.42141652147E-02 0.40114232557E-02 0.40089096777E-02
 0.40292165888E-02 0.40284466216E-02 0.39838473472E-02 0.40170870074E-02 0.42011311945E-02
 0.48102983796E-02 0.61880523923E-02 0.87322517014E-02 0.13433109023E-01 0.20888230633E-01
 0.32299964593E-01 0.22457824786E-01 0.32297969354E-01 0.45135125128E-01 0.60573490956E-01
 0.77654739886E-01 0.94475721163E-01 0.10898061125E+00 0.11887416437E+00 0.12237716961E+00
 0.11889171274E+00 0.10897472539E+00 0.94427010951E-01 0.77532443662E-01 0.60532157209E-01
 0.45124389673E-01 0.32348270325E-01 0.22511682855E-01 0.15490988555E-01 0.10835898597E-01
 0.80633463553E-02 0.66483427272E-02 0.61896324376E-02 0.63019660325E-02 0.67222198848E-02
 0.71850760694E-02 0.75484387958E-02 0.76822197948E-02 0.75684165755E-02 0.71905739470E-02
 0.67289431528E-02 0.63145729217E-02 0.61939991293E-02 0.67404476756E-02 0.80549083370E-02
 0.10845617833E-01 0.15512037564E-01 0.11673363660E-01 0.15514310353E-01 0.20888430986E-01
 0.27695010094E-01 0.35476561447E-01 0.43731379412E-01 0.51301259686E-01 0.57136742235E-01
 0.60341272846E-01 0.60317829892E-01 0.57148139759E-01 0.51316461282E-01 0.43770883718E-01
 0.35575972895E-01 0.27725903955E-01 0.20891844631E-01 0.15491088618E-01 0.11614905519E-01
 0.92213641086E-02 0.81041212093E-02 0.80633961127E-02 0.88189119892E-02 0.10127781845E-01
 0.11675892919E-01 0.13199306477E-01 0.14390744844E-01 0.15046675806E-01 0.15027353146E-01
 0.14388882461E-01 0.13181319365E-01 0.11669709037E-01 0.10108492298E-01 0.87316717444E-02
 0.80549551088E-02 0.81014421109E-02 0.92108872114E-02 0.86124721424E-02 0.92085210914E-02
 0.10845499198E-01 0.13433205089E-01 0.16838478533E-01 0.20507561344E-01 0.24202194957E-01
 0.27370431380E-01 0.29495415347E-01 0.30272354844E-01 0.29495885101E-01 0.27354525469E-01
 0.24185469028E-01 0.20486873136E-01 0.16740116206E-01 0.13421201276E-01 0.10835488202E-01
 0.92216818764E-02 0.86631456757E-02 0.92216818763E-02 0.10835488202E-01 0.13421201276E-01
 0.16740116205E-01 0.20486873136E-01 0.24185469028E-01 0.27354525469E-01 0.29495885101E-01
 0.30272354844E-01 0.29495415347E-01 0.27370431380E-01 0.24202194957E-01 0.20507561344E-01
 0.16838478533E-01 0.13433205089E-01 0.10845499198E-01 0.92085210915E-02 0.11673363661E-01
 0.92108872113E-02 0.81014421110E-02 0.80549551088E-02 0.87316717444E-02 0.10108492298E-01
 0.11669709037E-01 0.13181319365E-01 0.14388882461E-01 0.15027353146E-01 0.15046675806E-01
 0.14390744844E-01 0.13199306477E-01 0.11675892919E-01 0.10127781845E-01 0.88189119892E-02
 0.80633961128E-02 0.81041212091E-02 0.92213641090E-02 0.11614905520E-01 0.15491088618E-01
 0.20891844631E-01 0.27725903955E-01 0.35575972895E-01 0.43770883718E-01 0.51316461282E-01
 0.57148139759E-01 0.60317829892E-01 0.60341272846E-01 0.57136742235E-01 0.51301259686E-01
 0.43731379412E-01 0.35476561447E-01 0.27695010094E-01 0.20888430986E-01 0.15514310353E-01
 0.22457824786E-01 0.15512037564E-01 0.10845617833E-01 0.80549083370E-02 0.67404476756E-02
 0.61939991292E-02 0.63145729217E-02 0.67289431529E-02 0.71905739470E-02 0.75684165755E-02
 0.76822197948E-02 0.75484387959E-02 0.71850760694E-02 0.67222198848E-02 0.63019660325E-02
 0.61896324376E-02 0.66483427273E-02 0.80633463551E-02 0.10835898597E-01 0.15490988555E-01
 0.22511682855E-01 0.32348270325E-01 0.45124389673E-01 0.60532157209E-01 0.77532443662E-01
 0.94427010951E-01 0.10897472539E+00 0.11889171274E+00 0.12237716961E+00 0.11887416437E+00
 0.10898061125E+00 0.94475721163E-01 0.77654739886E-01 0.60573490956E-01 0.45135125128E-01
 0.32297969354E-01 0.48967970806E-01 0.32299964593E-01 0.20888230634E-01 0.13433109023E-01
 0.87322517015E-02 0.61880523923E-02 0.48102983796E-02 0.42011311946E-02 0.40170870073E-02
 0.39838473472E-02 0.40284466217E-02 0.40292165889E-02 0.40089096777E-02 0.40114232557E-02
 0.42141652147E-02 0.48147690499E-02 0.61912706041E-02 0.88174429427E-02 0.13422137208E-01
 0.20890598401E-01 0.32349577841E-01 0.48900016097E-01 0.71434136525E-01 0.10006059559E+00
 0.13369441627E+00 0.16957131608E+00 0.20338426527E+00 0.22998942495E+00 0.24475689364E+00
 0.24475327770E+00 0.23002433617E+00 0.20334148070E+00 0.16942714690E+00 0.13361451968E+00
 0.10005258635E+00 0.71503941233E-01 0.10900489889E+00 0.71502416946E-01 0.45135332754E-01
 0.27695346729E-01 0.16837164351E-01 0.10114879911E-01 0.63124746826E-02 0.42160409757E-02
 0.31191307599E-02 0.26178299717E-02 0.23791583735E-02 0.23197780532E-02 0.23711221891E-02
 0.26038146674E-02 0.31175598758E-02 0.42121662688E-02 0.63018585255E-02 0.10127873022E-01
 0.16740433424E-01 0.27726067035E-01 0.45123932017E-01 0.71433371427E-01 0.10908296663E+00
 0.15974867092E+00 0.22307662945E+00 0.29558370132E+00 0.36994911054E+00 0.43560521981E+00
 0.48100304130E+00 0.49728087033E+00 0.48098045542E+00 0.43559806090E+00 0.37009375692E+00
 0.29572091202E+00 0.22311363236E+00 0.15963563814E+00 0.24495228641E+00 0.15963624671E+00
 0.10005233613E+00 0.60572529733E-01 0.35478824948E-01 0.20500230579E-01 0.11673975022E-01
 0.67134141163E-02 0.40206840713E-02 0.25825033795E-02 0.19035038475E-02 0.16202921119E-02
 0.16302605377E-02 0.19003049227E-02 0.26054812657E-02 0.40127586588E-02 0.67230490444E-02
 0.11675192290E-01 0.20486873595E-01 0.35575374230E-01 0.60532875314E-01 0.10006106971E+00
 0.15974864061E+00 0.24482342446E+00 0.35817422183E+00 0.49732377114E+00 0.65177561306E+00
 0.80234504481E+00 0.92409305872E+00 0.99231766837E+00 0.99235197967E+00 0.92409477366E+00
 0.80226546949E+00 0.65159846982E+00 0.49720408759E+00 0.35832015242E+00 0.54971316911E+00
 0.35832118204E+00 0.22311326436E+00 0.13361658330E+00 0.77650784579E-01 0.43740234389E-01
 0.24195177688E-01 0.13198374819E-01 0.71828570090E-02 0.40206669862E-02 0.23765310972E-02
 0.16268071215E-02 0.13971327769E-02 0.16273717023E-02 0.23700125146E-02 0.40059598048E-02
 0.71850799522E-02 0.13199439748E-01 0.24185987726E-01 0.43771050050E-01 0.77531877099E-01
 0.13369346684E+00 0.22307695078E+00 0.35817376901E+00 0.54994576657E+00 0.80239455963E+00
 0.11053805251E+01 0.14290108724E+01 0.17242836410E+01 0.19335097370E+01 0.20094224421E+01
 0.19334891600E+01 0.17243519121E+01 0.14291312788E+01 0.11056008160E+01 0.80229585287E+00
 0.12333621041E+01 0.80229228987E+00 0.49720362680E+00 0.29571782027E+00 0.16943167715E+00
 0.94465657488E-01 0.51310169565E-01 0.27352123067E-01 0.14400428509E-01 0.75294819381E-02
 0.40303151331E-02 0.23160210238E-02 0.16329533517E-02 0.16235898645E-02 0.23238581400E-02
 0.40315980490E-02 0.75488955138E-02 0.14389404159E-01 0.27354645018E-01 0.51315478366E-01
 0.94427895326E-01 0.16957174868E+00 0.29558302201E+00 0.49732391765E+00 0.80239418656E+00
 0.12330511278E+01 0.17911462460E+01 0.24419509641E+01 0.31028922859E+01 0.36532637570E+01
 0.39682700484E+01 0.39682483139E+01 0.36532403924E+01 0.31027783962E+01 0.24417613818E+01
 0.17910924424E+01 0.27505319985E+01 0.17910907215E+01 0.11056089152E+01 0.65159532237E+00
 0.37009362514E+00 0.20334743381E+00 0.10897370916E+00 0.57153061670E-01 0.29482824256E-01
 0.15061769016E-01 0.76898356255E-02 0.40315826079E-02 0.23747691520E-02 0.18992257069E-02
 0.23768893899E-02 0.40273094991E-02 0.76842502805E-02 0.15047570585E-01 0.29495797284E-01
 0.57148691502E-01 0.10897405665E+00 0.20338270088E+00 0.36995002165E+00 0.65177405775E+00
 0.11053804491E+01 0.17911462752E+01 0.27507339653E+01 0.39681550223E+01 0.53336661765E+01
 0.66285561304E+01 0.75713052177E+01 0.79178906497E+01 0.75713582758E+01 0.66286176270E+01
 0.53338589050E+01 0.39682338143E+01 0.60729820051E+01 0.39682308732E+01 0.24417565503E+01
 0.14291230772E+01 0.80227542739E+00 0.43557765101E+00 0.23004629483E+00 0.11884176364E+00
 0.60369612613E-01 0.30225414080E-01 0.15059276147E-01 0.75273706105E-02 0.40157939477E-02
 0.25789038486E-02 0.26139364496E-02 0.39809343645E-02 0.75667366677E-02 0.15029077358E-01
 0.30273157554E-01 0.60315622479E-01 0.11889257506E+00 0.22999036900E+00 0.43560342023E+00
 0.80234484499E+00 0.14290102633E+01 0.24419501980E+01 0.39681491282E+01 0.60728534977E+01
 0.86656173336E+01 0.11420889610E+02 0.13793611006E+02 0.15180589030E+02 0.15180551229E+02
 0.13793545620E+02 0.11420727642E+02 0.86655275302E+01 0.13153015136E+02 0.86655543965E+01
 0.53338398134E+01 0.31027920477E+01 0.17243311178E+01 0.92412425167E+00 0.48094774702E+00
 0.24479369518E+00 0.12233891908E+00 0.60370295633E-01 0.29490606626E-01 0.14397548547E-01
 0.71774802570E-02 0.40127288840E-02 0.31132275919E-02 0.40078384283E-02 0.71836112639E-02
 0.14382967431E-01 0.29500419326E-01 0.60344740556E-01 0.12237513085E+00 0.24475393186E+00
 0.48100564093E+00 0.92408901132E+00 0.17242856852E+01 0.31028839581E+01 0.53336603339E+01
 0.86656316158E+01 0.13153089731E+02 0.18440237424E+02 0.23642840489E+02 0.27521305045E+02
 0.28963455124E+02 0.27521343254E+02 0.23643011492E+02 0.18440302338E+02 0.27521410029E+02
 0.18440270281E+02 0.11420731601E+02 0.66286220518E+01 0.36532403857E+01 0.19334616447E+01
 0.99237880568E+00 0.49724253689E+00 0.24478786123E+00 0.11885201354E+00 0.57153736603E-01
 0.27335938944E-01 0.13183634486E-01 0.67068244969E-02 0.42163878156E-02 0.42015682318E-02
 0.67247208002E-02 0.13168190822E-01 0.27357510529E-01 0.57134980415E-01 0.11888319750E+00
 0.24474946351E+00 0.49728158778E+00 0.99231327212E+00 0.19335134809E+01 0.36532469859E+01
 0.66285682084E+01 0.11420897587E+02 0.18440214239E+02 0.27521347250E+02 0.37504732642E+02
 0.46263571013E+02 0.51423076153E+02 0.51423088900E+02 0.46263419345E+02 0.37504663023E+02
 0.54222423742E+02 0.37504680274E+02 0.23642973031E+02 0.13793577299E+02 0.75713126841E+01
 0.39682987069E+01 0.20093646686E+01 0.99237962981E+00 0.48094547568E+00 0.23005236075E+00
 0.10896882184E+00 0.51298042847E-01 0.24196009368E-01 0.11686056209E-01 0.63308982677E-02
 0.48277330963E-02 0.63322503743E-02 0.11678937850E-01 0.24201356477E-01 0.51288453865E-01
 0.10897874092E+00 0.23002649355E+00 0.48098072189E+00 0.99234832532E+00 0.20094230971E+01
 0.39682558385E+01 0.75713201425E+01 0.13793591675E+02 0.23642821420E+02 0.37504726479E+02
 0.54222465678E+02 0.70741273792E+02 0.83013489375E+02 0.87572242723E+02 0.83013589814E+02
 0.70741327674E+02 0.97515463112E+02 0.70741244239E+02 0.46263392628E+02 0.27521288120E+02
 0.15180564203E+02 0.79178593246E+01 0.39682994922E+01 0.19334601433E+01 0.92412338617E+00
 0.43557824341E+00 0.20334770903E+00 0.94467715216E-01 0.43735660424E-01 0.20497848842E-01
 0.10109986599E-01 0.61885117703E-02 0.61903305591E-02 0.10109421337E-01 0.20503584311E-01
 0.43731260795E-01 0.94471860263E-01 0.20334746424E+00 0.43559317523E+00 0.92409524472E+00
 0.19334847514E+01 0.39682418728E+01 0.79178931911E+01 0.15180566523E+02 0.27521298498E+02
 0.46263520470E+02 0.70741227193E+02 0.97515411049E+02 0.12192051066E+03 0.13797962749E+03
 0.13797952204E+03 0.12192049652E+03 0.17342088755E+03 0.12192048059E+03 0.83013559637E+02
 0.51422994947E+02 0.28963474172E+02 0.15180564625E+02 0.75713003680E+01 0.36532486042E+01
 0.17243260112E+01 0.80227128989E+00 0.37009992141E+00 0.16944158692E+00 0.77629704770E-01
 0.35461651741E-01 0.16826124279E-01 0.87368991094E-02 0.67445287020E-02 0.87352492012E-02
 0.16825983906E-01 0.35457393491E-01 0.77635808159E-01 0.16943434014E+00 0.37010118097E+00
 0.80226029486E+00 0.17243477187E+01 0.36532368054E+01 0.75713536402E+01 0.15180528504E+02
 0.28963457581E+02 0.51422986922E+02 0.83013424588E+02 0.12192050526E+03 0.17342096431E+03
 0.24606160714E+03 0.29009743113E+03 0.24606162673E+03 0.58852915635E+03 0.24606155861E+03
 0.13797950237E+03 0.87572132792E+02 0.51422985787E+02 0.27521299375E+02 0.13793566409E+02
 0.66286085589E+01 0.31028000539E+01 0.14291112857E+01 0.65160439744E+00 0.29572564351E+00
 0.13359669198E+00 0.60551159024E-01 0.27693561333E-01 0.13449068810E-01 0.80773245676E-02
 0.80791861722E-02 0.13449556793E-01 0.27694673080E-01 0.60551413150E-01 0.13359550143E+00
 0.29572920075E+00 0.65160444131E+00 0.14291222184E+01 0.31027750128E+01 0.66286137500E+01
 0.13793525300E+02 0.27521343475E+02 0.51422993270E+02 0.87572165344E+02 0.13797960552E+03
 0.24606152362E+03 0.58852909046E+03 0.11552767627E+04 0.11552768443E+04 0.42661016386E+04
 0.11552760219E+04 0.29009727983E+03 0.13797947916E+03 0.83013556051E+02 0.46263376939E+02
 0.23642981471E+02 0.11420718864E+02 0.53338321875E+01 0.24417562419E+01 0.11056050136E+01
 0.49720940244E+00 0.22310638056E+00 0.10004865332E+00 0.45133866088E-01 0.20895225642E-01
 0.10853392113E-01 0.81110232509E-02 0.10852164236E-01 0.20894232689E-01 0.45135555461E-01
 0.10004556984E+00 0.22310898255E+00 0.49720734073E+00 0.11056004671E+01 0.24417533487E+01
 0.53338566358E+01 0.11420712644E+02 0.23643002265E+02 0.46263352690E+02 0.83013521486E+02
 0.13797947583E+03 0.29009719515E+03 0.11552760399E+04 0.42661017965E+04 0.71007986167E+04
 0.21585126790E+05 0.71007950930E+04 0.11552755622E+04 0.24606138342E+03 0.12192043851E+03
 0.70741238591E+02 0.37504646195E+02 0.18440270724E+02 0.86655434032E+01 0.39682249193E+01
 0.17910938205E+01 0.80228052704E+00 0.35832604468E+00 0.15965025636E+00 0.71504679025E-01
 0.32285587587E-01 0.15490591287E-01 0.91877106297E-02 0.91870408687E-02 0.15492640305E-01
 0.32283902388E-01 0.71505434024E-01 0.15965199578E+00 0.35832220070E+00 0.80228605286E+00
 0.17910935013E+01 0.39682253694E+01 0.86655229570E+01 0.18440291919E+02 0.37504612232E+02
 0.70741285393E+02 0.12192043934E+03 0.24606137828E+03 0.11552756519E+04 0.71007949920E+04
 0.21585126722E+05 0.22295865043E+05 0.12555163408E+05 0.27203405542E+04 0.45281986609E+03
 0.15996107016E+03 0.92650509125E+02 0.51561375881E+02 0.26224280874E+02 0.12575220915E+02
 0.58276193233E+01 0.26483408609E+01 0.11912643226E+01 0.53247628892E+00 0.23777136929E+00
 0.10606864027E+00 0.47729221676E-01 0.21982891649E-01 0.11439895654E-01 0.84892507293E-02
 0.11440192005E-01 0.21981971755E-01 0.47730570478E-01 0.10606675227E+00 0.23777379662E+00
 0.53247224761E+00 0.11912745969E+01 0.26483311671E+01 0.58276021814E+01 0.12575193122E+02
 0.26224258721E+02 0.51561357087E+02 0.92650436235E+02 0.15996106971E+03 0.45281979503E+03
 0.27203405632E+04 0.12555163526E+05 0.92194072787E+04 0.92194072958E+04 0.33334151901E+04
 0.68338479469E+03 0.20178827081E+03 0.11179908539E+03 0.65269518573E+02 0.34668168964E+02
 0.17125474824E+02 0.80935388631E+01 0.37274701667E+01 0.16912648403E+01 0.76099067532E+00
 0.34128845434E+00 0.15257306430E+00 0.68561669661E-01 0.31080390331E-01 0.14980865520E-01
 0.89270602448E-02 0.89253050146E-02 0.14984407065E-01 0.31076801368E-01 0.68565243746E-01
 0.15257053304E+00 0.34129223661E+00 0.76098220696E+00 0.16912710466E+01 0.37274730487E+01
 0.80935815821E+01 0.17125479635E+02 0.34668217494E+02 0.65269537558E+02 0.11179910827E+03
 0.20178833642E+03 0.68338475494E+03 0.33334151886E+04 0.16669954311E+04 0.25702241864E+04
 0.16669955318E+04 0.57581099403E+03 0.21256180123E+03 0.12139045698E+03 0.74318436425E+02
 0.41480029566E+02 0.21311548013E+02 0.10371281027E+02 0.48813429035E+01 0.22510173041E+01
 0.10258794998E+01 0.46413777628E+00 0.20926336934E+00 0.94341071971E-01 0.42673658709E-01
 0.19872363659E-01 0.10301409470E-01 0.77637565428E-02 0.10299128024E-01 0.19873415959E-01
 0.42671960117E-01 0.94342927113E-01 0.20925805774E+00 0.46414853339E+00 0.10258695065E+01
 0.22510217175E+01 0.48813097698E+01 0.10371264878E+02 0.21311510792E+02 0.41479986603E+02
 0.74318466696E+02 0.12139036797E+03 0.21256185171E+03 0.57581101986E+03 0.31040285568E+03
 0.49160052995E+03 0.49160041744E+03 0.31040277774E+03 0.17939495200E+03 0.11749365551E+03
 0.76072078654E+02 0.44736505989E+02 0.24079196445E+02 0.12174411839E+02 0.59070356555E+01
 0.27907859177E+01 0.12964216842E+01 0.59551947983E+00 0.27205366811E+00 0.12371071630E+00
 0.56370443869E-01 0.25906337705E-01 0.12599323735E-01 0.75730725520E-02 0.75796973818E-02
 0.12594637384E-01 0.25913522080E-01 0.56363272273E-01 0.12372017275E+00 0.27204108212E+00
 0.59553001033E+00 0.12964174512E+01 0.27908157048E+01 0.59070380169E+01 0.12174465664E+02
 0.24079226785E+02 0.44736493473E+02 0.76072127333E+02 0.11749361175E+03 0.17939492585E+03
 0.13619497246E+03 0.17035787945E+03 0.18731639774E+03 0.17035796140E+03 0.13619505687E+03
 0.10185009740E+03 0.69994515720E+02 0.43431383633E+02 0.24616311406E+02 0.13029482790E+02
 0.65708035685E+01 0.32051151529E+01 0.15285289513E+01 0.71760661409E+00 0.33384129662E+00
 0.15392244330E+00 0.71048297919E-01 0.32653082056E-01 0.15595980549E-01 0.81139793348E-02
 0.62856079988E-02 0.81145216714E-02 0.15591420479E-01 0.32655883516E-01 0.71042952863E-01
 0.15393272299E+00 0.33383048972E+00 0.71761396327E+00 0.15284937294E+01 0.32051219681E+01
 0.65707590746E+01 0.13029436030E+02 0.24616342383E+02 0.43431305241E+02 0.69994610498E+02
 0.10185011542E+03 0.79705670222E+02 0.98782522644E+02 0.11024697736E+03 0.11024701339E+03
 0.98782437989E+02 0.79705577662E+02 0.57907562269E+02 0.37973915065E+02 0.22755848781E+02
 0.12687240191E+02 0.66984872661E+01 0.33985667471E+01 0.16753270964E+01 0.80904511703E+00
 0.38519735070E+00 0.18130532298E+00 0.84924146097E-01 0.39570432793E-01 0.18690612817E-01
 0.92630222521E-02 0.57139263927E-02 0.57014418018E-02 0.92773423368E-02 0.18679810251E-01
 0.39586202125E-01 0.84902772075E-01 0.18132502252E+00 0.38518318036E+00 0.80908461774E+00
 0.16753200493E+01 0.33986045130E+01 0.66985260254E+01 0.12687215796E+02 0.22755928239E+02
 0.37973832756E+02 0.57907502162E+02 0.43146676016E+02 0.56202792212E+02 0.65924350916E+02
 0.69530089332E+02 0.65924313423E+02 0.56202873773E+02 0.43146735388E+02 0.29984260483E+02
 0.19063611655E+02 0.11249410017E+02 0.62545161875E+01 0.33213959548E+01 0.17032555116E+01
 0.85103019904E+00 0.41707552242E+00 0.20130273473E+00 0.96293563378E-01 0.45644187919E-01
 0.21739153582E-01 0.10500797379E-01 0.57549529635E-02 0.43448797957E-02 0.57521561298E-02
 0.10502608541E-01 0.21729389284E-01 0.45657244866E-01 0.96284299677E-01 0.20130910982E+00
 0.41704106758E+00 0.85103329986E+00 0.17032202618E+01 0.33213567856E+01 0.62545685446E+01
 0.11249295519E+02 0.19063712248E+02 0.29984301953E+02 0.21511654288E+02 0.29131987173E+02
 0.35812015041E+02 0.39750990463E+02 0.39750995865E+02 0.35812064189E+02 0.29131948902E+02
 0.21511560497E+02 0.14547395966E+02 0.91152872929E+01 0.53597005096E+01 0.29937870988E+01
 0.16057468326E+01 0.83432938849E+00 0.42309356828E+00 0.21038482264E+00 0.10321822390E+00
 0.50024261646E-01 0.24197509530E-01 0.11733210381E-01 0.60494242899E-02 0.37873022466E-02
 0.38111377825E-02 0.60272245400E-02 0.11761275460E-01 0.24170341469E-01 0.50048642899E-01
 0.10319322809E+00 0.21043564792E+00 0.42308028561E+00 0.83436769064E+00 0.16057941683E+01
 0.29937091447E+01 0.53598165415E+01 0.91152055158E+01 0.14547337697E+02 0.10193136649E+02
 0.14160901185E+02 0.18038363111E+02 0.20917532850E+02 0.21986414057E+02 0.20917507397E+02
 0.18038261314E+02 0.14160965722E+02 0.10193234553E+02 0.67915391128E+01 0.42333977938E+01
 0.24956087040E+01 0.14053498499E+01 0.76271839204E+00 0.40198669145E+00 0.20679453161E+00
 0.10452591454E+00 0.51992376921E-01 0.25672687067E-01 0.12609941391E-01 0.63922312740E-02
 0.35778616382E-02 0.28262505929E-02 0.35790188209E-02 0.63852211116E-02 0.12616412591E-01
 0.25665607024E-01 0.51999381824E-01 0.10449968675E+00 0.20677777929E+00 0.40198190627E+00
 0.76263284076E+00 0.14054682922E+01 0.24954707208E+01 0.42335085088E+01 0.67915734106E+01
 0.46911034803E+01 0.66252579062E+01 0.86609110521E+01 0.10401322761E+02 0.11414556637E+02
 0.11414555663E+02 0.10401435026E+02 0.86609716237E+01 0.66252265041E+01 0.46909074059E+01