unknown system                          
   1.00000000000000     
     2.478974    0.000000    0.000000
    -1.239487    2.146854    0.000000
     0.000000    1.431236    4.048147
   Ni
     2
Direct
  0.500000  0.000000  0.500000
  0.000000  0.000000  0.000000
 
   36   36   64
 0.87642756524E+03 0.18351712424E+04 0.40118966660E+03 0.62877605419E+03 0.63728107578E+03
 0.46344882317E+03 0.29255864806E+03 0.17509497374E+03 0.10391900144E+03 0.62734031961E+02
 0.39153164787E+02 0.25507120838E+02 0.17486340495E+02 0.12497011939E+02 0.96477846090E+01
 0.78370638918E+01 0.67225987961E+01 0.61451368420E+01 0.59491704035E+01 0.61451368420E+01
 0.67225987961E+01 0.78370638918E+01 0.96477846090E+01 0.12497011939E+02 0.17486340495E+02
 0.25507120838E+02 0.39153164787E+02 0.62734031961E+02 0.10391900144E+03 0.17509497374E+03
 0.29255864806E+03 0.46344882317E+03 0.63728107578E+03 0.62877605419E+03 0.40118966660E+03
 0.18351712424E+04 0.18351705195E+04 0.18351712661E+04 0.46885738196E+03 0.54501305081E+03
 0.67026198278E+03 0.54266884482E+03 0.36061108881E+03 0.22043369057E+03 0.13131246296E+03
 0.78708463787E+02 0.48412804665E+02 0.30936500031E+02 0.20729878885E+02 0.14231613395E+02
 0.10852738752E+02 0.85814705708E+01 0.71708768292E+01 0.63531906927E+01 0.59786319237E+01
 0.59790121345E+01 0.63528088578E+01 0.71712414176E+01 0.85810847576E+01 0.10853323881E+02
 0.14230691298E+02 0.20731134716E+02 0.30935917703E+02 0.48413467433E+02 0.78707307827E+02
 0.13131360192E+03 0.22043357824E+03 0.36061115528E+03 0.54267219663E+03 0.67025784242E+03
 0.54501368867E+03 0.46885677111E+03 0.40118660535E+03 0.46885510142E+03 0.40118509844E+03
 0.54501138812E+03 0.67196347918E+03 0.58285977500E+03 0.40914191539E+03 0.25869003412E+03
 0.15677743833E+03 0.94460585615E+02 0.57881023952E+02 0.36619522903E+02 0.24157122837E+02
 0.16726574018E+02 0.12102848082E+02 0.93901287486E+01 0.76737402433E+01 0.66067420085E+01
 0.60568072570E+01 0.58656460292E+01 0.60568134355E+01 0.66067156033E+01 0.76738318313E+01
 0.93898533276E+01 0.12103263379E+02 0.16726196396E+02 0.24156469071E+02 0.36619292775E+02
 0.57881766996E+02 0.94460319552E+02 0.15677675013E+03 0.25868982563E+03 0.40913859904E+03
 0.58286089355E+03 0.67196625547E+03 0.54501169102E+03 0.62877269500E+03 0.54500929510E+03
 0.54501015301E+03 0.62877432995E+03 0.67026021157E+03 0.58286129127E+03 0.42663123203E+03
 0.28073272947E+03 0.17509009057E+03 0.10734473333E+03 0.66277747334E+02 0.41930769356E+02
 0.27478878212E+02 0.18837340693E+02 0.13291578135E+02 0.10227649007E+02 0.81903104978E+01
 0.69069348664E+01 0.61623211290E+01 0.58173627580E+01 0.58169667957E+01 0.61627695959E+01
 0.69064740992E+01 0.81908889918E+01 0.10226909442E+02 0.13292459389E+02 0.18837084037E+02
 0.27480549395E+02 0.41929414800E+02 0.66278543320E+02 0.10734441141E+03 0.17509106428E+03
 0.28073636383E+03 0.42662951427E+03 0.58286212602E+03 0.67025674290E+03 0.63728210168E+03
 0.67026131192E+03 0.67196268162E+03 0.67026007799E+03 0.63727733618E+03 0.54267539404E+03
 0.40914037375E+03 0.28073457155E+03 0.18178528299E+03 0.11465080172E+03 0.72128579501E+02
 0.46097377305E+02 0.30303785831E+02 0.20708404391E+02 0.14753997765E+02 0.11015612813E+02
 0.86973105079E+01 0.72169281178E+01 0.62963269269E+01 0.58085788853E+01 0.56453880388E+01
 0.58084650979E+01 0.62964155141E+01 0.72166313385E+01 0.86978933109E+01 0.11014911327E+02
 0.14753924779E+02 0.20707357788E+02 0.30303911374E+02 0.46096905592E+02 0.72128765070E+02
 0.11465063246E+03 0.18178095655E+03 0.28073638945E+03 0.40913965466E+03 0.54267515377E+03
 0.46345161227E+03 0.54267029324E+03 0.58286038722E+03 0.58286063848E+03 0.54267455574E+03
 0.46345265781E+03 0.36061217369E+03 0.25868860824E+03 0.17509457301E+03 0.11464650620E+03
 0.74238979702E+02 0.48398806359E+02 0.32216130829E+02 0.22121577190E+02 0.15777090736E+02
 0.11678198235E+02 0.91628955620E+01 0.75075937479E+01 0.64451460219E+01 0.58238689571E+01
 0.55314509021E+01 0.55321695147E+01 0.58232628737E+01 0.64460305946E+01 0.75065161136E+01
 0.91639033810E+01 0.11677925389E+02 0.15778765011E+02 0.22120524214E+02 0.32218264380E+02
 0.48397944736E+02 0.74239261390E+02 0.11465031275E+03 0.17509249463E+03 0.25869019496E+03
 0.36061203935E+03 0.29255834983E+03 0.36061063068E+03 0.40913960719E+03 0.42662735462E+03
 0.40913692482E+03 0.36061015996E+03 0.29255665253E+03 0.22043386971E+03 0.15678069420E+03
 0.10733932084E+03 0.72132572613E+02 0.48397674821E+02 0.32892418249E+02 0.22889214820E+02
 0.16450350739E+02 0.12160025708E+02 0.95327411712E+01 0.77632442796E+01 0.65849914729E+01
 0.58641534345E+01 0.54551744838E+01 0.53351012401E+01 0.54552177337E+01 0.58636757636E+01
 0.65856046140E+01 0.77625820814E+01 0.95329837890E+01 0.12158245002E+02 0.16451198723E+02
 0.22887597635E+02 0.32891773834E+02 0.48398263383E+02 0.72128163890E+02 0.10734316629E+03
 0.15677829099E+03 0.22043329267E+03 0.17509476249E+03 0.22043334595E+03 0.25869010862E+03
 0.28073172931E+03 0.28073354467E+03 0.25868846307E+03 0.22043446293E+03 0.17509616728E+03
 0.13131354890E+03 0.94457122244E+02 0.66283299324E+02 0.46093207221E+02 0.32217526602E+02
 0.22887601943E+02 0.16687167020E+02 0.12411395285E+02 0.97749584852E+01 0.79458362493E+01
 0.67040984127E+01 0.59050830349E+01 0.54175170124E+01 0.51920535148E+01 0.51906484720E+01
 0.54191987752E+01 0.59034423004E+01 0.67058739444E+01 0.79445737063E+01 0.97774281118E+01
 0.12410200102E+02 0.16689318478E+02 0.22887698347E+02 0.32218040170E+02 0.46097800620E+02
 0.66278079492E+02 0.94459274500E+02 0.13131468845E+03 0.10392055158E+03 0.13131321236E+03
 0.15677860601E+03 0.17509247172E+03 0.18178791690E+03 0.17509556136E+03 0.15678015046E+03
 0.13131248329E+03 0.10391874851E+03 0.78707964751E+02 0.57884414211E+02 0.41922352094E+02
 0.30311867796E+02 0.22118897379E+02 0.16452471739E+02 0.12410734808E+02 0.98594410099E+01
 0.80446857488E+01 0.67801119506E+01 0.59403476564E+01 0.53951118444E+01 0.50978101767E+01
 0.49971840847E+01 0.50975054521E+01 0.53955350487E+01 0.59396166897E+01 0.67801333634E+01
 0.80434546110E+01 0.98595537210E+01 0.12409434035E+02 0.16450904035E+02 0.22120614367E+02
 0.30303630822E+02 0.41930418089E+02 0.57881853196E+02 0.78706987290E+02 0.62733100224E+02
 0.78709170839E+02 0.94460573801E+02 0.10734399704E+03 0.11464982917E+03 0.11464599241E+03
 0.10733943620E+03 0.94458840266E+02 0.78709420636E+02 0.62737661570E+02 0.48409781768E+02
 0.36619345566E+02 0.27486441333E+02 0.20698415229E+02 0.15781106342E+02 0.12156770253E+02
 0.97764210861E+01 0.80445611998E+01 0.68080162038E+01 0.59600233407E+01 0.53866561810E+01
 0.50396314699E+01 0.48708066628E+01 0.48728383286E+01 0.50375085024E+01 0.53888375421E+01
 0.59589234961E+01 0.68104718867E+01 0.80433982748E+01 0.97783301978E+01 0.12158685734E+02
 0.15778783186E+02 0.20707015870E+02 0.27479727915E+02 0.36619398498E+02 0.48413121748E+02
 0.39153484262E+02 0.48412117440E+02 0.57881448130E+02 0.66278557925E+02 0.72129449625E+02
 0.74240238115E+02 0.72134382071E+02 0.66284537024E+02 0.57884029213E+02 0.48409314640E+02
 0.39148077158E+02 0.30940824756E+02 0.24157143222E+02 0.18828610302E+02 0.14765208229E+02
 0.11672531105E+02 0.95384194235E+01 0.79440329982E+01 0.67824490815E+01 0.59590406927E+01
 0.53845416767E+01 0.50117368638E+01 0.47984125234E+01 0.47314600727E+01 0.47986178855E+01
 0.50117416633E+01 0.53833841631E+01 0.59585873256E+01 0.67810564711E+01 0.79451080690E+01
 0.95330810356E+01 0.11677984614E+02 0.14753822311E+02 0.18837254695E+02 0.24156224571E+02
 0.30936677022E+02 0.25507576922E+02 0.30937160411E+02 0.36619105664E+02 0.41930665726E+02
 0.46097263245E+02 0.48398520154E+02 0.48396721848E+02 0.46091928230E+02 0.41921664535E+02
 0.36619200755E+02 0.30940788405E+02 0.25517062621E+02 0.20717967385E+02 0.16732632102E+02
 0.13298438496E+02 0.11006415054E+02 0.91691533373E+01 0.77561055727E+01 0.67066819850E+01
 0.59378071925E+01 0.53883752781E+01 0.50106719632E+01 0.47754123593E+01 0.46621558869E+01
 0.46619866200E+01 0.47751317654E+01 0.50119522106E+01 0.53888165039E+01 0.59398317462E+01
 0.67051524558E+01 0.77617731199E+01 0.91641096931E+01 0.11016294685E+02 0.13293556058E+02
 0.16726606600E+02 0.20730502297E+02 0.17484798111E+02 0.20729412529E+02 0.24157230925E+02
 0.27478542075E+02 0.30303873059E+02 0.32216007263E+02 0.32892725213E+02 0.32218003068E+02
 0.30312255395E+02 0.27486492649E+02 0.24157416920E+02 0.20717968648E+02 0.17482111143E+02
 0.14244512240E+02 0.12091061133E+02 0.10227700871E+02 0.87036760843E+01 0.75035752051E+01
 0.65894987582E+01 0.59013860174E+01 0.53974159776E+01 0.50377934228E+01 0.47997849826E+01
 0.46623321462E+01 0.46189769045E+01 0.46626553342E+01 0.47986930339E+01 0.50371487416E+01
 0.53953331603E+01 0.59021730550E+01 0.65849038855E+01 0.75063986801E+01 0.86976172757E+01
 0.10226885488E+02 0.12103284063E+02 0.14230318763E+02 0.12497634492E+02 0.14231084838E+02
 0.16726799338E+02 0.18837228670E+02 0.20708001415E+02 0.22121806947E+02 0.22889075800E+02
 0.22887436436E+02 0.22118624155E+02 0.20698606175E+02 0.18828454157E+02 0.16732575898E+02
 0.14244513789E+02 0.12490489328E+02 0.10846560190E+02 0.94008643743E+01 0.81868122311E+01
 0.72120875905E+01 0.64467955172E+01 0.58599909681E+01 0.54174229581E+01 0.50955860399E+01
 0.48710801004E+01 0.47308819330E+01 0.46621065930E+01 0.46625801881E+01 0.47312871627E+01
 0.48724094789E+01 0.50970284397E+01 0.54179767375E+01 0.58634233210E+01 0.64459357935E+01
 0.72157213632E+01 0.81894352499E+01 0.93895749939E+01 0.10853939372E+02 0.96493082975E+01
 0.10853457215E+02 0.12103049368E+02 0.13292807308E+02 0.14754091842E+02 0.15776766691E+02
 0.16450309595E+02 0.16687366855E+02 0.16452789759E+02 0.15780933623E+02 0.14765289178E+02
 0.13298493197E+02 0.12091085342E+02 0.10846552155E+02 0.96583742767E+01 0.85843921015E+01
 0.76652637510E+01 0.69062107182E+01 0.62985913164E+01 0.58221384674E+01 0.54595724411E+01
 0.51899463399E+01 0.49988756096E+01 0.48711967505E+01 0.47996183753E+01 0.47758110634E+01
 0.47983583641E+01 0.48703674004E+01 0.49968644058E+01 0.51895595764E+01 0.54555315350E+01
 0.58228991890E+01 0.62947878768E+01 0.69049540274E+01 0.76733963784E+01 0.85821193492E+01
 0.78384272852E+01 0.85825248175E+01 0.93896275052E+01 0.10227621450E+02 0.11016764633E+02
 0.11678589972E+02 0.12160289560E+02 0.12410895166E+02 0.12410568463E+02 0.12156908690E+02
 0.11672478996E+02 0.11006405993E+02 0.10227635689E+02 0.94009149481E+01 0.85843436620E+01
 0.78316531395E+01 0.71702241520E+01 0.66140760722E+01 0.61605055568E+01 0.58041646972E+01
 0.55316130596E+01 0.53318010007E+01 0.51898091727E+01 0.50957052086E+01 0.50375317841E+01
 0.50108852166E+01 0.50118928777E+01 0.50393289064E+01 0.50972582773E+01 0.51910161254E+01
 0.53353842709E+01 0.55320786872E+01 0.58072581659E+01 0.61617054844E+01 0.66064500890E+01
 0.71717876259E+01 0.67227246443E+01 0.71714155520E+01 0.76733831478E+01 0.81889313952E+01
 0.86971609953E+01 0.91628363834E+01 0.95330563049E+01 0.97757142664E+01 0.98591829926E+01
 0.97765104706E+01 0.95383504295E+01 0.91692696574E+01 0.87036423589E+01 0.81868798989E+01
 0.76652021292E+01 0.71703433754E+01 0.67290660428E+01 0.63531765494E+01 0.60501264828E+01
 0.58164717257E+01 0.56475649017E+01 0.55317463515E+01 0.54595368513E+01 0.54175031652E+01
 0.53974137408E+01 0.53883276867E+01 0.53848844720E+01 0.53865048866E+01 0.53948725883E+01
 0.54164291617E+01 0.54554048403E+01 0.55311305833E+01 0.56439526189E+01 0.58162669964E+01
 0.60567304480E+01 0.63527978834E+01 0.61447335253E+01 0.63531483971E+01 0.66064634513E+01
 0.69053906916E+01 0.72159298883E+01 0.75077078823E+01 0.77623638088E+01 0.79462504696E+01
 0.80448722037E+01 0.80444027584E+01 0.79440650695E+01 0.77560743221E+01 0.75035493869E+01
 0.72120674903E+01 0.69062304948E+01 0.66139893152E+01 0.63531474033E+01 0.61394586907E+01
 0.59782043310E+01 0.58724600829E+01 0.58164602978E+01 0.58040421589E+01 0.58221905126E+01
 0.58598927372E+01 0.59014734026E+01 0.59375732842E+01 0.59592614724E+01 0.59601907852E+01
 0.59402548979E+01 0.59039293906E+01 0.58637308278E+01 0.58238772801E+01 0.58073004822E+01
 0.58166864956E+01 0.58655923452E+01 0.59786815690E+01 0.59482757865E+01 0.59783442969E+01
 0.60567207423E+01 0.61612860018E+01 0.62946893603E+01 0.64448698607E+01 0.65842863985E+01
 0.67035999062E+01 0.67806989841E+01 0.68081191319E+01 0.67823735792E+01 0.67066792624E+01
 0.65895966949E+01 0.64467527702E+01 0.62986497094E+01 0.61605233898E+01 0.60502310969E+01
 0.59781224718E+01 0.59538252660E+01 0.59781224718E+01 0.60502310969E+01 0.61605233898E+01
 0.62986497094E+01 0.64467527702E+01 0.65895966949E+01 0.67066792624E+01 0.67823735792E+01
 0.68081191319E+01 0.67806989841E+01 0.67035999062E+01 0.65842863985E+01 0.64448698607E+01
 0.62946893603E+01 0.61612860018E+01 0.60567207423E+01 0.59783442969E+01 0.61447335253E+01
 0.59786815690E+01 0.58655923452E+01 0.58166864956E+01 0.58073004822E+01 0.58238772801E+01
 0.58637308278E+01 0.59039293906E+01 0.59402548979E+01 0.59601907852E+01 0.59592614724E+01
 0.59375732842E+01 0.59014734026E+01 0.58598927372E+01 0.58221905126E+01 0.58040421589E+01
 0.58164602978E+01 0.58724600829E+01 0.59782043310E+01 0.61394586907E+01 0.63531474033E+01
 0.66139893152E+01 0.69062304948E+01 0.72120674903E+01 0.75035493869E+01 0.77560743221E+01
 0.79440650695E+01 0.80444027584E+01 0.80448722037E+01 0.79462504696E+01 0.77623638088E+01
 0.75077078823E+01 0.72159298883E+01 0.69053906916E+01 0.66064634513E+01 0.63531483971E+01
 0.67227246443E+01 0.63527978834E+01 0.60567304480E+01 0.58162669964E+01 0.56439526189E+01
 0.55311305833E+01 0.54554048403E+01 0.54164291617E+01 0.53948725883E+01 0.53865048866E+01
 0.53848844720E+01 0.53883276867E+01 0.53974137408E+01 0.54175031652E+01 0.54595368513E+01
 0.55317463515E+01 0.56475649017E+01 0.58164717257E+01 0.60501264828E+01 0.63531765494E+01
 0.67290660428E+01 0.71703433754E+01 0.76652021292E+01 0.81868798989E+01 0.87036423589E+01
 0.91692696574E+01 0.95383504295E+01 0.97765104706E+01 0.98591829926E+01 0.97757142664E+01
 0.95330563049E+01 0.91628363834E+01 0.86971609953E+01 0.81889313952E+01 0.76733831478E+01
 0.71714155520E+01 0.78384272852E+01 0.71717876259E+01 0.66064500890E+01 0.61617054844E+01
 0.58072581659E+01 0.55320786872E+01 0.53353842709E+01 0.51910161254E+01 0.50972582773E+01
 0.50393289064E+01 0.50118928777E+01 0.50108852166E+01 0.50375317841E+01 0.50957052086E+01
 0.51898091727E+01 0.53318010007E+01 0.55316130596E+01 0.58041646972E+01 0.61605055568E+01
 0.66140760722E+01 0.71702241520E+01 0.78316531395E+01 0.85843436620E+01 0.94009149481E+01
 0.10227635689E+02 0.11006405993E+02 0.11672478996E+02 0.12156908690E+02 0.12410568463E+02
 0.12410895166E+02 0.12160289560E+02 0.11678589972E+02 0.11016764633E+02 0.10227621450E+02
 0.93896275052E+01 0.85825248175E+01 0.96493082975E+01 0.85821193492E+01 0.76733963784E+01
 0.69049540274E+01 0.62947878768E+01 0.58228991890E+01 0.54555315350E+01 0.51895595764E+01
 0.49968644058E+01 0.48703674004E+01 0.47983583641E+01 0.47758110634E+01 0.47996183753E+01
 0.48711967505E+01 0.49988756096E+01 0.51899463399E+01 0.54595724411E+01 0.58221384674E+01
 0.62985913164E+01 0.69062107182E+01 0.76652637510E+01 0.85843921015E+01 0.96583742767E+01
 0.10846552155E+02 0.12091085342E+02 0.13298493197E+02 0.14765289178E+02 0.15780933623E+02
 0.16452789759E+02 0.16687366855E+02 0.16450309595E+02 0.15776766691E+02 0.14754091842E+02
 0.13292807308E+02 0.12103049368E+02 0.10853457215E+02 0.12497634492E+02 0.10853939372E+02
 0.93895749939E+01 0.81894352499E+01 0.72157213632E+01 0.64459357935E+01 0.58634233210E+01
 0.54179767375E+01 0.50970284397E+01 0.48724094789E+01 0.47312871627E+01 0.46625801881E+01
 0.46621065930E+01 0.47308819330E+01 0.48710801004E+01 0.50955860399E+01 0.54174229581E+01
 0.58599909681E+01 0.64467955172E+01 0.72120875905E+01 0.81868122311E+01 0.94008643743E+01
 0.10846560190E+02 0.12490489328E+02 0.14244513789E+02 0.16732575898E+02 0.18828454157E+02
 0.20698606175E+02 0.22118624155E+02 0.22887436436E+02 0.22889075800E+02 0.22121806947E+02
 0.20708001415E+02 0.18837228670E+02 0.16726799338E+02 0.14231084838E+02 0.17484798111E+02
 0.14230318763E+02 0.12103284063E+02 0.10226885488E+02 0.86976172757E+01 0.75063986801E+01
 0.65849038855E+01 0.59021730550E+01 0.53953331603E+01 0.50371487416E+01 0.47986930339E+01
 0.46626553342E+01 0.46189769045E+01 0.46623321462E+01 0.47997849826E+01 0.50377934228E+01
 0.53974159776E+01 0.59013860174E+01 0.65894987582E+01 0.75035752051E+01 0.87036760843E+01
 0.10227700871E+02 0.12091061133E+02 0.14244512240E+02 0.17482111143E+02 0.20717968648E+02
 0.24157416920E+02 0.27486492649E+02 0.30312255395E+02 0.32218003068E+02 0.32892725213E+02
 0.32216007263E+02 0.30303873059E+02 0.27478542075E+02 0.24157230925E+02 0.20729412529E+02
 0.25507576922E+02 0.20730502297E+02 0.16726606600E+02 0.13293556058E+02 0.11016294685E+02
 0.91641096931E+01 0.77617731199E+01 0.67051524558E+01 0.59398317462E+01 0.53888165039E+01
 0.50119522106E+01 0.47751317654E+01 0.46619866200E+01 0.46621558869E+01 0.47754123593E+01
 0.50106719632E+01 0.53883752781E+01 0.59378071925E+01 0.67066819850E+01 0.77561055727E+01
 0.91691533373E+01 0.11006415054E+02 0.13298438496E+02 0.16732632102E+02 0.20717967385E+02
 0.25517062621E+02 0.30940788405E+02 0.36619200755E+02 0.41921664535E+02 0.46091928230E+02
 0.48396721848E+02 0.48398520154E+02 0.46097263245E+02 0.41930665726E+02 0.36619105664E+02
 0.30937160411E+02 0.39153484262E+02 0.30936677022E+02 0.24156224571E+02 0.18837254695E+02
 0.14753822311E+02 0.11677984614E+02 0.95330810356E+01 0.79451080690E+01 0.67810564711E+01
 0.59585873256E+01 0.53833841631E+01 0.50117416633E+01 0.47986178855E+01 0.47314600727E+01
 0.47984125234E+01 0.50117368638E+01 0.53845416767E+01 0.59590406927E+01 0.67824490815E+01
 0.79440329982E+01 0.95384194235E+01 0.11672531105E+02 0.14765208229E+02 0.18828610302E+02
 0.24157143222E+02 0.30940824756E+02 0.39148077158E+02 0.48409314640E+02 0.57884029213E+02
 0.66284537024E+02 0.72134382071E+02 0.74240238115E+02 0.72129449625E+02 0.66278557925E+02
 0.57881448130E+02 0.48412117440E+02 0.62733100224E+02 0.48413121748E+02 0.36619398498E+02
 0.27479727915E+02 0.20707015870E+02 0.15778783186E+02 0.12158685734E+02 0.97783301978E+01
 0.80433982748E+01 0.68104718867E+01 0.59589234961E+01 0.53888375421E+01 0.50375085024E+01
 0.48728383286E+01 0.48708066628E+01 0.50396314699E+01 0.53866561810E+01 0.59600233407E+01
 0.68080162038E+01 0.80445611998E+01 0.97764210861E+01 0.12156770253E+02 0.15781106342E+02
 0.20698415229E+02 0.27486441333E+02 0.36619345566E+02 0.48409781768E+02 0.62737661570E+02
 0.78709420636E+02 0.94458840266E+02 0.10733943620E+03 0.11464599241E+03 0.11464982917E+03
 0.10734399704E+03 0.94460573801E+02 0.78709170839E+02 0.10392055158E+03 0.78706987290E+02
 0.57881853196E+02 0.41930418089E+02 0.30303630822E+02 0.22120614367E+02 0.16450904035E+02
 0.12409434035E+02 0.98595537210E+01 0.80434546110E+01 0.67801333634E+01 0.59396166897E+01
 0.53955350487E+01 0.50975054521E+01 0.49971840847E+01 0.50978101767E+01 0.53951118444E+01
 0.59403476564E+01 0.67801119506E+01 0.80446857488E+01 0.98594410099E+01 0.12410734808E+02
 0.16452471739E+02 0.22118897379E+02 0.30311867796E+02 0.41922352094E+02 0.57884414211E+02
 0.78707964751E+02 0.10391874851E+03 0.13131248329E+03 0.15678015046E+03 0.17509556136E+03
 0.18178791690E+03 0.17509247172E+03 0.15677860601E+03 0.13131321236E+03 0.17509476249E+03
 0.13131468845E+03 0.94459274500E+02 0.66278079492E+02 0.46097800620E+02 0.32218040170E+02
 0.22887698347E+02 0.16689318478E+02 0.12410200102E+02 0.97774281118E+01 0.79445737063E+01
 0.67058739444E+01 0.59034423004E+01 0.54191987752E+01 0.51906484720E+01 0.51920535148E+01
 0.54175170124E+01 0.59050830349E+01 0.67040984127E+01 0.79458362493E+01 0.97749584852E+01
 0.12411395285E+02 0.16687167020E+02 0.22887601943E+02 0.32217526602E+02 0.46093207221E+02
 0.66283299324E+02 0.94457122244E+02 0.13131354890E+03 0.17509616728E+03 0.22043446293E+03
 0.25868846307E+03 0.28073354467E+03 0.28073172931E+03 0.25869010862E+03 0.22043334595E+03
 0.29255834983E+03 0.22043329267E+03 0.15677829099E+03 0.10734316629E+03 0.72128163890E+02
 0.48398263383E+02 0.32891773834E+02 0.22887597635E+02 0.16451198723E+02 0.12158245002E+02
 0.95329837890E+01 0.77625820814E+01 0.65856046140E+01 0.58636757636E+01 0.54552177337E+01
 0.53351012401E+01 0.54551744838E+01 0.58641534345E+01 0.65849914729E+01 0.77632442796E+01
 0.95327411712E+01 0.12160025708E+02 0.16450350739E+02 0.22889214820E+02 0.32892418249E+02
 0.48397674821E+02 0.72132572613E+02 0.10733932084E+03 0.15678069420E+03 0.22043386971E+03
 0.29255665253E+03 0.36061015996E+03 0.40913692482E+03 0.42662735462E+03 0.40913960719E+03
 0.36061063068E+03 0.46345161227E+03 0.36061203935E+03 0.25869019496E+03 0.17509249463E+03
 0.11465031275E+03 0.74239261390E+02 0.48397944736E+02 0.32218264380E+02 0.22120524214E+02
 0.15778765011E+02 0.11677925389E+02 0.91639033810E+01 0.75065161136E+01 0.64460305946E+01
 0.58232628737E+01 0.55321695147E+01 0.55314509021E+01 0.58238689571E+01 0.64451460219E+01
 0.75075937479E+01 0.91628955620E+01 0.11678198235E+02 0.15777090736E+02 0.22121577190E+02
 0.32216130829E+02 0.48398806359E+02 0.74238979702E+02 0.11464650620E+03 0.17509457301E+03
 0.25868860824E+03 0.36061217369E+03 0.46345265781E+03 0.54267455574E+03 0.58286063848E+03
 0.58286038722E+03 0.54267029324E+03 0.63728210168E+03 0.54267515377E+03 0.40913965466E+03
 0.28073638945E+03 0.18178095655E+03 0.11465063246E+03 0.72128765070E+02 0.46096905592E+02
 0.30303911374E+02 0.20707357788E+02 0.14753924779E+02 0.11014911327E+02 0.86978933109E+01
 0.72166313385E+01 0.62964155141E+01 0.58084650979E+01 0.56453880388E+01 0.58085788853E+01
 0.62963269269E+01 0.72169281178E+01 0.86973105079E+01 0.11015612813E+02 0.14753997765E+02
 0.20708404391E+02 0.30303785831E+02 0.46097377305E+02 0.72128579501E+02 0.11465080172E+03
 0.18178528299E+03 0.28073457155E+03 0.40914037375E+03 0.54267539404E+03 0.63727733618E+03
 0.67026007799E+03 0.67196268162E+03 0.67026131192E+03 0.62877269500E+03 0.67025674290E+03
 0.58286212602E+03 0.42662951427E+03 0.28073636383E+03 0.17509106428E+03 0.10734441141E+03
 0.66278543320E+02 0.41929414800E+02 0.27480549395E+02 0.18837084037E+02 0.13292459389E+02
 0.10226909442E+02 0.81908889918E+01 0.69064740992E+01 0.61627695959E+01 0.58169667957E+01
 0.58173627580E+01 0.61623211290E+01 0.69069348664E+01 0.81903104978E+01 0.10227649007E+02
 0.13291578135E+02 0.18837340693E+02 0.27478878212E+02 0.41930769356E+02 0.66277747334E+02
 0.10734473333E+03 0.17509009057E+03 0.28073272947E+03 0.42663123203E+03 0.58286129127E+03
 0.67026021157E+03 0.62877432995E+03 0.54501015301E+03 0.54500929510E+03 0.40118660535E+03
 0.54501169102E+03 0.67196625547E+03 0.58286089355E+03 0.40913859904E+03 0.25868982563E+03
 0.15677675013E+03 0.94460319552E+02 0.57881766996E+02 0.36619292775E+02 0.24156469071E+02
 0.16726196396E+02 0.12103263379E+02 0.93898533276E+01 0.76738318313E+01 0.66067156033E+01
 0.60568134355E+01 0.58656460292E+01 0.60568072570E+01 0.66067420085E+01 0.76737402433E+01
 0.93901287486E+01 0.12102848082E+02 0.16726574018E+02 0.24157122837E+02 0.36619522903E+02
 0.57881023952E+02 0.94460585615E+02 0.15677743833E+03 0.25869003412E+03 0.40914191539E+03
 0.58285977500E+03 0.67196347918E+03 0.54501138812E+03 0.40118509844E+03 0.46885510142E+03
 0.18351705195E+04 0.46885677111E+03 0.54501368867E+03 0.67025784242E+03 0.54267219663E+03
 0.36061115528E+03 0.22043357824E+03 0.13131360192E+03 0.78707307827E+02 0.48413467433E+02
 0.30935917703E+02 0.20731134716E+02 0.14230691298E+02 0.10853323881E+02 0.85810847576E+01
 0.71712414176E+01 0.63528088578E+01 0.59790121345E+01 0.59786319237E+01 0.63531906927E+01
 0.71708768292E+01 0.85814705708E+01 0.10852738752E+02 0.14231613395E+02 0.20729878885E+02
 0.30936500031E+02 0.48412804665E+02 0.78708463787E+02 0.13131246296E+03 0.22043369057E+03
 0.36061108881E+03 0.54266884482E+03 0.67026198278E+03 0.54501305081E+03 0.46885738196E+03
 0.18351712661E+04 0.19164033155E+04 0.83888866218E+03 0.42807509787E+03 0.65194380576E+03
 0.62143503668E+03 0.44568006231E+03 0.28131971248E+03 0.16901728312E+03 0.10079835463E+03
 0.61138612565E+02 0.38326038290E+02 0.25068392274E+02 0.17237827568E+02 0.12371240963E+02
 0.95672069414E+01 0.77866802410E+01 0.66854836113E+01 0.61160873450E+01 0.59208252278E+01
 0.61161119886E+01 0.66854443576E+01 0.77867493146E+01 0.95670939593E+01 0.12371467797E+02
 0.17237644082E+02 0.25067677815E+02 0.38326184775E+02 0.61140330828E+02 0.10079950081E+03
 0.16902050478E+03 0.28132011580E+03 0.44568388389E+03 0.62143435933E+03 0.65194089697E+03
 0.42807506133E+03 0.83888776563E+03 0.58254989008E+03 0.58254964996E+03 0.40991702637E+03
 0.61279270079E+03 0.65774642644E+03 0.51214710813E+03 0.33839579707E+03 0.20777062114E+03
 0.12467124007E+03 0.75300988680E+02 0.46653882379E+02 0.30009031042E+02 0.20226341034E+02
 0.13985877963E+02 0.10692027914E+02 0.84830478410E+01 0.71044351448E+01 0.63056425731E+01
 0.59380402104E+01 0.59385400759E+01 0.63051228075E+01 0.71049976391E+01 0.84824598335E+01
 0.10692489220E+02 0.13985318465E+02 0.20227457986E+02 0.30008759079E+02 0.46653793448E+02
 0.75298537718E+02 0.12466979155E+03 0.20776896753E+03 0.33839284942E+03 0.51214871712E+03
 0.65774465382E+03 0.61279442579E+03 0.40991817376E+03 0.49205170811E+03 0.43436365703E+03
 0.49205218613E+03 0.63095635869E+03 0.66238363369E+03 0.54116390389E+03 0.37495357946E+03
 0.23793992918E+03 0.14551253274E+03 0.88575298020E+02 0.54825788163E+02 0.35007647671E+02
 0.23289124747E+02 0.16236591547E+02 0.11843435969E+02 0.92226696664E+01 0.75666523270E+01
 0.65340064028E+01 0.60014329708E+01 0.58155475009E+01 0.60014552655E+01 0.65339836789E+01
 0.75666370718E+01 0.92228411699E+01 0.11843427688E+02 0.16236080223E+02 0.23289093685E+02
 0.35007600810E+02 0.54826845935E+02 0.88577889848E+02 0.14551253779E+03 0.23794410903E+03
 0.37495085128E+03 0.54116514827E+03 0.66238647594E+03 0.63095360178E+03 0.67095512768E+03
 0.64541701764E+03 0.64541695212E+03 0.67095350280E+03 0.64284603225E+03 0.52977378934E+03
 0.38192453377E+03 0.25210569964E+03 0.15886378687E+03 0.98614046536E+02 0.61655230829E+02
 0.39471494506E+02 0.26144148358E+02 0.18093569957E+02 0.12917355640E+02 0.99785505873E+01
 0.80321445558E+01 0.68010639724E+01 0.60871740888E+01 0.57555924461E+01 0.57548731541E+01
 0.60878563158E+01 0.68003554770E+01 0.80327982168E+01 0.99776833917E+01 0.12918669016E+02
 0.18092833877E+02 0.26144684658E+02 0.39470525243E+02 0.61654030915E+02 0.98613020775E+02
 0.15886084457E+03 0.25210789180E+03 0.38192362601E+03 0.52977173188E+03 0.64284456466E+03
 0.57891597415E+03 0.63410960077E+03 0.64908896752E+03 0.63411016249E+03 0.57891329651E+03
 0.47882267052E+03 0.35759228208E+03 0.24644744145E+03 0.16142006696E+03 0.10325201701E+03
 0.65910957835E+02 0.42721061348E+02 0.28446687427E+02 0.19669958123E+02 0.13845787907E+02
 0.10673731453E+02 0.84847371522E+01 0.70738001873E+01 0.62011310396E+01 0.57317139961E+01
 0.55795737231E+01 0.57317439835E+01 0.62012132090E+01 0.70738219432E+01 0.84848329818E+01
 0.10673228661E+02 0.13845729210E+02 0.19670135680E+02 0.28447200562E+02 0.42722116653E+02
 0.65910405081E+02 0.10325647089E+03 0.16141598379E+03 0.24644957170E+03 0.35759393486E+03
 0.47882287125E+03 0.39625771114E+03 0.46798925135E+03 0.50713935955E+03 0.50713946287E+03
 0.46799313741E+03 0.39625927049E+03 0.30799346558E+03 0.22251613411E+03 0.15251756520E+03
 0.10140238632E+03 0.66722491096E+02 0.44189171689E+02 0.29847770237E+02 0.20779462445E+02
 0.14989252708E+02 0.11238888672E+02 0.88835724748E+01 0.73278238956E+01 0.63273321483E+01
 0.57384569824E+01 0.54610180658E+01 0.54619768875E+01 0.57373619041E+01 0.63282205933E+01
 0.73267406131E+01 0.88851892333E+01 0.11237884637E+02 0.14990120341E+02 0.20778083193E+02
 0.29847131122E+02 0.44190337902E+02 0.66718885240E+02 0.10140586461E+03 0.15251635435E+03
 0.22251341610E+03 0.30799417799E+03 0.24520794307E+03 0.30087410678E+03 0.34106917459E+03
 0.35572311378E+03 0.34106454271E+03 0.30087118022E+03 0.24520696198E+03 0.18649604931E+03
 0.13442561764E+03 0.93507503060E+02 0.63901879492E+02 0.43604224652E+02 0.30110394007E+02
 0.21274258237E+02 0.15485298106E+02 0.11626411811E+02 0.91866103996E+01 0.75398127721E+01
 0.64408280576E+01 0.57644456046E+01 0.53808989497E+01 0.52675284205E+01 0.53810007065E+01
 0.57645976499E+01 0.64410117062E+01 0.75392102785E+01 0.91862857336E+01 0.11626870054E+02
 0.15485239146E+02 0.21276359497E+02 0.30107917611E+02 0.43608249621E+02 0.63896299430E+02
 0.93510424060E+02 0.13442753583E+03 0.18649555965E+03 0.14648424982E+03 0.18256626683E+03
 0.21289183689E+03 0.23035692204E+03 0.23036058433E+03 0.21289583093E+03 0.18256865205E+03
 0.14648605684E+03 0.11133214027E+03 0.81355383749E+02 0.58057646297E+02 0.41072441700E+02
 0.29193712170E+02 0.21075665474E+02 0.15580327925E+02 0.11791638824E+02 0.93678656119E+01
 0.76845177619E+01 0.65353870099E+01 0.57904830471E+01 0.53354626435E+01 0.51241707013E+01
 0.51229533553E+01 0.53364687012E+01 0.57890692510E+01 0.65369823838E+01 0.76839005853E+01
 0.93687041583E+01 0.11790503740E+02 0.15579299077E+02 0.21077427649E+02 0.29189917301E+02
 0.41078915114E+02 0.58056107603E+02 0.81350971635E+02 0.11133474925E+03 0.87565218319E+02
 0.10929313865E+03 0.12928854309E+03 0.14358139339E+03 0.14878522304E+03 0.14357913169E+03
 0.12928491743E+03 0.10928962672E+03 0.87564977954E+02 0.67309832947E+02 0.50308765408E+02
 0.37064184998E+02 0.27249375371E+02 0.20216469009E+02 0.15256885744E+02 0.11724690373E+02
 0.94002152021E+01 0.77481863248E+01 0.65913175525E+01 0.58161086802E+01 0.53101258874E+01
 0.50338178162E+01 0.49396159538E+01 0.50339757965E+01 0.53102581605E+01 0.58160223001E+01
 0.65905150378E+01 0.77487381505E+01 0.93992931900E+01 0.11728129557E+02 0.15252323692E+02
 0.20222940351E+02 0.27240974592E+02 0.37065393730E+02 0.50312767027E+02 0.67308344220E+02
 0.53516865705E+02 0.66258585350E+02 0.78674646815E+02 0.88742758887E+02 0.94423248711E+02
 0.94422614113E+02 0.88742894868E+02 0.78680483111E+02 0.66260170023E+02 0.53519934229E+02