 vasp.5.4.4.18Apr17-6-g9f103f2a35 (build Apr 28 2018 00:24:27) complex          
  
 executed on             LinuxIFC date 2021.09.07  01:10:50
 running on   24 total cores
 distrk:  each k-point on   24 cores,    1 groups
 distr:  one band on NCORES_PER_BAND=   4 cores,    6 groups


--------------------------------------------------------------------------------------------------------


 INCAR:
 POTCAR:    PAW_PBE Fe_pv 02Aug2007               
 POTCAR:    PAW_PBE Fe_pv 02Aug2007               
   VRHFIN =Fe:  3pd7s1                                                          
   LEXCH  = PE                                                                  
   EATOM  =  2457.4239 eV,  180.6156 Ry                                         
                                                                                
   TITEL  = PAW_PBE Fe_pv 02Aug2007                                             
   LULTRA =        F    use ultrasoft PP ?                                      
   IUNSCR =        1    unscreen: 0-lin 1-nonlin 2-no                           
   RPACOR =    1.750    partial core radius                                     
   POMASS =   55.847; ZVAL   =   14.000    mass and valenz                      
   RCORE  =    2.200    outmost cutoff radius                                   
   RWIGS  =    2.200; RWIGS  =    1.164    wigner-seitz radius (au A)           
   ENMAX  =  293.238; ENMIN  =  219.928 eV                                      
   ICORE  =        3    local potential                                         
   LCOR   =        T    correct aug charges                                     
   LPAW   =        T    paw PP                                                  
   EAUG   =  578.342                                                            
   DEXC   =    0.000                                                            
   RMAX   =    2.249    core radius for proj-oper                               
   RAUG   =    1.300    factor for augmentation sphere                          
   RDEP   =    2.296    radius for radial grids                                 
   RDEPT  =    1.766    core radius for aug-charge                              
                                                                                
   Atomic configuration                                                         
    8 entries                                                                   
     n  l   j            E        occ.                                          
     1  0  0.50     -6993.8440   2.0000                                         
     2  0  0.50      -814.6047   2.0000                                         
     2  1  1.50      -693.3689   6.0000                                         
     3  0  0.50       -89.4732   2.0000                                         
     3  1  1.50       -55.6373   6.0000                                         
     3  2  2.50        -3.8151   7.0000                                         
     4  0  0.50        -4.2551   1.0000                                         
     4  3  2.50        -1.3606   0.0000                                         
   Description                                                                  
     l       E           TYP  RCUT    TYP  RCUT                                 
     1    -55.6372668     23  2.000                                             
     1     -5.4423304     23  2.000                                             
     2     -3.8151096     23  2.200                                             
     2     -5.1756922     23  2.200                                             
     0     -4.2550951     23  2.200                                             
     0     27.2116520     23  2.200                                             
     3     -1.3605826     23  2.200                                             
  local pseudopotential read in
  partial core-charges read in
  partial kinetic energy density read in
  atomic valenz-charges read in
  non local Contribution for L=           1  read in
    real space projection operators read in
  non local Contribution for L=           1  read in
    real space projection operators read in
  non local Contribution for L=           2  read in
    real space projection operators read in
  non local Contribution for L=           2  read in
    real space projection operators read in
  non local Contribution for L=           0  read in
    real space projection operators read in
  non local Contribution for L=           0  read in
    real space projection operators read in
    PAW grid and wavefunctions read in
 
   number of l-projection  operators is LMAX  =           6
   number of lm-projection operators is LMMAX =          18
 

 ----------------------------------------------------------------------------- 
|                                                                             |
|  ADVICE TO THIS USER RUNNING 'VASP/VAMP'   (HEAR YOUR MASTER'S VOICE ...):  |
|                                                                             |
|      You have a (more or less) 'small supercell' and for smaller cells      |
|      it is recommended  to use the reciprocal-space projection scheme!      |
|      The real space optimization is not  efficient for small cells and it   |
|      is also less accurate ...                                              |
|      Therefore set LREAL=.FALSE. in the  INCAR file                         |
|                                                                             |
 ----------------------------------------------------------------------------- 

 Optimization of the real space projectors (new method)

 maximal supplied QI-value         = 17.01
 optimisation between [QCUT,QGAM] = [ 13.78, 27.72] = [ 53.14,215.21] Ry 
 Optimized for a Real-space Cutoff    1.25 Angstroem

   l    n(q)    QCUT    max X(q) W(low)/X(q) W(high)/X(q)  e(spline) 
   1     10    13.776     4.267    0.84E-04    0.47E-03    0.40E-06
   1     10    13.776     5.750    0.13E-03    0.71E-03    0.60E-06
   2      9    13.776    53.656    0.12E-03    0.18E-03    0.32E-06
   2      9    13.776    49.521    0.12E-03    0.19E-03    0.33E-06
   0     10    13.776    31.246    0.61E-04    0.72E-04    0.23E-06
   0     10    13.776    12.201    0.50E-04    0.60E-04    0.19E-06
  PAW_PBE Fe_pv 02Aug2007               :
 energy of atom  1       EATOM=-2457.4239
 kinetic energy error for atom=    0.0016 (will be added to EATOM!!)
 
 
 POSCAR: Fe2                                     
  positions in direct lattice
  No initial velocities read in
 exchange correlation table for  LEXCH =        8
   RHO(1)=    0.500       N(1)  =     2000
   RHO(2)=  100.500       N(2)  =     4000
 


--------------------------------------------------------------------------------------------------------


 ion  position               nearest neighbor table
   1  0.000  0.000  0.000-   2 2.46   2 2.46   2 2.46   2 2.46   2 2.46   2 2.46   2 2.46   2 2.46

   2  0.500  0.500  0.500-   1 2.46   1 2.46   1 2.46   1 2.46   1 2.46   1 2.46   1 2.46   1 2.46

 
  LATTYP: Found a simple cubic cell.
 ALAT       =     2.8400520000
  
  Lattice vectors:
  
 A1 = (   2.8400520000,   0.0000000000,   0.0000000000)
 A2 = (   0.0000000000,   2.8400520000,   0.0000000000)
 A3 = (   0.0000000000,   0.0000000000,   2.8400520000)


Analysis of symmetry for initial positions (statically):
=====================================================================
 Subroutine PRICEL returns following result:
 
  LATTYP: Found a body centered cubic cell.
 ALAT       =     2.8400520000
  
  Lattice vectors:
  
 A1 = (   1.4200260000,   1.4200260000,   1.4200260000)
 A2 = (   1.4200260000,  -1.4200260000,  -1.4200260000)
 A3 = (  -1.4200260000,   1.4200260000,  -1.4200260000)
 
   2 primitive cells build up your supercell.
 

 Routine SETGRP: Setting up the symmetry group for a 
 simple cubic supercell.


 Subroutine GETGRP returns: Found 48 space group operations
 (whereof 48 operations were pure point group operations)
 out of a pool of 48 trial point group operations.


The static configuration has the point symmetry O_h .


Analysis of symmetry for dynamics (positions and initial velocities):
=====================================================================
 Subroutine PRICEL returns following result:
 
  LATTYP: Found a body centered cubic cell.
 ALAT       =     2.8400520000
  
  Lattice vectors:
  
 A1 = (   1.4200260000,   1.4200260000,   1.4200260000)
 A2 = (   1.4200260000,  -1.4200260000,  -1.4200260000)
 A3 = (  -1.4200260000,   1.4200260000,  -1.4200260000)
 
   2 primitive cells build up your supercell.
 

 Routine SETGRP: Setting up the symmetry group for a 
 simple cubic supercell.


 Subroutine GETGRP returns: Found 48 space group operations
 (whereof 48 operations were pure point group operations)
 out of a pool of 48 trial point group operations.


The dynamic configuration has the point symmetry O_h .


Analysis of structural, dynamic, and magnetic symmetry:
=====================================================================
 Subroutine PRICEL returns following result:
 
  LATTYP: Found a body centered cubic cell.
 ALAT       =     2.8400520000
  
  Lattice vectors:
  
 A1 = (   1.4200260000,   1.4200260000,   1.4200260000)
 A2 = (   1.4200260000,  -1.4200260000,  -1.4200260000)
 A3 = (  -1.4200260000,   1.4200260000,  -1.4200260000)
 
   2 primitive cells build up your supercell.
 

 Routine SETGRP: Setting up the symmetry group for a 
 simple cubic supercell.


 Subroutine GETGRP returns: Found 48 space group operations
 (whereof 48 operations were pure point group operations)
 out of a pool of 48 trial point group operations.


The magnetic configuration has the point symmetry O_h .


 Subroutine INISYM returns: Found 48 space group operations
 (whereof 48 operations are pure point group operations),
 and found     2 'primitive' translations

 
 
 KPOINTS: pymatgen with grid density = 2166 / numb

Automatic generation of k-mesh.
Space group operators:
 irot       det(A)        alpha          n_x          n_y          n_z        tau_x        tau_y        tau_z
    1     1.000000     0.000000     1.000000     0.000000     0.000000     0.000000     0.000000     0.000000
    2    -1.000000     0.000000     1.000000     0.000000     0.000000     0.000000     0.000000     0.000000
    3     1.000000   120.000000    -0.577350    -0.577350    -0.577350     0.000000     0.000000     0.000000
    4    -1.000000   120.000000    -0.577350    -0.577350    -0.577350     0.000000     0.000000     0.000000
    5     1.000000   120.000000     0.577350     0.577350     0.577350     0.000000     0.000000     0.000000
    6    -1.000000   120.000000     0.577350     0.577350     0.577350     0.000000     0.000000     0.000000
    7     1.000000    90.000000     0.000000     0.000000    -1.000000     0.000000     0.000000     0.000000
    8    -1.000000    90.000000     0.000000     0.000000    -1.000000     0.000000     0.000000     0.000000
    9     1.000000   180.000000     0.000000     0.707107     0.707107     0.000000     0.000000     0.000000
   10    -1.000000   180.000000     0.000000     0.707107     0.707107     0.000000     0.000000     0.000000
   11     1.000000    90.000000     0.000000     1.000000     0.000000     0.000000     0.000000     0.000000
   12    -1.000000    90.000000     0.000000     1.000000     0.000000     0.000000     0.000000     0.000000
   13     1.000000   180.000000     0.000000     0.000000     1.000000     0.000000     0.000000     0.000000
   14    -1.000000   180.000000     0.000000     0.000000     1.000000     0.000000     0.000000     0.000000
   15     1.000000   120.000000    -0.577350     0.577350     0.577350     0.000000     0.000000     0.000000
   16    -1.000000   120.000000    -0.577350     0.577350     0.577350     0.000000     0.000000     0.000000
   17     1.000000   120.000000    -0.577350     0.577350    -0.577350     0.000000     0.000000     0.000000
   18    -1.000000   120.000000    -0.577350     0.577350    -0.577350     0.000000     0.000000     0.000000
   19     1.000000    90.000000     0.000000     0.000000     1.000000     0.000000     0.000000     0.000000
   20    -1.000000    90.000000     0.000000     0.000000     1.000000     0.000000     0.000000     0.000000
   21     1.000000    90.000000    -1.000000     0.000000     0.000000     0.000000     0.000000     0.000000
   22    -1.000000    90.000000    -1.000000     0.000000     0.000000     0.000000     0.000000     0.000000
   23     1.000000   180.000000     0.707107     0.000000     0.707107     0.000000     0.000000     0.000000
   24    -1.000000   180.000000     0.707107     0.000000     0.707107     0.000000     0.000000     0.000000
   25     1.000000   120.000000     0.577350    -0.577350     0.577350     0.000000     0.000000     0.000000
   26    -1.000000   120.000000     0.577350    -0.577350     0.577350     0.000000     0.000000     0.000000
   27     1.000000   120.000000    -0.577350    -0.577350     0.577350     0.000000     0.000000     0.000000
   28    -1.000000   120.000000    -0.577350    -0.577350     0.577350     0.000000     0.000000     0.000000
   29     1.000000   180.000000     1.000000     0.000000     0.000000     0.000000     0.000000     0.000000
   30    -1.000000   180.000000     1.000000     0.000000     0.000000     0.000000     0.000000     0.000000
   31     1.000000    90.000000     0.000000    -1.000000     0.000000     0.000000     0.000000     0.000000
   32    -1.000000    90.000000     0.000000    -1.000000     0.000000     0.000000     0.000000     0.000000
   33     1.000000   180.000000     0.707107     0.707107     0.000000     0.000000     0.000000     0.000000
   34    -1.000000   180.000000     0.707107     0.707107     0.000000     0.000000     0.000000     0.000000
   35     1.000000    90.000000     1.000000     0.000000     0.000000     0.000000     0.000000     0.000000
   36    -1.000000    90.000000     1.000000     0.000000     0.000000     0.000000     0.000000     0.000000
   37     1.000000   120.000000     0.577350    -0.577350    -0.577350     0.000000     0.000000     0.000000
   38    -1.000000   120.000000     0.577350    -0.577350    -0.577350     0.000000     0.000000     0.000000
   39     1.000000   180.000000     0.000000     1.000000     0.000000     0.000000     0.000000     0.000000
   40    -1.000000   180.000000     0.000000     1.000000     0.000000     0.000000     0.000000     0.000000
   41     1.000000   120.000000     0.577350     0.577350    -0.577350     0.000000     0.000000     0.000000
   42    -1.000000   120.000000     0.577350     0.577350    -0.577350     0.000000     0.000000     0.000000
   43     1.000000   180.000000     0.000000    -0.707107     0.707107     0.000000     0.000000     0.000000
   44    -1.000000   180.000000     0.000000    -0.707107     0.707107     0.000000     0.000000     0.000000
   45     1.000000   180.000000     0.707107    -0.707107     0.000000     0.000000     0.000000     0.000000
   46    -1.000000   180.000000     0.707107    -0.707107     0.000000     0.000000     0.000000     0.000000
   47     1.000000   180.000000     0.707107     0.000000    -0.707107     0.000000     0.000000     0.000000
   48    -1.000000   180.000000     0.707107     0.000000    -0.707107     0.000000     0.000000     0.000000
 
 Subroutine IBZKPT returns following result:
 ===========================================
 
 Found     35 irreducible k-points:
 
 Following reciprocal coordinates:
            Coordinates               Weight
  0.050000  0.050000  0.050000      8.000000
  0.150000  0.050000  0.050000     24.000000
  0.250000  0.050000  0.050000     24.000000
  0.350000  0.050000  0.050000     24.000000
  0.450000  0.050000  0.050000     24.000000
  0.150000  0.150000  0.050000     24.000000
  0.250000  0.150000  0.050000     48.000000
  0.350000  0.150000  0.050000     48.000000
  0.450000  0.150000  0.050000     48.000000
  0.250000  0.250000  0.050000     24.000000
  0.350000  0.250000  0.050000     48.000000
  0.450000  0.250000  0.050000     48.000000
  0.350000  0.350000  0.050000     24.000000
  0.450000  0.350000  0.050000     48.000000
  0.450000  0.450000  0.050000     24.000000
  0.150000  0.150000  0.150000      8.000000
  0.250000  0.150000  0.150000     24.000000
  0.350000  0.150000  0.150000     24.000000
  0.450000  0.150000  0.150000     24.000000
  0.250000  0.250000  0.150000     24.000000
  0.350000  0.250000  0.150000     48.000000
  0.450000  0.250000  0.150000     48.000000
  0.350000  0.350000  0.150000     24.000000
  0.450000  0.350000  0.150000     48.000000
  0.450000  0.450000  0.150000     24.000000
  0.250000  0.250000  0.250000      8.000000
  0.350000  0.250000  0.250000     24.000000
  0.450000  0.250000  0.250000     24.000000
  0.350000  0.350000  0.250000     24.000000
  0.450000  0.350000  0.250000     48.000000
  0.450000  0.450000  0.250000     24.000000
  0.350000  0.350000  0.350000      8.000000
  0.450000  0.350000  0.350000     24.000000
  0.450000  0.450000  0.350000     24.000000
  0.450000  0.450000  0.450000      8.000000
 
 Following cartesian coordinates:
            Coordinates               Weight
  0.017605  0.017605  0.017605      8.000000
  0.052816  0.017605  0.017605     24.000000
  0.088027  0.017605  0.017605     24.000000
  0.123237  0.017605  0.017605     24.000000
  0.158448  0.017605  0.017605     24.000000
  0.052816  0.052816  0.017605     24.000000
  0.088027  0.052816  0.017605     48.000000
  0.123237  0.052816  0.017605     48.000000
  0.158448  0.052816  0.017605     48.000000
  0.088027  0.088027  0.017605     24.000000
  0.123237  0.088027  0.017605     48.000000
  0.158448  0.088027  0.017605     48.000000
  0.123237  0.123237  0.017605     24.000000
  0.158448  0.123237  0.017605     48.000000
  0.158448  0.158448  0.017605     24.000000
  0.052816  0.052816  0.052816      8.000000
  0.088027  0.052816  0.052816     24.000000
  0.123237  0.052816  0.052816     24.000000
  0.158448  0.052816  0.052816     24.000000
  0.088027  0.088027  0.052816     24.000000
  0.123237  0.088027  0.052816     48.000000
  0.158448  0.088027  0.052816     48.000000
  0.123237  0.123237  0.052816     24.000000
  0.158448  0.123237  0.052816     48.000000
  0.158448  0.158448  0.052816     24.000000
  0.088027  0.088027  0.088027      8.000000
  0.123237  0.088027  0.088027     24.000000
  0.158448  0.088027  0.088027     24.000000
  0.123237  0.123237  0.088027     24.000000
  0.158448  0.123237  0.088027     48.000000
  0.158448  0.158448  0.088027     24.000000
  0.123237  0.123237  0.123237      8.000000
  0.158448  0.123237  0.123237     24.000000
  0.158448  0.158448  0.123237     24.000000
  0.158448  0.158448  0.158448      8.000000
 
 TETIRR: Found    466 inequivalent tetrahedra from     6000


--------------------------------------------------------------------------------------------------------




 Dimension of arrays:
   k-points           NKPTS =     35   k-points in BZ     NKDIM =     35   number of bands    NBANDS=     24
   number of dos      NEDOS =    301   number of ions     NIONS =      2
   non local maximal  LDIM  =      6   non local SUM 2l+1 LMDIM =     18
   total plane-waves  NPLWV =  21952
   max r-space proj   IRMAX =   7858   max aug-charges    IRDMAX=  28578
   dimension x,y,z NGX =    28 NGY =   28 NGZ =   28
   dimension x,y,z NGXF=    56 NGYF=   56 NGZF=   56
   support grid    NGXF=    56 NGYF=   56 NGZF=   56
   ions per type =               2
   NGX,Y,Z   is equivalent  to a cutoff of  16.39, 16.39, 16.39 a.u.
   NGXF,Y,Z  is equivalent  to a cutoff of  32.78, 32.78, 32.78 a.u.

 SYSTEM =  unknown system                          
 POSCAR =  Fe2                                     

 Startparameter for this run:
   NWRITE =      2    write-flag & timer
   PREC   = accura    normal or accurate (medium, high low for compatibility)
   ISTART =      0    job   : 0-new  1-cont  2-samecut
   ICHARG =      2    charge: 1-file 2-atom 10-const
   ISPIN  =      2    spin polarized calculation?
   LNONCOLLINEAR =      F non collinear calculations
   LSORBIT =      F    spin-orbit coupling
   INIWAV =      1    electr: 0-lowe 1-rand  2-diag
   LASPH  =      F    aspherical Exc in radial PAW
   METAGGA=      F    non-selfconsistent MetaGGA calc.

 Electronic Relaxation 1
   ENCUT  =  740.0 eV  54.39 Ry    7.37 a.u.   6.30  6.30  6.30*2*pi/ulx,y,z
   ENINI  =  740.0     initial cutoff
   ENAUG  =  578.3 eV  augmentation charge cutoff
   NELM   =    100;   NELMIN=  2; NELMDL= -5     # of ELM steps 
   EDIFF  = 0.1E-06   stopping-criterion for ELM
   LREAL  =      T    real-space projection
   NLSPLINE    = F    spline interpolate recip. space projectors
   LCOMPAT=      F    compatible to vasp.4.4
   GGA_COMPAT  = T    GGA compatible to vasp.4.4-vasp.4.6
   LMAXPAW     = -100 max onsite density
   LMAXMIX     =    2 max onsite mixed and CHGCAR
   VOSKOWN=      0    Vosko Wilk Nusair interpolation
   ROPT   =   -0.00025
 Ionic relaxation
   EDIFFG = 0.1E-05   stopping-criterion for IOM
   NSW    =      0    number of steps for IOM
   NBLOCK =      1;   KBLOCK =      1    inner block; outer block 
   IBRION =     -1    ionic relax: 0-MD 1-quasi-New 2-CG
   NFREE  =      0    steps in history (QN), initial steepest desc. (CG)
   ISIF   =      3    stress and relaxation
   IWAVPR =     10    prediction:  0-non 1-charg 2-wave 3-comb
   ISYM   =      2    0-nonsym 1-usesym 2-fastsym
   LCORR  =      T    Harris-Foulkes like correction to forces

   POTIM  = 0.5000    time-step for ionic-motion
   TEIN   =    0.0    initial temperature
   TEBEG  =    0.0;   TEEND  =   0.0 temperature during run
   SMASS  =  -3.00    Nose mass-parameter (am)
   estimated Nose-frequenzy (Omega)   =  0.10E-29 period in steps =****** mass=  -0.184E-27a.u.
   SCALEE = 1.0000    scale energy and forces
   NPACO  =    256;   APACO  = 16.0  distance and # of slots for P.C.
   PSTRESS=    0.0 pullay stress

  Mass of Ions in am
   POMASS =  55.85
  Ionic Valenz
   ZVAL   =  14.00
  Atomic Wigner-Seitz radii
   RWIGS  =  -1.00
  virtual crystal weights 
   VCA    =   1.00
   NELECT =      28.0000    total number of electrons
   NUPDOWN=      -1.0000    fix difference up-down

 DOS related values:
   EMIN   =  10.00;   EMAX   =-10.00  energy-range for DOS
   EFERMI =   0.00
   ISMEAR =    -5;   SIGMA  =   0.05  broadening in eV -4-tet -1-fermi 0-gaus

 Electronic relaxation 2 (details)
   IALGO  =     38    algorithm
   LDIAG  =      T    sub-space diagonalisation (order eigenvalues)
   LSUBROT=      F    optimize rotation matrix (better conditioning)
   TURBO    =      0    0=normal 1=particle mesh
   IRESTART =      0    0=no restart 2=restart with 2 vectors
   NREBOOT  =      0    no. of reboots
   NMIN     =      0    reboot dimension
   EREF     =   0.00    reference energy to select bands
   IMIX   =      4    mixing-type and parameters
     AMIX     =   0.40;   BMIX     =  1.00
     AMIX_MAG =   1.60;   BMIX_MAG =  1.00
     AMIN     =   0.10
     WC   =   100.;   INIMIX=   1;  MIXPRE=   1;  MAXMIX= -45

 Intra band minimization:
   WEIMIN = 0.0000     energy-eigenvalue tresh-hold
   EBREAK =  0.10E-08  absolut break condition
   DEPER  =   0.30     relativ break condition  

   TIME   =   0.40     timestep for ELM

  volume/ion in A,a.u.               =      11.45        77.29
  Fermi-wavevector in a.u.,A,eV,Ry     =   1.750389  3.307755 41.686364  3.063861
  Thomas-Fermi vector in A             =   2.821117
 
 Write flags
   LWAVE        =      F    write WAVECAR
   LDOWNSAMPLE  =      F    k-point downsampling of WAVECAR
   LCHARG       =      F    write CHGCAR
   LVTOT        =      F    write LOCPOT, total local potential
   LVHAR        =      F    write LOCPOT, Hartree potential only
   LELF         =      F    write electronic localiz. function (ELF)
   LORBIT       =     11    0 simple, 1 ext, 2 COOP (PROOUT), +10 PAW based schemes


 Dipole corrections
   LMONO  =      F    monopole corrections only (constant potential shift)
   LDIPOL =      F    correct potential (dipole corrections)
   IDIPOL =      0    1-x, 2-y, 3-z, 4-all directions 
   EPSILON=  1.0000000 bulk dielectric constant

 Exchange correlation treatment:
   GGA     =    --    GGA type
   LEXCH   =     8    internal setting for exchange type
   VOSKOWN=      0    Vosko Wilk Nusair interpolation
   LHFCALC =     F    Hartree Fock is set to
   LHFONE  =     F    Hartree Fock one center treatment
   AEXX    =    0.0000 exact exchange contribution

 Linear response parameters
   LEPSILON=     F    determine dielectric tensor
   LRPA    =     F    only Hartree local field effects (RPA)
   LNABLA  =     F    use nabla operator in PAW spheres
   LVEL    =     F    velocity operator in full k-point grid
   LINTERFAST=   F  fast interpolation
   KINTER  =     0    interpolate to denser k-point grid
   CSHIFT  =0.1000    complex shift for real part using Kramers Kronig
   OMEGAMAX=  -1.0    maximum frequency
   DEG_THRESHOLD= 0.2000000E-02 threshold for treating states as degnerate
   RTIME   =   -0.100 relaxation time in fs
  (WPLASMAI=    0.000 imaginary part of plasma frequency in eV, 0.658/RTIME)
   DFIELD  = 0.0000000 0.0000000 0.0000000 field for delta impulse in time
 
 Orbital magnetization related:
   ORBITALMAG=     F  switch on orbital magnetization
   LCHIMAG   =     F  perturbation theory with respect to B field
   DQ        =  0.001000  dq finite difference perturbation B field
   LLRAUG    =     F  two centre corrections for induced B field



--------------------------------------------------------------------------------------------------------


 Static calculation
 charge density and potential will be updated during run
 spin polarized calculation
 Variant of blocked Davidson
 Davidson routine will perform the subspace rotation
 perform sub-space diagonalisation
    after iterative eigenvector-optimisation
 modified Broyden-mixing scheme, WC =      100.0
 initial mixing is a Kerker type mixing with AMIX =  0.4000 and BMIX =      1.0000
 Hartree-type preconditioning will be used
 using additional bands           10
 real space projection scheme for non local part
 use partial core corrections
 calculate Harris-corrections to forces 
   (improved forces if not selfconsistent)
 use gradient corrections 
 use of overlap-Matrix (Vanderbilt PP)
 Fermi weights with tetrahedron method with Bloechl corrections


--------------------------------------------------------------------------------------------------------


  energy-cutoff  :      740.00
  volume of cell :       22.91
      direct lattice vectors                 reciprocal lattice vectors
     2.840052000  0.000000000  0.000000000     0.352106229  0.000000000  0.000000000
     0.000000000  2.840052000  0.000000000     0.000000000  0.352106229  0.000000000
     0.000000000  0.000000000  2.840052000     0.000000000  0.000000000  0.352106229

  length of vectors
     2.840052000  2.840052000  2.840052000     0.352106229  0.352106229  0.352106229


 
 k-points in units of 2pi/SCALE and weight: pymatgen with grid density = 2166 / numb
   0.01760531  0.01760531  0.01760531       0.008
   0.05281593  0.01760531  0.01760531       0.024
   0.08802656  0.01760531  0.01760531       0.024
   0.12323718  0.01760531  0.01760531       0.024
   0.15844780  0.01760531  0.01760531       0.024
   0.05281593  0.05281593  0.01760531       0.024
   0.08802656  0.05281593  0.01760531       0.048
   0.12323718  0.05281593  0.01760531       0.048
   0.15844780  0.05281593  0.01760531       0.048
   0.08802656  0.08802656  0.01760531       0.024
   0.12323718  0.08802656  0.01760531       0.048
   0.15844780  0.08802656  0.01760531       0.048
   0.12323718  0.12323718  0.01760531       0.024
   0.15844780  0.12323718  0.01760531       0.048
   0.15844780  0.15844780  0.01760531       0.024
   0.05281593  0.05281593  0.05281593       0.008
   0.08802656  0.05281593  0.05281593       0.024
   0.12323718  0.05281593  0.05281593       0.024
   0.15844780  0.05281593  0.05281593       0.024
   0.08802656  0.08802656  0.05281593       0.024
   0.12323718  0.08802656  0.05281593       0.048
   0.15844780  0.08802656  0.05281593       0.048
   0.12323718  0.12323718  0.05281593       0.024
   0.15844780  0.12323718  0.05281593       0.048
   0.15844780  0.15844780  0.05281593       0.024
   0.08802656  0.08802656  0.08802656       0.008
   0.12323718  0.08802656  0.08802656       0.024
   0.15844780  0.08802656  0.08802656       0.024
   0.12323718  0.12323718  0.08802656       0.024
   0.15844780  0.12323718  0.08802656       0.048
   0.15844780  0.15844780  0.08802656       0.024
   0.12323718  0.12323718  0.12323718       0.008
   0.15844780  0.12323718  0.12323718       0.024
   0.15844780  0.15844780  0.12323718       0.024
   0.15844780  0.15844780  0.15844780       0.008
 
 k-points in reciprocal lattice and weights: pymatgen with grid density = 2166 / numb
   0.05000000  0.05000000  0.05000000       0.008
   0.15000000  0.05000000  0.05000000       0.024
   0.25000000  0.05000000  0.05000000       0.024
   0.35000000  0.05000000  0.05000000       0.024
   0.45000000  0.05000000  0.05000000       0.024
   0.15000000  0.15000000  0.05000000       0.024
   0.25000000  0.15000000  0.05000000       0.048
   0.35000000  0.15000000  0.05000000       0.048
   0.45000000  0.15000000  0.05000000       0.048
   0.25000000  0.25000000  0.05000000       0.024
   0.35000000  0.25000000  0.05000000       0.048
   0.45000000  0.25000000  0.05000000       0.048
   0.35000000  0.35000000  0.05000000       0.024
   0.45000000  0.35000000  0.05000000       0.048
   0.45000000  0.45000000  0.05000000       0.024
   0.15000000  0.15000000  0.15000000       0.008
   0.25000000  0.15000000  0.15000000       0.024
   0.35000000  0.15000000  0.15000000       0.024
   0.45000000  0.15000000  0.15000000       0.024
   0.25000000  0.25000000  0.15000000       0.024
   0.35000000  0.25000000  0.15000000       0.048
   0.45000000  0.25000000  0.15000000       0.048
   0.35000000  0.35000000  0.15000000       0.024
   0.45000000  0.35000000  0.15000000       0.048
   0.45000000  0.45000000  0.15000000       0.024
   0.25000000  0.25000000  0.25000000       0.008
   0.35000000  0.25000000  0.25000000       0.024
   0.45000000  0.25000000  0.25000000       0.024
   0.35000000  0.35000000  0.25000000       0.024
   0.45000000  0.35000000  0.25000000       0.048
   0.45000000  0.45000000  0.25000000       0.024
   0.35000000  0.35000000  0.35000000       0.008
   0.45000000  0.35000000  0.35000000       0.024
   0.45000000  0.45000000  0.35000000       0.024
   0.45000000  0.45000000  0.45000000       0.008
 
 position of ions in fractional coordinates (direct lattice) 
   0.00000000  0.00000000  0.00000000
   0.50000000  0.50000000  0.50000000
 
 position of ions in cartesian coordinates  (Angst):
   0.00000000  0.00000000  0.00000000
   1.42002600  1.42002600  1.42002600
 


--------------------------------------------------------------------------------------------------------


 k-point  1 :   0.0500 0.0500 0.0500  plane waves:    1033
 k-point  2 :   0.1500 0.0500 0.0500  plane waves:    1041
 k-point  3 :   0.2500 0.0500 0.0500  plane waves:    1048
 k-point  4 :   0.3500 0.0500 0.0500  plane waves:    1053
 k-point  5 :   0.4500 0.0500 0.0500  plane waves:    1050
 k-point  6 :   0.1500 0.1500 0.0500  plane waves:    1045
 k-point  7 :   0.2500 0.1500 0.0500  plane waves:    1045
 k-point  8 :   0.3500 0.1500 0.0500  plane waves:    1050
 k-point  9 :   0.4500 0.1500 0.0500  plane waves:    1056
 k-point 10 :   0.2500 0.2500 0.0500  plane waves:    1049
 k-point 11 :   0.3500 0.2500 0.0500  plane waves:    1047
 k-point 12 :   0.4500 0.2500 0.0500  plane waves:    1060
 k-point 13 :   0.3500 0.3500 0.0500  plane waves:    1048
 k-point 14 :   0.4500 0.3500 0.0500  plane waves:    1054
 k-point 15 :   0.4500 0.4500 0.0500  plane waves:    1047
 k-point 16 :   0.1500 0.1500 0.1500  plane waves:    1054
 k-point 17 :   0.2500 0.1500 0.1500  plane waves:    1049
 k-point 18 :   0.3500 0.1500 0.1500  plane waves:    1050
 k-point 19 :   0.4500 0.1500 0.1500  plane waves:    1052
 k-point 20 :   0.2500 0.2500 0.1500  plane waves:    1048
 k-point 21 :   0.3500 0.2500 0.1500  plane waves:    1046
 k-point 22 :   0.4500 0.2500 0.1500  plane waves:    1045
 k-point 23 :   0.3500 0.3500 0.1500  plane waves:    1048
 k-point 24 :   0.4500 0.3500 0.1500  plane waves:    1042
 k-point 25 :   0.4500 0.4500 0.1500  plane waves:    1040
 k-point 26 :   0.2500 0.2500 0.2500  plane waves:    1030
 k-point 27 :   0.3500 0.2500 0.2500  plane waves:    1040
 k-point 28 :   0.4500 0.2500 0.2500  plane waves:    1046
 k-point 29 :   0.3500 0.3500 0.2500  plane waves:    1040
 k-point 30 :   0.4500 0.3500 0.2500  plane waves:    1041
 k-point 31 :   0.4500 0.4500 0.2500  plane waves:    1038
 k-point 32 :   0.3500 0.3500 0.3500  plane waves:    1039
 k-point 33 :   0.4500 0.3500 0.3500  plane waves:    1040
 k-point 34 :   0.4500 0.4500 0.3500  plane waves:    1042
 k-point 35 :   0.4500 0.4500 0.4500  plane waves:    1052

 maximum and minimum number of plane-waves per node :       273      252

 maximum number of plane-waves:      1060
 maximum index in each direction: 
   IXMAX=    6   IYMAX=    6   IZMAX=    6
   IXMIN=   -6   IYMIN=   -6   IZMIN=   -6


 real space projection operators:
  total allocation   :       2115.28 KBytes
  max/ min on nodes  :        532.69        524.95


 parallel 3D FFT for wavefunctions:
    minimum data exchange during FFTs selected (reduces bandwidth)
 parallel 3D FFT for charge:
    minimum data exchange during FFTs selected (reduces bandwidth)


 total amount of memory used by VASP MPI-rank0    33820. kBytes
=======================================================================

   base      :      30000. kBytes
   nonlr-proj:        909. kBytes
   fftplans  :        476. kBytes
   grid      :       1141. kBytes
   one-center:         31. kBytes
   wavefun   :       1263. kBytes
 
     INWAV:  cpu time    0.0000: real time    0.0001
 Broyden mixing: mesh for mixing (old mesh)
   NGX = 13   NGY = 13   NGZ = 13
  (NGX  = 56   NGY  = 56   NGZ  = 56)
  gives a total of   2197 points

 initial charge density was supplied:
 charge density of overlapping atoms calculated
 number of electron      28.0000000 magnetization      10.0000000
 keeping initial charge density in first step


--------------------------------------------------------------------------------------------------------


 Maximum index for non-local projection operator         1870
 Maximum index for augmentation-charges         1986 (set IRDMAX)


--------------------------------------------------------------------------------------------------------


 First call to EWALD:  gamma=   0.624
 Maximum number of real-space cells 3x 3x 3
 Maximum number of reciprocal cells 3x 3x 3

    FEWALD:  cpu time    0.0012: real time    0.0013


--------------------------------------- Iteration      1(   1)  ---------------------------------------


    POTLOK:  cpu time    0.0127: real time    0.0127
    SETDIJ:  cpu time    0.0067: real time    0.0068
     EDDAV:  cpu time    0.5171: real time    0.5240
 BZINTS: Fermi energy: 21.372329; 28.000000 electrons
         Band energy: -83.232124;  BLOECHL correction: -0.190266
       DOS:  cpu time    0.0357: real time    0.0358
    --------------------------------------------
      LOOP:  cpu time    0.5722: real time    0.5793

 eigenvalue-minimisations  :  3504
 total energy-change (2. order) : 0.2391952E+03  (-0.2146849E+04)
 number of electron      28.0000000 magnetization      10.0000000
 augmentation part       28.0000000 magnetization      10.0000000

 Free energy of the ion-electron system (eV)
  ---------------------------------------------------
  alpha Z        PSCENC =       218.87048721
  Ewald energy   TEWEN  =     -3616.56080017
  -Hartree energ DENC   =     -1162.86386254
  -exchange      EXHF   =         0.00000000
  -V(xc)+E(xc)   XCENC  =       147.54621443
  PAW double counting   =      3997.93860218    -4177.34792201
  entropy T*S    EENTRO =         0.00000000
  eigenvalues    EBANDS =       -83.23212391
  atomic energy  EATOM  =      4914.84461026
  Solvation  Ediel_sol  =         0.00000000
  ---------------------------------------------------
  free energy    TOTEN  =       239.19520545 eV

  energy without entropy =      239.19520545  energy(sigma->0) =      239.19520545


--------------------------------------------------------------------------------------------------------




--------------------------------------- Iteration      1(   2)  ---------------------------------------


     EDDAV:  cpu time    0.4992: real time    0.5007
 BZINTS: Fermi energy: 12.203223; 28.000000 electrons
         Band energy:-331.570337;  BLOECHL correction: -0.069051
       DOS:  cpu time    0.0352: real time    0.0352
    --------------------------------------------
      LOOP:  cpu time    0.5344: real time    0.5360

 eigenvalue-minimisations  :  3444
 total energy-change (2. order) :-0.2483382E+03  (-0.2377063E+03)
 number of electron      28.0000000 magnetization      10.0000000
 augmentation part       28.0000000 magnetization      10.0000000

 Free energy of the ion-electron system (eV)
  ---------------------------------------------------
  alpha Z        PSCENC =       218.87048721
  Ewald energy   TEWEN  =     -3616.56080017
  -Hartree energ DENC   =     -1162.86386254
  -exchange      EXHF   =         0.00000000
  -V(xc)+E(xc)   XCENC  =       147.54621443
  PAW double counting   =      3997.93860218    -4177.34792201
  entropy T*S    EENTRO =         0.00000000
  eigenvalues    EBANDS =      -331.57033734
  atomic energy  EATOM  =      4914.84461026
  Solvation  Ediel_sol  =         0.00000000
  ---------------------------------------------------
  free energy    TOTEN  =        -9.14300798 eV

  energy without entropy =       -9.14300798  energy(sigma->0) =       -9.14300798


--------------------------------------------------------------------------------------------------------




--------------------------------------- Iteration      1(   3)  ---------------------------------------


     EDDAV:  cpu time    0.5400: real time    0.5414
 BZINTS: Fermi energy: 12.037000; 28.000000 electrons
         Band energy:-338.641224;  BLOECHL correction: -0.071278
       DOS:  cpu time    0.0333: real time    0.0334
    --------------------------------------------
      LOOP:  cpu time    0.5733: real time    0.5747

 eigenvalue-minimisations  :  3708
 total energy-change (2. order) :-0.7070886E+01  (-0.7056032E+01)
 number of electron      28.0000000 magnetization      10.0000000
 augmentation part       28.0000000 magnetization      10.0000000

 Free energy of the ion-electron system (eV)
  ---------------------------------------------------
  alpha Z        PSCENC =       218.87048721
  Ewald energy   TEWEN  =     -3616.56080017
  -Hartree energ DENC   =     -1162.86386254
  -exchange      EXHF   =         0.00000000
  -V(xc)+E(xc)   XCENC  =       147.54621443
  PAW double counting   =      3997.93860218    -4177.34792201
  entropy T*S    EENTRO =         0.00000000
  eigenvalues    EBANDS =      -338.64122351
  atomic energy  EATOM  =      4914.84461026
  Solvation  Ediel_sol  =         0.00000000
  ---------------------------------------------------
  free energy    TOTEN  =       -16.21389415 eV

  energy without entropy =      -16.21389415  energy(sigma->0) =      -16.21389415


--------------------------------------------------------------------------------------------------------




--------------------------------------- Iteration      1(   4)  ---------------------------------------


     EDDAV:  cpu time    0.5584: real time    0.5603
 BZINTS: Fermi energy: 12.036536; 28.000000 electrons
         Band energy:-338.700740;  BLOECHL correction: -0.071271
       DOS:  cpu time    0.0351: real time    0.0351
    --------------------------------------------
      LOOP:  cpu time    0.5935: real time    0.5955

 eigenvalue-minimisations  :  3888
 total energy-change (2. order) :-0.5951678E-01  (-0.5952128E-01)
 number of electron      28.0000000 magnetization      10.0000000
 augmentation part       28.0000000 magnetization      10.0000000

 Free energy of the ion-electron system (eV)
  ---------------------------------------------------
  alpha Z        PSCENC =       218.87048721
  Ewald energy   TEWEN  =     -3616.56080017
  -Hartree energ DENC   =     -1162.86386254
  -exchange      EXHF   =         0.00000000
  -V(xc)+E(xc)   XCENC  =       147.54621443
  PAW double counting   =      3997.93860218    -4177.34792201
  entropy T*S    EENTRO =         0.00000000
  eigenvalues    EBANDS =      -338.70074028
  atomic energy  EATOM  =      4914.84461026
  Solvation  Ediel_sol  =         0.00000000
  ---------------------------------------------------
  free energy    TOTEN  =       -16.27341093 eV

  energy without entropy =      -16.27341093  energy(sigma->0) =      -16.27341093


--------------------------------------------------------------------------------------------------------




--------------------------------------- Iteration      1(   5)  ---------------------------------------


     EDDAV:  cpu time    0.5302: real time    0.5317
 BZINTS: Fermi energy: 12.036534; 28.000000 electrons
         Band energy:-338.701842;  BLOECHL correction: -0.071271
       DOS:  cpu time    0.0332: real time    0.0333
    CHARGE:  cpu time    0.0214: real time    0.0215
    MIXING:  cpu time    0.0007: real time    0.0007
    --------------------------------------------
      LOOP:  cpu time    0.5855: real time    0.5872

 eigenvalue-minimisations  :  3708
 total energy-change (2. order) :-0.1102120E-02  (-0.1102170E-02)
 number of electron      27.9999985 magnetization       4.3572186
 augmentation part       15.9044161 magnetization       2.8334651

 Broyden mixing:
  rms(total) = 0.24994E+01    rms(broyden)= 0.24994E+01
  rms(prec ) = 0.39515E+01
  weight for this iteration     100.00

 Free energy of the ion-electron system (eV)
  ---------------------------------------------------
  alpha Z        PSCENC =       218.87048721
  Ewald energy   TEWEN  =     -3616.56080017
  -Hartree energ DENC   =     -1162.86386254
  -exchange      EXHF   =         0.00000000
  -V(xc)+E(xc)   XCENC  =       147.54621443
  PAW double counting   =      3997.93860218    -4177.34792201
  entropy T*S    EENTRO =         0.00000000
  eigenvalues    EBANDS =      -338.70184240
  atomic energy  EATOM  =      4914.84461026
  Solvation  Ediel_sol  =         0.00000000
  ---------------------------------------------------
  free energy    TOTEN  =       -16.27451305 eV

  energy without entropy =      -16.27451305  energy(sigma->0) =      -16.27451305


--------------------------------------------------------------------------------------------------------




--------------------------------------- Iteration      1(   6)  ---------------------------------------


    POTLOK:  cpu time    0.0105: real time    0.0106
    SETDIJ:  cpu time    0.0055: real time    0.0055
     EDDAV:  cpu time    0.4957: real time    0.4968
 BZINTS: Fermi energy:  9.265833; 28.000000 electrons
         Band energy:-409.591009;  BLOECHL correction: -0.036203
       DOS:  cpu time    0.0339: real time    0.0340
    CHARGE:  cpu time    0.0213: real time    0.0213
    MIXING:  cpu time    0.0006: real time    0.0007
    --------------------------------------------
      LOOP:  cpu time    0.5674: real time    0.5689

 eigenvalue-minimisations  :  3420
 total energy-change (2. order) :-0.1842433E+00  (-0.7492754E+00)
 number of electron      27.9999984 magnetization       4.5318236
 augmentation part       17.0678293 magnetization       3.5495975

 Broyden mixing:
  rms(total) = 0.69122E+00    rms(broyden)= 0.69122E+00
  rms(prec ) = 0.86639E+00
  weight for this iteration     100.00

 eigenvalues of (default mixing * dielectric matrix)
  average eigenvalue GAMMA=   0.8370
  0.8370

 Free energy of the ion-electron system (eV)
  ---------------------------------------------------
  alpha Z        PSCENC =       218.87048721
  Ewald energy   TEWEN  =     -3616.56080017
  -Hartree energ DENC   =     -1089.08781787
  -exchange      EXHF   =         0.00000000
  -V(xc)+E(xc)   XCENC  =       140.63826567
  PAW double counting   =      4113.94859110    -4289.52108311
  entropy T*S    EENTRO =         0.00000000
  eigenvalues    EBANDS =      -409.59100948
  atomic energy  EATOM  =      4914.84461026
  Solvation  Ediel_sol  =         0.00000000
  ---------------------------------------------------
  free energy    TOTEN  =       -16.45875639 eV

  energy without entropy =      -16.45875639  energy(sigma->0) =      -16.45875639


--------------------------------------------------------------------------------------------------------




--------------------------------------- Iteration      1(   7)  ---------------------------------------


    POTLOK:  cpu time    0.0104: real time    0.0111
    SETDIJ:  cpu time    0.0053: real time    0.0053
     EDDAV:  cpu time    0.4936: real time    0.4949
 BZINTS: Fermi energy:  9.762265; 28.000000 electrons
         Band energy:-395.207621;  BLOECHL correction: -0.033728
       DOS:  cpu time    0.0347: real time    0.0348
    CHARGE:  cpu time    0.0206: real time    0.0206
    MIXING:  cpu time    0.0004: real time    0.0004
    --------------------------------------------
      LOOP:  cpu time    0.5650: real time    0.5672

 eigenvalue-minimisations  :  3432
 total energy-change (2. order) :-0.5455814E-01  (-0.6146563E-01)
 number of electron      27.9999985 magnetization       4.4436273
 augmentation part       16.7743072 magnetization       3.5265968

 Broyden mixing:
  rms(total) = 0.43081E+00    rms(broyden)= 0.43081E+00
  rms(prec ) = 0.52586E+00
  weight for this iteration     100.00

 eigenvalues of (default mixing * dielectric matrix)
  average eigenvalue GAMMA=   0.7673
  0.9881  0.5466

 Free energy of the ion-electron system (eV)
  ---------------------------------------------------
  alpha Z        PSCENC =       218.87048721
  Ewald energy   TEWEN  =     -3616.56080017
  -Hartree energ DENC   =     -1099.07880697
  -exchange      EXHF   =         0.00000000
  -V(xc)+E(xc)   XCENC  =       141.33078066
  PAW double counting   =      4219.91426127    -4400.62622586
  entropy T*S    EENTRO =         0.00000000
  eigenvalues    EBANDS =      -395.20762093
  atomic energy  EATOM  =      4914.84461026
  Solvation  Ediel_sol  =         0.00000000
  ---------------------------------------------------
  free energy    TOTEN  =       -16.51331453 eV

  energy without entropy =      -16.51331453  energy(sigma->0) =      -16.51331453


--------------------------------------------------------------------------------------------------------




--------------------------------------- Iteration      1(   8)  ---------------------------------------


    POTLOK:  cpu time    0.0103: real time    0.0104
    SETDIJ:  cpu time    0.0052: real time    0.0052
     EDDAV:  cpu time    0.5288: real time    0.5301
 BZINTS: Fermi energy:  9.688724; 28.000000 electrons
         Band energy:-397.471669;  BLOECHL correction: -0.033984
       DOS:  cpu time    0.0347: real time    0.0348
    CHARGE:  cpu time    0.0208: real time    0.0208
    MIXING:  cpu time    0.0004: real time    0.0004
    --------------------------------------------
      LOOP:  cpu time    0.6002: real time    0.6017

 eigenvalue-minimisations  :  3708
 total energy-change (2. order) :-0.9710998E-02  (-0.1513675E-02)
 number of electron      27.9999985 magnetization       4.3698224
 augmentation part       16.8104064 magnetization       3.4530264

 Broyden mixing:
  rms(total) = 0.13691E+00    rms(broyden)= 0.13691E+00
  rms(prec ) = 0.21418E+00
  weight for this iteration     100.00

 eigenvalues of (default mixing * dielectric matrix)
  average eigenvalue GAMMA=   1.0474
  1.6985  0.8570  0.5868

 Free energy of the ion-electron system (eV)
  ---------------------------------------------------
  alpha Z        PSCENC =       218.87048721
  Ewald energy   TEWEN  =     -3616.56080017
  -Hartree energ DENC   =     -1095.16454973
  -exchange      EXHF   =         0.00000000
  -V(xc)+E(xc)   XCENC  =       141.10683711
  PAW double counting   =      4267.94935575    -4450.09729699
  entropy T*S    EENTRO =         0.00000000
  eigenvalues    EBANDS =      -397.47166896
  atomic energy  EATOM  =      4914.84461026
  Solvation  Ediel_sol  =         0.00000000
  ---------------------------------------------------
  free energy    TOTEN  =       -16.52302553 eV

  energy without entropy =      -16.52302553  energy(sigma->0) =      -16.52302553


--------------------------------------------------------------------------------------------------------




--------------------------------------- Iteration      1(   9)  ---------------------------------------


    POTLOK:  cpu time    0.0104: real time    0.0105
    SETDIJ:  cpu time    0.0052: real time    0.0052
     EDDAV:  cpu time    0.5239: real time    0.5253
 BZINTS: Fermi energy:  9.610603; 28.000000 electrons
         Band energy:-399.761593;  BLOECHL correction: -0.034536
       DOS:  cpu time    0.0347: real time    0.0348
    CHARGE:  cpu time    0.0207: real time    0.0207
    MIXING:  cpu time    0.0004: real time    0.0004
    --------------------------------------------
      LOOP:  cpu time    0.5953: real time    0.5969

 eigenvalue-minimisations  :  3684
 total energy-change (2. order) : 0.8284518E-02  (-0.5240168E-03)
 number of electron      27.9999984 magnetization       4.4016478
 augmentation part       16.8465842 magnetization       3.4829340

 Broyden mixing:
  rms(total) = 0.33697E-01    rms(broyden)= 0.33697E-01
  rms(prec ) = 0.45950E-01
  weight for this iteration     100.00

 eigenvalues of (default mixing * dielectric matrix)
  average eigenvalue GAMMA=   1.1854
  2.3390  1.0619  0.6994  0.6413

 Free energy of the ion-electron system (eV)
  ---------------------------------------------------
  alpha Z        PSCENC =       218.87048721
  Ewald energy   TEWEN  =     -3616.56080017
  -Hartree energ DENC   =     -1090.25694799
  -exchange      EXHF   =         0.00000000
  -V(xc)+E(xc)   XCENC  =       140.86356098
  PAW double counting   =      4344.46860530    -4528.98266323
  entropy T*S    EENTRO =         0.00000000
  eigenvalues    EBANDS =      -399.76159337
  atomic energy  EATOM  =      4914.84461026
  Solvation  Ediel_sol  =         0.00000000
  ---------------------------------------------------
  free energy    TOTEN  =       -16.51474101 eV

  energy without entropy =      -16.51474101  energy(sigma->0) =      -16.51474101


--------------------------------------------------------------------------------------------------------




--------------------------------------- Iteration      1(  10)  ---------------------------------------


    POTLOK:  cpu time    0.0103: real time    0.0104
    SETDIJ:  cpu time    0.0052: real time    0.0052
     EDDAV:  cpu time    0.4932: real time    0.4944
 BZINTS: Fermi energy:  9.625040; 28.000000 electrons
         Band energy:-399.220237;  BLOECHL correction: -0.034695
       DOS:  cpu time    0.0329: real time    0.0331
    CHARGE:  cpu time    0.0205: real time    0.0206
    MIXING:  cpu time    0.0005: real time    0.0005
    --------------------------------------------
      LOOP:  cpu time    0.5625: real time    0.5641

 eigenvalue-minimisations  :  3444
 total energy-change (2. order) : 0.1988199E-03  (-0.2240327E-03)
 number of electron      27.9999985 magnetization       4.4064192
 augmentation part       16.8345874 magnetization       3.4849479

 Broyden mixing:
  rms(total) = 0.44154E-02    rms(broyden)= 0.44154E-02
  rms(prec ) = 0.54503E-02
  weight for this iteration     100.00

 eigenvalues of (default mixing * dielectric matrix)
  average eigenvalue GAMMA=   1.1291
  2.4317  1.0999  0.7831  0.6970  0.6338

 Free energy of the ion-electron system (eV)
  ---------------------------------------------------
  alpha Z        PSCENC =       218.87048721
  Ewald energy   TEWEN  =     -3616.56080017
  -Hartree energ DENC   =     -1089.87294559
  -exchange      EXHF   =         0.00000000
  -V(xc)+E(xc)   XCENC  =       140.87095262
  PAW double counting   =      4373.27337802    -4558.71998725
  entropy T*S    EENTRO =         0.00000000
  eigenvalues    EBANDS =      -399.22023728
  atomic energy  EATOM  =      4914.84461026
  Solvation  Ediel_sol  =         0.00000000
  ---------------------------------------------------
  free energy    TOTEN  =       -16.51454219 eV

  energy without entropy =      -16.51454219  energy(sigma->0) =      -16.51454219


--------------------------------------------------------------------------------------------------------




--------------------------------------- Iteration      1(  11)  ---------------------------------------


    POTLOK:  cpu time    0.0103: real time    0.0105
    SETDIJ:  cpu time    0.0053: real time    0.0053
     EDDAV:  cpu time    0.5178: real time    0.5191
 BZINTS: Fermi energy:  9.623474; 28.000000 electrons
         Band energy:-399.252583;  BLOECHL correction: -0.034712
       DOS:  cpu time    0.0338: real time    0.0339
    CHARGE:  cpu time    0.0207: real time    0.0208
    MIXING:  cpu time    0.0005: real time    0.0005
    --------------------------------------------
      LOOP:  cpu time    0.5884: real time    0.5900

 eigenvalue-minimisations  :  3624
 total energy-change (2. order) :-0.6001815E-04  (-0.5028695E-05)
 number of electron      27.9999985 magnetization       4.4058230
 augmentation part       16.8351419 magnetization       3.4846119

 Broyden mixing:
  rms(total) = 0.24179E-02    rms(broyden)= 0.24179E-02
  rms(prec ) = 0.32640E-02
  weight for this iteration     100.00

 eigenvalues of (default mixing * dielectric matrix)
  average eigenvalue GAMMA=   1.2959
  2.3071  2.3071  1.0749  0.6331  0.7557  0.6976

 Free energy of the ion-electron system (eV)
  ---------------------------------------------------
  alpha Z        PSCENC =       218.87048721
  Ewald energy   TEWEN  =     -3616.56080017
  -Hartree energ DENC   =     -1089.86540946
  -exchange      EXHF   =         0.00000000
  -V(xc)+E(xc)   XCENC  =       140.87326816
  PAW double counting   =      4374.48703707    -4559.91121246
  entropy T*S    EENTRO =         0.00000000
  eigenvalues    EBANDS =      -399.25258283
  atomic energy  EATOM  =      4914.84461026
  Solvation  Ediel_sol  =         0.00000000
  ---------------------------------------------------
  free energy    TOTEN  =       -16.51460221 eV

  energy without entropy =      -16.51460221  energy(sigma->0) =      -16.51460221


--------------------------------------------------------------------------------------------------------




--------------------------------------- Iteration      1(  12)  ---------------------------------------


    POTLOK:  cpu time    0.0103: real time    0.0104
    SETDIJ:  cpu time    0.0053: real time    0.0053
     EDDAV:  cpu time    0.5420: real time    0.5435
 BZINTS: Fermi energy:  9.621942; 28.000000 electrons
         Band energy:-399.287037;  BLOECHL correction: -0.034725
       DOS:  cpu time    0.0329: real time    0.0330
    CHARGE:  cpu time    0.0211: real time    0.0212
    MIXING:  cpu time    0.0005: real time    0.0005
    --------------------------------------------
      LOOP:  cpu time    0.6121: real time    0.6139

 eigenvalue-minimisations  :  3792
 total energy-change (2. order) :-0.8233166E-05  (-0.5042465E-06)
 number of electron      27.9999985 magnetization       4.4055534
 augmentation part       16.8358561 magnetization       3.4846099

 Broyden mixing:
  rms(total) = 0.95639E-03    rms(broyden)= 0.95639E-03
  rms(prec ) = 0.13600E-02
  weight for this iteration     100.00

 eigenvalues of (default mixing * dielectric matrix)
  average eigenvalue GAMMA=   1.2318
  2.3898  2.3898  1.0836  0.7902  0.7161  0.6267  0.6267

 Free energy of the ion-electron system (eV)
  ---------------------------------------------------
  alpha Z        PSCENC =       218.87048721
  Ewald energy   TEWEN  =     -3616.56080017
  -Hartree energ DENC   =     -1089.91716826
  -exchange      EXHF   =         0.00000000
  -V(xc)+E(xc)   XCENC  =       140.87595723
  PAW double counting   =      4375.55502554    -4560.89568519
  entropy T*S    EENTRO =         0.00000000
  eigenvalues    EBANDS =      -399.28703707
  atomic energy  EATOM  =      4914.84461026
  Solvation  Ediel_sol  =         0.00000000
  ---------------------------------------------------
  free energy    TOTEN  =       -16.51461044 eV

  energy without entropy =      -16.51461044  energy(sigma->0) =      -16.51461044


--------------------------------------------------------------------------------------------------------




--------------------------------------- Iteration      1(  13)  ---------------------------------------


    POTLOK:  cpu time    0.0103: real time    0.0109
    SETDIJ:  cpu time    0.0053: real time    0.0053
     EDDAV:  cpu time    0.4977: real time    0.4992
 BZINTS: Fermi energy:  9.622548; 28.000000 electrons
         Band energy:-399.274517;  BLOECHL correction: -0.034717
       DOS:  cpu time    0.0347: real time    0.0348
    CHARGE:  cpu time    0.0208: real time    0.0209
    MIXING:  cpu time    0.0005: real time    0.0005
    --------------------------------------------
      LOOP:  cpu time    0.5693: real time    0.5716

 eigenvalue-minimisations  :  3480
 total energy-change (2. order) : 0.6758285E-05  (-0.1295235E-06)
 number of electron      27.9999985 magnetization       4.4053537
 augmentation part       16.8355520 magnetization       3.4843002

 Broyden mixing:
  rms(total) = 0.25180E-03    rms(broyden)= 0.25180E-03
  rms(prec ) = 0.34479E-03
  weight for this iteration     100.00

 eigenvalues of (default mixing * dielectric matrix)
  average eigenvalue GAMMA=   1.2900
  2.5172  2.4450  1.4841  1.0644  0.8086  0.6259  0.6874  0.6874

 Free energy of the ion-electron system (eV)
  ---------------------------------------------------
  alpha Z        PSCENC =       218.87048721
  Ewald energy   TEWEN  =     -3616.56080017
  -Hartree energ DENC   =     -1089.92418620
  -exchange      EXHF   =         0.00000000
  -V(xc)+E(xc)   XCENC  =       140.87585454
  PAW double counting   =      4375.67967212    -4561.02572492
  entropy T*S    EENTRO =         0.00000000
  eigenvalues    EBANDS =      -399.27451653
  atomic energy  EATOM  =      4914.84461026
  Solvation  Ediel_sol  =         0.00000000
  ---------------------------------------------------
  free energy    TOTEN  =       -16.51460369 eV

  energy without entropy =      -16.51460369  energy(sigma->0) =      -16.51460369


--------------------------------------------------------------------------------------------------------




--------------------------------------- Iteration      1(  14)  ---------------------------------------


    POTLOK:  cpu time    0.0103: real time    0.0105
    SETDIJ:  cpu time    0.0052: real time    0.0052
     EDDAV:  cpu time    0.4239: real time    0.4251
 BZINTS: Fermi energy:  9.622793; 28.000000 electrons
         Band energy:-399.269556;  BLOECHL correction: -0.034715
       DOS:  cpu time    0.0329: real time    0.0330
    CHARGE:  cpu time    0.0206: real time    0.0207
    MIXING:  cpu time    0.0005: real time    0.0005
    --------------------------------------------
      LOOP:  cpu time    0.4935: real time    0.4950

 eigenvalue-minimisations  :  2700
 total energy-change (2. order) : 0.1590838E-05  (-0.1575866E-07)
 number of electron      27.9999985 magnetization       4.4053708
 augmentation part       16.8354354 magnetization       3.4842831

 Broyden mixing:
  rms(total) = 0.65712E-04    rms(broyden)= 0.65710E-04
  rms(prec ) = 0.85759E-04
  weight for this iteration     100.00

 eigenvalues of (default mixing * dielectric matrix)
  average eigenvalue GAMMA=   1.2119
  2.6076  2.4648  1.2912  1.0506  0.8268  0.6325  0.6631  0.6852  0.6852

 Free energy of the ion-electron system (eV)
  ---------------------------------------------------
  alpha Z        PSCENC =       218.87048721
  Ewald energy   TEWEN  =     -3616.56080017
  -Hartree energ DENC   =     -1089.92666160
  -exchange      EXHF   =         0.00000000
  -V(xc)+E(xc)   XCENC  =       140.87568867
  PAW double counting   =      4375.68093903    -4561.02930954
  entropy T*S    EENTRO =         0.00000000
  eigenvalues    EBANDS =      -399.26955595
  atomic energy  EATOM  =      4914.84461026
  Solvation  Ediel_sol  =         0.00000000
  ---------------------------------------------------
  free energy    TOTEN  =       -16.51460210 eV

  energy without entropy =      -16.51460210  energy(sigma->0) =      -16.51460210


--------------------------------------------------------------------------------------------------------




--------------------------------------- Iteration      1(  15)  ---------------------------------------


    POTLOK:  cpu time    0.0104: real time    0.0105
    SETDIJ:  cpu time    0.0052: real time    0.0052
     EDDAV:  cpu time    0.3207: real time    0.3215
 BZINTS: Fermi energy:  9.622759; 28.000000 electrons
         Band energy:-399.270461;  BLOECHL correction: -0.034715
       DOS:  cpu time    0.0338: real time    0.0338
    --------------------------------------------
      LOOP:  cpu time    0.3701: real time    0.3710

 eigenvalue-minimisations  :  1728
 total energy-change (2. order) :-0.9465111E-08  (-0.1121791E-08)
 number of electron      27.9999985 magnetization       4.4053708
 augmentation part       16.8354354 magnetization       3.4842831

 Free energy of the ion-electron system (eV)
  ---------------------------------------------------
  alpha Z        PSCENC =       218.87048721
  Ewald energy   TEWEN  =     -3616.56080017
  -Hartree energ DENC   =     -1089.92627988
  -exchange      EXHF   =         0.00000000
  -V(xc)+E(xc)   XCENC  =       140.87572040
  PAW double counting   =      4375.67628157    -4561.02416013
  entropy T*S    EENTRO =         0.00000000
  eigenvalues    EBANDS =      -399.27046138
  atomic energy  EATOM  =      4914.84461026
  Solvation  Ediel_sol  =         0.00000000
  ---------------------------------------------------
  free energy    TOTEN  =       -16.51460211 eV

  energy without entropy =      -16.51460211  energy(sigma->0) =      -16.51460211


--------------------------------------------------------------------------------------------------------




 average (electrostatic) potential at core
  the test charge radii are     0.9500
  (the norm of the test charge is              1.0000)
       1 -73.6648       2 -73.6648
 
 
 
 E-fermi :   9.6228     XC(G=0): -13.6241     alpha+bet :-17.4163


 spin component 1

 k-point     1 :       0.0500    0.0500    0.0500
  band No.  band energies     occupation 
      1     -44.5603      1.00000
      2     -44.5603      1.00000
      3     -44.5460      1.00000
      4     -44.2893      1.00000
      5     -44.2746      1.00000
      6     -44.2746      1.00000
      7       1.3982      1.00000
      8       4.9382      1.00000
      9       4.9382      1.00000
     10       7.3047      1.00000
     11       7.3047      1.00000
     12       7.4308      1.00000
     13       8.5804      1.00000
     14       8.5804      1.00000
     15       9.4949      1.00000
     16       9.6873      0.60062
     17       9.6873      0.00978
     18      19.1997      0.00000
     19      19.1997      0.00000
     20      19.4417      0.00000
     21      25.8104      0.00000
     22      25.8104      0.00000
     23      30.6970      0.00000
     24      33.3488      0.00000

 k-point     2 :       0.1500    0.0500    0.0500
  band No.  band energies     occupation 
      1     -44.5663      1.00000
      2     -44.5455      1.00000
      3     -44.5240      1.00000
      4     -44.3211      1.00000
      5     -44.2878      1.00000
      6     -44.2801      1.00000
      7       1.8019      1.00000
      8       5.1060      1.00000
      9       5.1082      1.00000
     10       7.2462      1.00000
     11       7.2945      1.00000
     12       7.5990      1.00000
     13       8.4142      1.00000
     14       8.6554      1.00000
     15       9.1041      1.00000
     16       9.3726      1.02104
     17       9.6658      0.13597
     18      17.0989      0.00000
     19      19.9187      0.00000
     20      20.0958      0.00000
     21      25.9620      0.00000
     22      27.1440      0.00000
     23      31.5526      0.00000
     24      32.1497      0.00000

 k-point     3 :       0.2500    0.0500    0.0500
  band No.  band energies     occupation 
      1     -44.5636      1.00000
      2     -44.5178      1.00000
      3     -44.4932      1.00000
      4     -44.3688      1.00000
      5     -44.3132      1.00000
      6     -44.3001      1.00000
      7       2.5674      1.00000
      8       5.3675      1.00000
      9       5.4273      1.00000
     10       7.2423      1.00000
     11       7.2873      1.00000
     12       7.8416      1.00000
     13       8.1078      1.00000
     14       8.6067      1.00000
     15       8.7947      1.00000
     16       8.8890      1.00000
     17       9.4860      1.03908
     18      14.5758      0.00000
     19      21.1879      0.00000
     20      21.3586      0.00000
     21      26.2946      0.00000
     22      27.9718      0.00000
     23      29.6289      0.00000
     24      31.2960      0.00000

 k-point     4 :       0.3500    0.0500    0.0500
  band No.  band energies     occupation 
      1     -44.5491      1.00000
      2     -44.4799      1.00000
      3     -44.4553      1.00000
      4     -44.4241      1.00000
      5     -44.3485      1.00000
      6     -44.3315      1.00000
      7       3.5894      1.00000
      8       5.5402      1.00000
      9       5.8724      1.00000
     10       7.2457      1.00000
     11       7.3212      1.00000
     12       7.7679      1.00000
     13       8.1304      1.00000
     14       8.1503      1.00000
     15       8.3929      1.00000
     16       9.0193      1.00000
     17       9.2004      1.03868
     18      12.2834      0.00000
     19      22.7947      0.00000
     20      23.0074      0.00000
     21      26.8756      0.00000
     22      27.8749      0.00000
     23      28.6104      0.00000
     24      29.1475      0.00000

 k-point     5 :       0.4500    0.0500    0.0500
  band No.  band energies     occupation 
      1     -44.5203      1.00000
      2     -44.4772      1.00000
      3     -44.4361      1.00000
      4     -44.4130      1.00000
      5     -44.3908      1.00000
      6     -44.3704      1.00000
      7       4.6412      1.00000
      8       5.3582      1.00000
      9       6.3946      1.00000
     10       6.9173      1.00000
     11       7.4991      1.00000
     12       7.7311      1.00000
     13       7.7625      1.00000
     14       7.9855      1.00000
     15       8.4991      1.00000
     16       8.8575      1.00000
     17       9.4833      0.98551
     18      10.5198      0.00000
     19      24.5325      0.00000
     20      24.9046      0.00000
     21      26.2268      0.00000
     22      26.9672      0.00000
     23      27.8213      0.00000
     24      29.2509      0.00000

 k-point     6 :       0.1500    0.1500    0.0500
  band No.  band energies     occupation 
      1     -44.5804      1.00000
      2     -44.5368      1.00000
      3     -44.4917      1.00000
      4     -44.3625      1.00000
      5     -44.2980      1.00000
      6     -44.2747      1.00000
      7       2.1897      1.00000
      8       5.2390      1.00000
      9       5.2978      1.00000
     10       7.0936      1.00000
     11       7.2374      1.00000
     12       7.8700      1.00000
     13       8.4386      1.00000
     14       8.6106      1.00000
     15       8.6247      1.00000
     16       9.1497      1.00691
     17       9.7349      0.03132
     18      17.1961      0.00000
     19      18.2811      0.00000
     20      20.6510      0.00000
     21      26.6284      0.00000
     22      28.5394      0.00000
     23      29.9220      0.00000
     24      31.9695      0.00000

 k-point     7 :       0.2500    0.1500    0.0500
  band No.  band energies     occupation 
      1     -44.5897      1.00000
      2     -44.5112      1.00000
      3     -44.4538      1.00000
      4     -44.4173      1.00000
      5     -44.3210      1.00000
      6     -44.2821      1.00000
      7       2.9161      1.00000
      8       5.4553      1.00000
      9       5.6205      1.00000
     10       6.9881      1.00000
     11       7.1824      1.00000
     12       8.1058      1.00000
     13       8.2002      1.00000
     14       8.2825      1.00000
     15       8.7217      1.00000
     16       8.7245      1.00000
     17       9.6887      0.28906
     18      14.9840      0.00000
     19      19.0122      0.00000
     20      21.7958      0.00000
     21      27.0200      0.00000
     22      27.7479      0.00000
     23      29.9240      0.00000
     24      30.6413      0.00000

 k-point     8 :       0.3500    0.1500    0.0500
  band No.  band energies     occupation 
      1     -44.5856      1.00000
      2     -44.4758      1.00000
      3     -44.4750      1.00000
      4     -44.4131      1.00000
      5     -44.3535      1.00000
      6     -44.3030      1.00000
      7       3.8582      1.00000
      8       5.5954      1.00000
      9       6.0116      1.00000
     10       6.9644      1.00000
     11       7.1188      1.00000
     12       7.6670      1.00000
     13       8.0931      1.00000
     14       8.3377      1.00000
     15       8.5643      1.00000
     16       8.9633      1.00000
     17       9.4969      0.92387
     18      12.6534      0.00000
     19      20.3763      0.00000
     20      23.3122      0.00000
     21      25.6605      0.00000
     22      27.5891      0.00000
     23      28.7792      0.00000
     24      30.9264      0.00000

 k-point     9 :       0.4500    0.1500    0.0500
  band No.  band energies     occupation 
      1     -44.5646      1.00000
      2     -44.5266      1.00000
      3     -44.4347      1.00000
      4     -44.3926      1.00000
      5     -44.3722      1.00000
      6     -44.3343      1.00000
      7       4.7818      1.00000
      8       5.4045      1.00000
      9       6.4366      1.00000
     10       6.8149      1.00000
     11       7.1497      1.00000
     12       7.3556      1.00000
     13       8.0550      1.00000
     14       8.1285      1.00000
     15       8.8894      1.00000
     16       9.2082      1.00000
     17       9.5413      0.77843
     18      10.7645      0.00000
     19      21.9650      0.00000
     20      23.7294      0.00000
     21      25.0474      0.00000
     22      26.8832      0.00000
     23      28.4946      0.00000
     24      29.8474      0.00000

 k-point    10 :       0.2500    0.2500    0.0500
  band No.  band energies     occupation 
      1     -44.6128      1.00000
      2     -44.4906      1.00000
      3     -44.4769      1.00000
      4     -44.4109      1.00000
      5     -44.3388      1.00000
      6     -44.2747      1.00000
      7       3.5389      1.00000
      8       5.5103      1.00000
      9       6.0140      1.00000
     10       6.7713      1.00000
     11       7.1537      1.00000
     12       7.5987      1.00000
     13       8.4263      1.00000
     14       8.4288      1.00000
     15       8.6230      1.00000
     16       8.6649      1.00000
     17       9.8081     -0.03396
     18      14.8633      0.00000
     19      17.4659      0.00000
     20      22.7549      0.00000
     21      25.3835      0.00000
     22      27.3663      0.00000
     23      30.0596      0.00000
     24      32.3852      0.00000

 k-point    11 :       0.3500    0.2500    0.0500
  band No.  band energies     occupation 
      1     -44.6220      1.00000
      2     -44.5351      1.00000
      3     -44.4618      1.00000
      4     -44.3694      1.00000
      5     -44.3641      1.00000
      6     -44.2820      1.00000
      7       4.2636      1.00000
      8       5.4677      1.00000
      9       6.4672      1.00000
     10       6.6638      1.00000
     11       7.1892      1.00000
     12       7.2436      1.00000
     13       8.2728      1.00000
     14       8.4046      1.00000
     15       8.8097      1.00000
     16       9.0699      1.02188
     17       9.7581      0.00393
     18      13.0484      0.00000
     19      18.1036      0.00000
     20      23.1680      0.00000
     21      24.0663      0.00000
     22      27.8481      0.00000
     23      28.7851      0.00000
     24      31.4420      0.00000

 k-point    12 :       0.4500    0.2500    0.0500
  band No.  band energies     occupation 
      1     -44.6124      1.00000
      2     -44.5825      1.00000
      3     -44.4287      1.00000
      4     -44.3950      1.00000
      5     -44.3322      1.00000
      6     -44.3020      1.00000
      7       4.8666      1.00000
      8       5.2596      1.00000
      9       6.6821      1.00000
     10       6.7708      1.00000
     11       7.0121      1.00000
     12       7.2242      1.00000
     13       8.3124      1.00000
     14       8.3954      1.00000
     15       9.1812      1.00000
     16       9.5470      0.95171
     17       9.7289      0.02974
     18      11.1096      0.00000
     19      19.4889      0.00000
     20      21.1932      0.00000
     21      25.5959      0.00000
     22      27.2069      0.00000
     23      28.6470      0.00000
     24      29.8692      0.00000

 k-point    13 :       0.3500    0.3500    0.0500
  band No.  band energies     occupation 
      1     -44.6452      1.00000
      2     -44.5896      1.00000
      3     -44.4425      1.00000
      4     -44.3796      1.00000
      5     -44.3311      1.00000
      6     -44.2748      1.00000
      7       4.6032      1.00000
      8       5.2499      1.00000
      9       6.4671      1.00000
     10       6.7899      1.00000
     11       7.0689      1.00000
     12       7.8006      1.00000
     13       8.3289      1.00000
     14       8.5819      1.00000
     15       8.7314      1.00000
     16       9.5047      0.96280
     17       9.8586     -0.00496
     18      12.6728      0.00000
     19      17.0755      0.00000
     20      20.9327      0.00000
     21      25.1102      0.00000
     22      28.2079      0.00000
     23      28.4080      0.00000
     24      30.7491      0.00000

 k-point    14 :       0.4500    0.3500    0.0500
  band No.  band energies     occupation 
      1     -44.6485      1.00000
      2     -44.6294      1.00000
      3     -44.4207      1.00000
      4     -44.3990      1.00000
      5     -44.3011      1.00000
      6     -44.2817      1.00000
      7       4.8276      1.00000
      8       5.0273      1.00000
      9       6.4158      1.00000
     10       6.5252      1.00000
     11       7.6336      1.00000
     12       8.0157      1.00000
     13       8.4771      1.00000
     14       8.6083      1.00000
     15       9.2345      1.00000
     16       9.7477      0.31690
     17      10.0492      0.00000
     18      11.2876      0.00000
     19      17.6524      0.00000
     20      19.0566      0.00000
     21      26.3162      0.00000
     22      27.4992      0.00000
     23      28.8185      0.00000
     24      29.7273      0.00000

 k-point    15 :       0.4500    0.4500    0.0500
  band No.  band energies     occupation 
      1     -44.6651      1.00000
      2     -44.6585      1.00000
      3     -44.4123      1.00000
      4     -44.4048      1.00000
      5     -44.2816      1.00000
      6     -44.2749      1.00000
      7       4.7954      1.00000
      8       4.8568      1.00000
      9       6.2864      1.00000
     10       6.3240      1.00000
     11       8.3606      1.00000
     12       8.5983      1.00000
     13       8.6194      1.00000
     14       8.7803      1.00000
     15       9.2765      1.00000
     16       9.7026      0.28321
     17      10.4354      0.00000
     18      10.9860      0.00000
     19      16.9431      0.00000
     20      17.5292      0.00000
     21      27.0345      0.00000
     22      27.4880      0.00000
     23      29.0850      0.00000
     24      29.4300      0.00000

 k-point    16 :       0.1500    0.1500    0.1500
  band No.  band energies     occupation 
      1     -44.5647      1.00000
      2     -44.5647      1.00000
      3     -44.4559      1.00000
      4     -44.4001      1.00000
      5     -44.2888      1.00000
      6     -44.2888      1.00000
      7       2.5670      1.00000
      8       5.4263      1.00000
      9       5.4263      1.00000
     10       7.0361      1.00000
     11       7.0361      1.00000
     12       8.0861      1.00000
     13       8.1861      1.00000
     14       8.5281      1.00000
     15       8.5281      1.00000
     16       9.4250      0.99979
     17       9.4250      1.11223
     18      17.8414      0.00000
     19      17.8414      0.00000
     20      19.2370      0.00000
     21      28.7875      0.00000
     22      28.7875      0.00000
     23      29.7386      0.00000
     24      29.7386      0.00000

 k-point    17 :       0.2500    0.1500    0.1500
  band No.  band energies     occupation 
      1     -44.5849      1.00000
      2     -44.5350      1.00000
      3     -44.4514      1.00000
      4     -44.4178      1.00000
      5     -44.3160      1.00000
      6     -44.2883      1.00000
      7       3.2657      1.00000
      8       5.6655      1.00000
      9       5.6997      1.00000
     10       6.9035      1.00000
     11       6.9349      1.00000
     12       7.5732      1.00000
     13       8.3824      1.00000
     14       8.5851      1.00000
     15       8.6827      1.00000
     16       8.9720      1.00000
     17       9.5064      0.95259
     18      15.4703      0.00000
     19      18.9553      0.00000
     20      19.8768      0.00000
     21      27.5257      0.00000
     22      28.5416      0.00000
     23      29.3031      0.00000
     24      30.5092      0.00000

 k-point    18 :       0.3500    0.1500    0.1500
  band No.  band energies     occupation 
      1     -44.5911      1.00000
      2     -44.5044      1.00000
      3     -44.4945      1.00000
      4     -44.3809      1.00000
      5     -44.3539      1.00000
      6     -44.2989      1.00000
      7       4.1488      1.00000
      8       5.8192      1.00000
      9       5.9787      1.00000
     10       6.7953      1.00000
     11       6.9293      1.00000
     12       7.2680      1.00000
     13       8.2261      1.00000
     14       8.5459      1.00000
     15       8.8083      1.00000
     16       9.1281      1.00000
     17       9.4068      0.92701
     18      13.1246      0.00000
     19      20.3550      0.00000
     20      21.0651      0.00000
     21      25.4925      0.00000
     22      26.4578      0.00000
     23      30.1154      0.00000
     24      31.4557      0.00000

 k-point    19 :       0.4500    0.1500    0.1500
  band No.  band energies     occupation 
      1     -44.5794      1.00000
      2     -44.5494      1.00000
      3     -44.4477      1.00000
      4     -44.3992      1.00000
      5     -44.3474      1.00000
      6     -44.3193      1.00000
      7       4.9804      1.00000
      8       5.5623      1.00000
[...]
     19      18.3224      0.00000
     20      20.7972      0.00000
     21      22.3838      0.00000
     22      24.8364      0.00000
     23      26.2508      0.00000
     24      30.1363      0.00000

 k-point    30 :       0.4500    0.3500    0.2500
  band No.  band energies     occupation 
      1     -42.0278      1.00000
      2     -42.0275      1.00000
      3     -41.8763      1.00000
      4     -41.8250      1.00000
      5     -41.7188      1.00000
      6     -41.7145      1.00000
      7       6.7329      1.00000
      8       7.0450      1.00000
      9       7.9674      1.00000
     10       7.9783      1.00000
     11       8.3646      1.00000
     12       8.4914      1.00000
     13      11.1842      0.00000
     14      11.2347      0.00000
     15      11.5150      0.00000
     16      11.5334      0.00000
     17      13.8175      0.00000
     18      14.8900      0.00000
     19      19.1263      0.00000
     20      20.5769      0.00000
     21      21.9130      0.00000
     22      23.4383      0.00000
     23      26.7662      0.00000
     24      28.2366      0.00000

 k-point    31 :       0.4500    0.4500    0.2500
  band No.  band energies     occupation 
      1     -42.0356      1.00000
      2     -42.0349      1.00000
      3     -41.8568      1.00000
      4     -41.8361      1.00000
      5     -41.7252      1.00000
      6     -41.7214      1.00000
      7       6.8529      1.00000
      8       6.9334      1.00000
      9       7.8845      1.00000
     10       7.8995      1.00000
     11       8.6614      1.00000
     12       8.7306      1.00000
     13      11.3009      0.00000
     14      11.3257      0.00000
     15      11.5265      0.00000
     16      11.5391      0.00000
     17      14.4943      0.00000
     18      15.0172      0.00000
     19      18.3898      0.00000
     20      19.0495      0.00000
     21      23.0063      0.00000
     22      24.1215      0.00000
     23      25.2332      0.00000
     24      26.3294      0.00000

 k-point    32 :       0.3500    0.3500    0.3500
  band No.  band energies     occupation 
      1     -42.0117      1.00000
      2     -41.9614      1.00000
      3     -41.9614      1.00000
      4     -41.7728      1.00000
      5     -41.7728      1.00000
      6     -41.7227      1.00000
      7       6.9266      1.00000
      8       7.5002      1.00000
      9       7.9276      1.00000
     10       7.9276      1.00000
     11       8.0742      1.00000
     12       8.0742      1.00000
     13      11.3765      0.00000
     14      11.3765      0.00000
     15      11.4153      0.00000
     16      11.4153      0.00000
     17      13.8658      0.00000
     18      17.4977      0.00000
     19      17.4977      0.00000
     20      19.8865      0.00000
     21      22.8238      0.00000
     22      22.8238      0.00000
     23      24.1461      0.00000
     24      28.0399      0.00000

 k-point    33 :       0.4500    0.3500    0.3500
  band No.  band energies     occupation 
      1     -42.0064      1.00000
      2     -41.9905      1.00000
      3     -41.8987      1.00000
      4     -41.8337      1.00000
      5     -41.7565      1.00000
      6     -41.7377      1.00000
      7       7.2799      1.00000
      8       7.3821      1.00000
      9       7.8722      1.00000
     10       7.9206      1.00000
     11       8.0467      1.00000
     12       8.2172      1.00000
     13      11.3597      0.00000
     14      11.3850      0.00000
     15      11.5029      0.00000
     16      11.5141      0.00000
     17      14.8066      0.00000
     18      16.0281      0.00000
     19      19.1311      0.00000
     20      20.4299      0.00000
     21      20.9118      0.00000
     22      21.6695      0.00000
     23      24.5510      0.00000
     24      26.0870      0.00000

 k-point    34 :       0.4500    0.4500    0.3500
  band No.  band energies     occupation 
      1     -41.9892      1.00000
      2     -41.9780      1.00000
      3     -41.8850      1.00000
      4     -41.8487      1.00000
      5     -41.7791      1.00000
      6     -41.7645      1.00000
      7       7.4283      1.00000
      8       7.4421      1.00000
      9       7.8024      1.00000
     10       7.8454      1.00000
     11       8.1731      1.00000
     12       8.2614      1.00000
     13      11.4437      0.00000
     14      11.4545      0.00000
     15      11.5334      0.00000
     16      11.5377      0.00000
     17      15.8064      0.00000
     18      16.5889      0.00000
     19      18.5411      0.00000
     20      19.5009      0.00000
     21      21.0126      0.00000
     22      22.1187      0.00000
     23      22.9695      0.00000
     24      24.1595      0.00000

 k-point    35 :       0.4500    0.4500    0.4500
  band No.  band energies     occupation 
      1     -41.9443      1.00000
      2     -41.9119      1.00000
      3     -41.9119      1.00000
      4     -41.8434      1.00000
      5     -41.8434      1.00000
      6     -41.8108      1.00000
      7       7.6625      1.00000
      8       7.8091      1.00000
      9       7.8091      1.00000
     10       7.9082      1.00000
     11       7.9533      1.00000
     12       7.9533      1.00000
     13      11.5394      0.00000
     14      11.5394      0.00000
     15      11.5424      0.00000
     16      11.5424      0.00000
     17      17.1208      0.00000
     18      18.3150      0.00000
     19      18.3150      0.00000
     20      20.0020      0.00000
     21      20.1678      0.00000
     22      20.1678      0.00000
     23      21.5181      0.00000
     24      22.3098      0.00000


--------------------------------------------------------------------------------------------------------


 soft charge-density along one line, spin component           1
         0         1         2         3         4         5         6         7         8         9
 total charge-density along one line
 
 soft charge-density along one line, spin component           2
         0         1         2         3         4         5         6         7         8         9
 total charge-density along one line
 
 pseudopotential strength for first ion, spin component:           1
-44.857  -0.000   0.000   7.570   0.000  -0.000  -0.000  -0.000
 -0.000 -44.857  -0.000   0.000   7.570   0.000  -0.000  -0.000
  0.000  -0.000 -44.857  -0.000   0.000   7.570  -0.000  -0.000
  7.570   0.000  -0.000   5.638   0.000  -0.000   0.000   0.000
  0.000   7.570   0.000   0.000   5.638  -0.000   0.000   0.000
 -0.000   0.000   7.570  -0.000  -0.000   5.638   0.000   0.000
 -0.000  -0.000  -0.000   0.000   0.000   0.000  -1.981  -0.000
 -0.000  -0.000  -0.000   0.000   0.000   0.000  -0.000  -1.981
  0.000  -0.000  -0.000  -0.000   0.000  -0.000  -0.000  -0.000
 -0.000  -0.000  -0.000   0.000   0.000   0.000  -0.000   0.000
  0.000  -0.000  -0.000  -0.000   0.000  -0.000   0.000   0.000
 -0.000  -0.000  -0.000   0.000   0.000   0.000  -2.495  -0.000
 -0.000  -0.000  -0.000   0.000   0.000   0.000  -0.000  -2.495
  0.000  -0.000   0.000  -0.000   0.000  -0.000  -0.000  -0.000
 -0.000  -0.000  -0.000   0.000   0.000   0.000  -0.000   0.000
  0.000  -0.000  -0.000  -0.000   0.000   0.000   0.000   0.000
  0.000   0.000   0.000   0.000   0.000   0.000  -0.000   0.000
  0.000   0.000  -0.000   0.000   0.000   0.000  -0.000   0.000
 pseudopotential strength for first ion, spin component:           2
-42.886   0.000  -0.000   6.737  -0.000  -0.000  -0.000  -0.000
  0.000 -42.886  -0.000  -0.000   6.737   0.000  -0.000  -0.000
 -0.000  -0.000 -42.886  -0.000   0.000   6.737  -0.000  -0.000
  6.737  -0.000  -0.000   5.866  -0.000   0.000   0.000   0.000
 -0.000   6.737   0.000  -0.000   5.866   0.000   0.000   0.000
 -0.000   0.000   6.737   0.000   0.000   5.866   0.000   0.000
 -0.000  -0.000  -0.000   0.000   0.000   0.000  -0.455  -0.000
 -0.000  -0.000  -0.000   0.000   0.000   0.000  -0.000  -0.455
  0.000  -0.000  -0.000  -0.000   0.000  -0.000  -0.000  -0.000
 -0.000  -0.000  -0.000   0.000   0.000   0.000   0.000  -0.000
  0.000  -0.000  -0.000  -0.000   0.000   0.000  -0.000  -0.000
 -0.000  -0.000  -0.000   0.000   0.000   0.000  -0.995  -0.000
 -0.000  -0.000  -0.000   0.000   0.000   0.000  -0.000  -0.995
  0.000  -0.000   0.000  -0.000   0.000  -0.000  -0.000  -0.000
 -0.000  -0.000  -0.000   0.000   0.000   0.000   0.000  -0.000
  0.000  -0.000  -0.000  -0.000   0.000   0.000  -0.000  -0.000
  0.000   0.000   0.000   0.000   0.000   0.000  -0.000  -0.000
  0.000   0.000   0.000   0.000   0.000   0.000  -0.000  -0.000
 total augmentation occupancy for first ion, spin component:           1
  1.992   0.000   0.000  -0.026  -0.000   0.000   0.000   0.000   0.000   0.000   0.000   0.000   0.000   0.000  -0.000   0.000
  0.000   1.992   0.000   0.000  -0.026  -0.000   0.000   0.000   0.000   0.000   0.000   0.000   0.000   0.000   0.000   0.000
  0.000   0.000   1.992  -0.000  -0.000  -0.026   0.000   0.000   0.000   0.000   0.000   0.000  -0.000   0.000   0.000   0.000
 -0.026   0.000   0.000   0.201   0.000  -0.000  -0.000   0.000   0.000   0.000   0.000   0.000   0.000   0.000   0.000  -0.000
 -0.000  -0.026  -0.000   0.000   0.201   0.000   0.000   0.000   0.000   0.000   0.000   0.000   0.000   0.000   0.000   0.000
 -0.000   0.000  -0.026  -0.000   0.000   0.201  -0.000   0.000  -0.000  -0.000   0.000   0.000   0.000   0.000   0.000  -0.000
  0.000   0.000   0.000   0.000   0.000   0.000   2.169  -0.000  -0.000  -0.000   0.000  -1.222  -0.000   0.000   0.000   0.000
  0.000   0.000   0.000   0.000  -0.000   0.000   0.000   2.169   0.000   0.000  -0.000  -0.000  -1.222   0.000   0.000   0.000
  0.000   0.000   0.000   0.000   0.000   0.000   0.000   0.000   3.408  -0.000  -0.000   0.000   0.000  -2.184   0.000   0.000
  0.000   0.000   0.000   0.000   0.000  -0.000   0.000  -0.000   0.000   2.169   0.000   0.000  -0.000  -0.000  -1.222  -0.000
 -0.000   0.000  -0.000  -0.000   0.000   0.000   0.000  -0.000   0.000   0.000   3.408  -0.000   0.000  -0.000  -0.000  -2.184
  0.000   0.000   0.000   0.000   0.000   0.000  -1.222   0.000   0.000  -0.000   0.000   1.650   0.000  -0.000   0.000   0.000
  0.000   0.000   0.000   0.000   0.000   0.000  -0.000  -1.222   0.000   0.000   0.000   0.000   1.650  -0.000   0.000  -0.000
  0.000   0.000   0.000  -0.000   0.000   0.000  -0.000   0.000  -2.184  -0.000   0.000  -0.000  -0.000   2.224  -0.000   0.000
  0.000   0.000   0.000   0.000   0.000   0.000   0.000  -0.000   0.000  -1.222  -0.000  -0.000   0.000  -0.000   1.650   0.000
 -0.000  -0.000   0.000   0.000   0.000   0.000   0.000   0.000   0.000  -0.000  -2.184   0.000  -0.000   0.000  -0.000   2.224
  0.000   0.000   0.000   0.000  -0.000  -0.000   0.000  -0.000  -0.000   0.000   0.000  -0.000  -0.000   0.000  -0.000  -0.000
 -0.000   0.000   0.000   0.000   0.000   0.000  -0.000   0.000   0.000   0.000   0.000   0.000  -0.000   0.000   0.000  -0.000
 total augmentation occupancy for first ion, spin component:           2
 -0.002   0.000   0.000  -0.009  -0.000   0.000   0.000   0.000   0.000   0.000  -0.000   0.000   0.000   0.000   0.000   0.000
  0.000  -0.002   0.000   0.000  -0.009   0.000   0.000   0.000   0.000   0.000   0.000   0.000   0.000   0.000   0.000   0.000
  0.000   0.000  -0.002   0.000   0.000  -0.009   0.000   0.000  -0.000   0.000  -0.000   0.000   0.000   0.000   0.000   0.000
 -0.009   0.000  -0.000  -0.020   0.000   0.000   0.000   0.000   0.000   0.000  -0.000   0.000   0.000   0.000   0.000   0.000
 -0.000  -0.009   0.000   0.000  -0.020   0.000   0.000   0.000   0.000   0.000   0.000   0.000   0.000   0.000   0.000  -0.000
  0.000  -0.000  -0.009   0.000  -0.000  -0.020   0.000   0.000   0.000   0.000   0.000   0.000   0.000  -0.000   0.000  -0.000
  0.000  -0.000   0.000   0.000   0.000   0.000   1.759   0.000   0.000   0.000  -0.000  -0.661   0.000   0.000   0.000  -0.000
  0.000   0.000  -0.000  -0.000  -0.000   0.000  -0.000   1.759   0.000   0.000   0.000  -0.000  -0.661   0.000  -0.000  -0.000
  0.000   0.000  -0.000   0.000   0.000   0.000   0.000   0.000   2.822   0.000   0.000  -0.000  -0.000  -1.163   0.000  -0.000
 -0.000   0.000   0.000   0.000   0.000  -0.000   0.000   0.000   0.000   1.759  -0.000   0.000   0.000   0.000  -0.661  -0.000
  0.000   0.000   0.000   0.000   0.000   0.000  -0.000   0.000   0.000  -0.000   2.822   0.000  -0.000   0.000   0.000  -1.163
  0.000  -0.000   0.000   0.000   0.000   0.000  -0.661   0.000  -0.000   0.000   0.000  -0.006   0.000   0.000   0.000  -0.000
  0.000   0.000  -0.000   0.000   0.000  -0.000   0.000  -0.661  -0.000   0.000  -0.000  -0.000  -0.006   0.000   0.000   0.000
  0.000   0.000   0.000   0.000   0.000   0.000   0.000   0.000  -1.163   0.000   0.000  -0.000  -0.000   0.239  -0.000  -0.000
 -0.000   0.000   0.000  -0.000   0.000   0.000  -0.000   0.000  -0.000  -0.661   0.000  -0.000  -0.000  -0.000  -0.006  -0.000
  0.000  -0.000   0.000  -0.000  -0.000   0.000  -0.000  -0.000   0.000   0.000  -1.163  -0.000   0.000   0.000   0.000   0.239
  0.000   0.000   0.000  -0.000   0.000  -0.000  -0.000  -0.000  -0.000  -0.000  -0.000   0.000   0.000  -0.000  -0.000  -0.000
 -0.000   0.000  -0.000   0.000   0.000   0.000   0.000   0.000   0.000  -0.000   0.000  -0.000   0.000   0.000  -0.000  -0.000


------------------------ aborting loop because EDIFF is reached ----------------------------------------


 


 total charge     
 
# of ion       s       p       d       tot
------------------------------------------
    1        0.385   6.378   6.075  12.838
    2        0.385   6.378   6.075  12.838
--------------------------------------------------
tot          0.770  12.756  12.150  25.675
 


 magnetization (x)
 
# of ion       s       p       d       tot
------------------------------------------
    1       -0.008  -0.042   2.292   2.242
    2       -0.008  -0.042   2.292   2.242
--------------------------------------------------
tot         -0.015  -0.083   4.583   4.485
 
    CHARGE:  cpu time    0.0203: real time    0.0204
    FORLOC:  cpu time    0.0002: real time    0.0002
    FORNL :  cpu time    0.1057: real time    0.1060
    STRESS:  cpu time    0.3159: real time    0.3169
    FORCOR:  cpu time    0.0098: real time    0.0098
    FORHAR:  cpu time    0.0012: real time    0.0012
    MIXING:  cpu time    0.0006: real time    0.0006
    OFIELD:  cpu time    0.0001: real time    0.0001

  FORCE on cell =-STRESS in cart. coord.  units (eV):
  Direction    XX          YY          ZZ          XY          YZ          ZX
  --------------------------------------------------------------------------------------
  Alpha Z   218.87049   218.87049   218.87049
  Ewald   -1205.52018 -1205.52018 -1205.52018    -0.00000    -0.00000    -0.00000
  Hartree   363.30879   363.30879   363.30879    -0.00000    -0.00000    -0.00000
  E(xc)    -179.77987  -179.77987  -179.77987    -0.00000     0.00000     0.00000
  Local     289.64980   289.64980   289.64980    -0.00000    -0.00000    -0.00000
  n-local   -60.13490   -54.11979   -50.51307     2.76641    -1.55418     0.58535
  augment   285.39931   285.39931   285.39931    -0.00000     0.00000     0.00000
  Kinetic   283.98532   282.53331   281.80067     2.94646    -0.75448    -0.06777
  Fock        0.00000     0.00000     0.00000     0.00000     0.00000     0.00000
  -------------------------------------------------------------------------------------
  Total      -0.22114    -0.22114    -0.22114    -0.00000    -0.00000     0.00000
  in kB     -15.46701   -15.46701   -15.46701    -0.00000    -0.00000     0.00000
  external pressure =      -15.47 kB  Pullay stress =        0.00 kB


 VOLUME and BASIS-vectors are now :
 -----------------------------------------------------------------------------
  energy-cutoff  :      740.00
  volume of cell :       22.91
      direct lattice vectors                 reciprocal lattice vectors
     2.840052000  0.000000000  0.000000000     0.352106229  0.000000000  0.000000000
     0.000000000  2.840052000  0.000000000     0.000000000  0.352106229  0.000000000
     0.000000000  0.000000000  2.840052000     0.000000000  0.000000000  0.352106229

  length of vectors
     2.840052000  2.840052000  2.840052000     0.352106229  0.352106229  0.352106229


 FORCES acting on ions
    electron-ion (+dipol)            ewald-force                    non-local-force                 convergence-correction
 -----------------------------------------------------------------------------------------------
   -.815E-13 -.247E-13 -.573E-13   -.529E-15 -.103E-14 -.897E-14   0.000E+00 0.000E+00 0.000E+00   0.284E-13 0.428E-14 -.156E-14
   0.746E-12 0.747E-11 0.865E-11   0.472E-14 0.447E-14 0.926E-14   0.000E+00 0.000E+00 0.000E+00   0.470E-13 0.544E-15 -.974E-13
 -----------------------------------------------------------------------------------------------
   0.664E-12 0.745E-11 0.859E-11   0.419E-14 0.343E-14 0.284E-15   0.000E+00 0.000E+00 0.000E+00   0.754E-13 0.483E-14 -.989E-13
 
 
 POSITION                                       TOTAL-FORCE (eV/Angst)
 -----------------------------------------------------------------------------------
      0.00000      0.00000      0.00000         0.000000     -0.000000      0.000000
      1.42003      1.42003      1.42003        -0.000000      0.000000     -0.000000
 -----------------------------------------------------------------------------------
    total drift:                                0.000000      0.000000      0.000000


--------------------------------------------------------------------------------------------------------



  FREE ENERGIE OF THE ION-ELECTRON SYSTEM (eV)
  ---------------------------------------------------
  free  energy   TOTEN  =       -16.51460211 eV

  energy  without entropy=      -16.51460211  energy(sigma->0) =      -16.51460211
 


--------------------------------------------------------------------------------------------------------


    POTLOK:  cpu time    0.0153: real time    0.0154


--------------------------------------------------------------------------------------------------------


     LOOP+:  cpu time    8.8653: real time    8.8973
    4ORBIT:  cpu time    0.0000: real time    0.0000
 


 total charge     
 
# of ion       s       p       d       tot
------------------------------------------
    1        0.385   6.378   6.075  12.838
    2        0.385   6.378   6.075  12.838
--------------------------------------------------
tot          0.770  12.756  12.150  25.675
 


 magnetization (x)
 
# of ion       s       p       d       tot
------------------------------------------
    1       -0.008  -0.042   2.292   2.242
    2       -0.008  -0.042   2.292   2.242
--------------------------------------------------
tot         -0.015  -0.083   4.583   4.485
 
 BZINTS: Fermi energy:  9.622759; 28.000000 electrons
         Band energy:-399.270461;  BLOECHL correction: -0.034715

 total amount of memory used by VASP MPI-rank0    33820. kBytes
=======================================================================

   base      :      30000. kBytes
   nonlr-proj:        909. kBytes
   fftplans  :        476. kBytes
   grid      :       1141. kBytes
   one-center:         31. kBytes
   wavefun   :       1263. kBytes
 
  
  
 General timing and accounting informations for this job:
 ========================================================
  
                  Total CPU time used (sec):        9.637
                            User time (sec):        9.499
                          System time (sec):        0.138
                         Elapsed time (sec):        9.688
  
                   Maximum memory used (kb):       60416.
                   Average memory used (kb):           0.
  
                          Minor page faults:        14733
                          Major page faults:            0
                 Voluntary context switches:          153
