       N       E                     dE             d eps       ncg     rms          rms(c)
DAV:   1     0.515690132926E+04    0.51569E+04   -0.18916E+05 11460   0.265E+03
DAV:   2     0.676933818587E+03   -0.44800E+04   -0.41106E+04 11424   0.710E+02
DAV:   3    -0.220700167019E+03   -0.89763E+03   -0.77100E+03 11784   0.290E+02
DAV:   4    -0.293631115554E+03   -0.72931E+02   -0.72004E+02 12960   0.791E+01
DAV:   5    -0.294517842071E+03   -0.88673E+00   -0.88376E+00 12684   0.978E+00    0.809E+01
DAV:   6    -0.235272855833E+03    0.59245E+02   -0.25281E+02 14796   0.811E+01    0.912E+01
DAV:   7    -0.212065527236E+03    0.23207E+02   -0.11416E+02 12264   0.637E+01    0.437E+01
DAV:   8    -0.218323437217E+03   -0.62579E+01   -0.21421E+01 12096   0.173E+01    0.265E+01
DAV:   9    -0.222503570150E+03   -0.41801E+01   -0.82143E+00 12576   0.170E+01    0.271E+01
DAV:  10    -0.222170805901E+03    0.33276E+00   -0.24546E+00 12564   0.691E+00    0.186E+01
DAV:  11    -0.221608817279E+03    0.56199E+00   -0.22648E-01 14304   0.281E+00    0.122E+01
DAV:  12    -0.221405924697E+03    0.20289E+00   -0.19620E-01 15240   0.240E+00    0.843E+00
DAV:  13    -0.221404950461E+03    0.97424E-03   -0.11168E-01 13968   0.224E+00    0.469E+00
DAV:  14    -0.221449372395E+03   -0.44422E-01   -0.15229E-01 15000   0.200E+00    0.182E+00
DAV:  15    -0.221467355752E+03   -0.17983E-01   -0.63237E-02 12756   0.678E-01    0.144E+00
DAV:  16    -0.221462304278E+03    0.50515E-02   -0.89674E-03 14364   0.704E-01    0.382E-01
DAV:  17    -0.221462907438E+03   -0.60316E-03   -0.48153E-03 12456   0.182E-01    0.194E-01
DAV:  18    -0.221463144178E+03   -0.23674E-03   -0.25612E-04 13992   0.825E-02    0.863E-02
DAV:  19    -0.221463200606E+03   -0.56428E-04   -0.10124E-04 13644   0.430E-02    0.170E-02
DAV:  20    -0.221463209050E+03   -0.84431E-05   -0.22343E-05 12480   0.144E-02    0.899E-03
DAV:  21    -0.221463206968E+03    0.20818E-05   -0.23668E-06 12600   0.881E-03    0.112E-02
DAV:  22    -0.221463208042E+03   -0.10743E-05   -0.98883E-07 10752   0.524E-03    0.507E-03
DAV:  23    -0.221463208152E+03   -0.11006E-06   -0.29314E-07  9732   0.322E-03    0.662E-04
DAV:  24    -0.221463207750E+03    0.40256E-06   -0.90394E-08  6444   0.869E-04    0.467E-04
DAV:  25    -0.221463207660E+03    0.89662E-07   -0.68405E-09  6216   0.340E-04
   1 F= -.22146321E+03 E0= -.22146321E+03  d E =0.000000E+00  mag=    42.3378
