 vasp.5.4.4.18Apr17-6-g9f103f2a35 (build Apr 28 2018 00:24:27) complex          
  
 executed on             LinuxIFC date 2021.09.06  03:33:57
 running on   24 total cores
 distrk:  each k-point on   24 cores,    1 groups
 distr:  one band on NCORES_PER_BAND=   4 cores,    6 groups


--------------------------------------------------------------------------------------------------------


 INCAR:
 POTCAR:    PAW_PBE Fe_pv 02Aug2007               
 POTCAR:    PAW_PBE O 08Apr2002                   
 POTCAR:    PAW_PBE Fe_pv 02Aug2007               
   VRHFIN =Fe:  3pd7s1                                                          
   LEXCH  = PE                                                                  
   EATOM  =  2457.4239 eV,  180.6156 Ry                                         
                                                                                
   TITEL  = PAW_PBE Fe_pv 02Aug2007                                             
   LULTRA =        F    use ultrasoft PP ?                                      
   IUNSCR =        1    unscreen: 0-lin 1-nonlin 2-no                           
   RPACOR =    1.750    partial core radius                                     
   POMASS =   55.847; ZVAL   =   14.000    mass and valenz                      
   RCORE  =    2.200    outmost cutoff radius                                   
   RWIGS  =    2.200; RWIGS  =    1.164    wigner-seitz radius (au A)           
   ENMAX  =  293.238; ENMIN  =  219.928 eV                                      
   ICORE  =        3    local potential                                         
   LCOR   =        T    correct aug charges                                     
   LPAW   =        T    paw PP                                                  
   EAUG   =  578.342                                                            
   DEXC   =    0.000                                                            
   RMAX   =    2.249    core radius for proj-oper                               
   RAUG   =    1.300    factor for augmentation sphere                          
   RDEP   =    2.296    radius for radial grids                                 
   RDEPT  =    1.766    core radius for aug-charge                              
                                                                                
   Atomic configuration                                                         
    8 entries                                                                   
     n  l   j            E        occ.                                          
     1  0  0.50     -6993.8440   2.0000                                         
     2  0  0.50      -814.6047   2.0000                                         
     2  1  1.50      -693.3689   6.0000                                         
     3  0  0.50       -89.4732   2.0000                                         
     3  1  1.50       -55.6373   6.0000                                         
     3  2  2.50        -3.8151   7.0000                                         
     4  0  0.50        -4.2551   1.0000                                         
     4  3  2.50        -1.3606   0.0000                                         
   Description                                                                  
     l       E           TYP  RCUT    TYP  RCUT                                 
     1    -55.6372668     23  2.000                                             
     1     -5.4423304     23  2.000                                             
     2     -3.8151096     23  2.200                                             
     2     -5.1756922     23  2.200                                             
     0     -4.2550951     23  2.200                                             
     0     27.2116520     23  2.200                                             
     3     -1.3605826     23  2.200                                             
  local pseudopotential read in
  partial core-charges read in
  partial kinetic energy density read in
  atomic valenz-charges read in
  non local Contribution for L=           1  read in
    real space projection operators read in
  non local Contribution for L=           1  read in
    real space projection operators read in
  non local Contribution for L=           2  read in
    real space projection operators read in
  non local Contribution for L=           2  read in
    real space projection operators read in
  non local Contribution for L=           0  read in
    real space projection operators read in
  non local Contribution for L=           0  read in
    real space projection operators read in
    PAW grid and wavefunctions read in
 
   number of l-projection  operators is LMAX  =           6
   number of lm-projection operators is LMMAX =          18
 
 POTCAR:    PAW_PBE O 08Apr2002                   
   VRHFIN =O: s2p4                                                              
   LEXCH  = PE                                                                  
   EATOM  =   432.3788 eV,   31.7789 Ry                                         
                                                                                
   TITEL  = PAW_PBE O 08Apr2002                                                 
   LULTRA =        F    use ultrasoft PP ?                                      
   IUNSCR =        1    unscreen: 0-lin 1-nonlin 2-no                           
   RPACOR =    1.200    partial core radius                                     
   POMASS =   16.000; ZVAL   =    6.000    mass and valenz                      
   RCORE  =    1.520    outmost cutoff radius                                   
   RWIGS  =    1.550; RWIGS  =    0.820    wigner-seitz radius (au A)           
   ENMAX  =  400.000; ENMIN  =  300.000 eV                                      
   ICORE  =        2    local potential                                         
   LCOR   =        T    correct aug charges                                     
   LPAW   =        T    paw PP                                                  
   EAUG   =  605.392                                                            
   DEXC   =    0.000                                                            
   RMAX   =    1.553    core radius for proj-oper                               
   RAUG   =    1.300    factor for augmentation sphere                          
   RDEP   =    1.550    radius for radial grids                                 
   RDEPT  =    1.329    core radius for aug-charge                              
                                                                                
   Atomic configuration                                                         
    4 entries                                                                   
     n  l   j            E        occ.                                          
     1  0  0.50      -514.6923   2.0000                                         
     2  0  0.50       -23.9615   2.0000                                         
     2  1  0.50        -9.0305   4.0000                                         
     3  2  1.50        -9.5241   0.0000                                         
   Description                                                                  
     l       E           TYP  RCUT    TYP  RCUT                                 
     0    -23.9615318     23  1.200                                             
     0     -9.5240782     23  1.200                                             
     1     -9.0304911     23  1.520                                             
     1      8.1634956     23  1.520                                             
     2     -9.5240782      7  1.500                                             
  local pseudopotential read in
  partial core-charges read in
  partial kinetic energy density read in
  kinetic energy density of atom read in
  atomic valenz-charges read in
  non local Contribution for L=           0  read in
    real space projection operators read in
  non local Contribution for L=           0  read in
    real space projection operators read in
  non local Contribution for L=           1  read in
    real space projection operators read in
  non local Contribution for L=           1  read in
    real space projection operators read in
    PAW grid and wavefunctions read in
 
   number of l-projection  operators is LMAX  =           4
   number of lm-projection operators is LMMAX =           8
 
 Optimization of the real space projectors (new method)

 maximal supplied QI-value         = 17.01
 optimisation between [QCUT,QGAM] = [ 15.31, 30.61] = [ 65.61,262.44] Ry 
 Optimized for a Real-space Cutoff    1.27 Angstroem

   l    n(q)    QCUT    max X(q) W(low)/X(q) W(high)/X(q)  e(spline) 
   1     11    15.307     4.267    0.10E-03    0.82E-04    0.23E-06
   1     11    15.307     5.750    0.15E-03    0.12E-03    0.39E-06
   2     11    15.307    53.656    0.11E-03    0.10E-03    0.28E-06
   2     11    15.307    49.521    0.11E-03    0.11E-03    0.29E-06
   0     12    15.307    31.246    0.35E-04    0.28E-04    0.34E-06
   0     12    15.307    12.201    0.29E-04    0.23E-04    0.29E-06
 Optimization of the real space projectors (new method)

 maximal supplied QI-value         = 24.76
 optimisation between [QCUT,QGAM] = [ 15.35, 30.70] = [ 65.97,263.87] Ry 
 Optimized for a Real-space Cutoff    0.98 Angstroem

   l    n(q)    QCUT    max X(q) W(low)/X(q) W(high)/X(q)  e(spline) 
   0      9    15.348    20.381    0.19E-03    0.17E-04    0.18E-06
   0      9    15.348    15.268    0.21E-03    0.21E-04    0.20E-06
   1      8    15.348     5.964    0.21E-03    0.71E-04    0.13E-06
   1      8    15.348     5.382    0.18E-03    0.63E-04    0.11E-06
  PAW_PBE Fe_pv 02Aug2007               :
 energy of atom  1       EATOM=-2457.4239
 kinetic energy error for atom=    0.0011 (will be added to EATOM!!)
  PAW_PBE O 08Apr2002                   :
 energy of atom  2       EATOM= -432.3788
 kinetic energy error for atom=    0.0026 (will be added to EATOM!!)
 
 
 POSCAR: Fe12 O18                                
  positions in direct lattice
  No initial velocities read in
 exchange correlation table for  LEXCH =        8
   RHO(1)=    0.500       N(1)  =     2000
   RHO(2)=  100.500       N(2)  =     4000
 


--------------------------------------------------------------------------------------------------------


 ion  position               nearest neighbor table
   1  0.000  0.000  0.355-  17 1.94  23 1.94  28 1.94  25 2.12  19 2.12  13 2.12
   2  0.000  0.000  0.645-  16 1.94  22 1.94  29 1.94  26 2.12  20 2.12  14 2.12
   3  0.333  0.667  0.022-  30 1.94  24 1.94  18 1.94  27 2.12  21 2.12  15 2.12
   4  0.667  0.333  0.689-  14 1.94  20 1.94  26 1.94  22 2.12  29 2.12  16 2.12
   5  0.333  0.667  0.311-  13 1.94  19 1.94  25 1.94  23 2.12  28 2.12  17 2.12
   6  0.667  0.333  0.978-  27 1.94  21 1.94  15 1.94  30 2.12  24 2.12  18 2.12
   7  0.000  0.000  0.145-  24 1.94  18 1.94  30 1.94  25 2.12  19 2.12  13 2.12
   8  0.000  0.000  0.855-  21 1.94  15 1.94  27 1.94  26 2.12  20 2.12  14 2.12
   9  0.333  0.667  0.811-  20 1.94  14 1.94  26 1.94  27 2.12  21 2.12  15 2.12
  10  0.333  0.667  0.522-  29 1.94  16 1.94  22 1.94  23 2.12  28 2.12  17 2.12
  11  0.667  0.333  0.478-  28 1.94  17 1.94  23 1.94  22 2.12  29 2.12  16 2.12
  12  0.667  0.333  0.189-  19 1.94  13 1.94  25 1.94  30 2.12  24 2.12  18 2.12
  13  0.306  0.000  0.250-   5 1.94  12 1.94   7 2.12   1 2.12
  14  0.694  0.000  0.750-   4 1.94   9 1.94   8 2.12   2 2.12
  15  0.640  0.667  0.917-   6 1.94   8 1.94   9 2.12   3 2.12
  16  0.973  0.333  0.583-  10 1.94   2 1.94   4 2.12  11 2.12
  17  0.027  0.667  0.417-  11 1.94   1 1.94   5 2.12  10 2.12
  18  0.360  0.333  0.083-   3 1.94   7 1.94  12 2.12   6 2.12
  19  0.000  0.306  0.250-  12 1.94   5 1.94   7 2.12   1 2.12
  20  0.000  0.694  0.750-   9 1.94   4 1.94   8 2.12   2 2.12
  21  0.333  0.973  0.917-   6 1.94   8 1.94   9 2.12   3 2.12
  22  0.667  0.640  0.583-  10 1.94   2 1.94   4 2.12  11 2.12
  23  0.333  0.360  0.417-  11 1.94   1 1.94   5 2.12  10 2.12
  24  0.667  0.027  0.083-   3 1.94   7 1.94  12 2.12   6 2.12
  25  0.694  0.694  0.250-  12 1.94   5 1.94   7 2.12   1 2.12
  26  0.306  0.306  0.750-   9 1.94   4 1.94   8 2.12   2 2.12
  27  0.027  0.360  0.917-   6 1.94   8 1.94   9 2.12   3 2.12
  28  0.640  0.973  0.417-  11 1.94   1 1.94   5 2.12  10 2.12
  29  0.360  0.027  0.583-  10 1.94   2 1.94   4 2.12  11 2.12
  30  0.973  0.640  0.083-   3 1.94   7 1.94  12 2.12   6 2.12
 
  LATTYP: Found a hexagonal cell.
 ALAT       =     5.0350995578
 C/A-ratio  =     2.7324385232
  
  Lattice vectors:
  
 A1 = (   5.0351000000,   0.0000000000,   0.0000000000)
 A2 = (  -2.5175500000,   4.3605240000,   0.0000000000)
 A3 = (   0.0000000000,   0.0000000000,  13.7581000000)


Analysis of symmetry for initial positions (statically):
=====================================================================
 Subroutine PRICEL returns following result:
 
  LATTYP: Found a trigonal (rhomboedric) cell.
 ALAT       =     5.4297801492
 COS(alpha) =     0.5700456062
  
  Lattice vectors:
  
 A1 = (  -2.5175449649,  -1.4535109070,  -4.5860425054)
 A2 = (  -0.0000025175,   2.9070174535,  -4.5860287473)
 A3 = (   2.5175474825,  -1.4535065465,  -4.5860287473)
 
   3 primitive cells build up your supercell.
 

 Routine SETGRP: Setting up the symmetry group for a 
 hexagonal supercell.


 Subroutine GETGRP returns: Found 12 space group operations
 (whereof  6 operations were pure point group operations)
 out of a pool of 24 trial point group operations.


The static configuration has the point symmetry S_6 .
 The point group associated with its full space group is D_3d.


Analysis of symmetry for dynamics (positions and initial velocities):
=====================================================================
 Subroutine PRICEL returns following result:
 
  LATTYP: Found a trigonal (rhomboedric) cell.
 ALAT       =     5.4297801492
 COS(alpha) =     0.5700456062
  
  Lattice vectors:
  
 A1 = (  -2.5175449649,  -1.4535109070,  -4.5860425054)
 A2 = (  -0.0000025175,   2.9070174535,  -4.5860287473)
 A3 = (   2.5175474825,  -1.4535065465,  -4.5860287473)
 
   3 primitive cells build up your supercell.
 

 Routine SETGRP: Setting up the symmetry group for a 
 hexagonal supercell.


 Subroutine GETGRP returns: Found 12 space group operations
 (whereof  6 operations were pure point group operations)
 out of a pool of 24 trial point group operations.


The dynamic configuration has the point symmetry S_6 .
 The point group associated with its full space group is D_3d.


Analysis of structural, dynamic, and magnetic symmetry:
=====================================================================
 Subroutine PRICEL returns following result:
 
  LATTYP: Found a trigonal (rhomboedric) cell.
 ALAT       =     5.4297801492
 COS(alpha) =     0.5700456062
  
  Lattice vectors:
  
 A1 = (  -2.5175449649,  -1.4535109070,  -4.5860425054)
 A2 = (  -0.0000025175,   2.9070174535,  -4.5860287473)
 A3 = (   2.5175474825,  -1.4535065465,  -4.5860287473)
 
   3 primitive cells build up your supercell.
 

 Routine SETGRP: Setting up the symmetry group for a 
 hexagonal supercell.


 Subroutine GETGRP returns: Found 12 space group operations
 (whereof  6 operations were pure point group operations)
 out of a pool of 24 trial point group operations.


The magnetic configuration has the point symmetry S_6 .
 The point group associated with its full space group is D_3d.


 Subroutine INISYM returns: Found 12 space group operations
 (whereof  6 operations are pure point group operations),
 and found     3 'primitive' translations

 
 
 KPOINTS: pymatgen with grid density = 2464 / numb

Automatic generation of k-mesh.
Space group operators:
 irot       det(A)        alpha          n_x          n_y          n_z        tau_x        tau_y        tau_z
    1     1.000000     0.000000     1.000000     0.000000     0.000000     0.000000     0.000000     0.000000
    2    -1.000000     0.000000     1.000000     0.000000     0.000000     0.000000     0.000000     0.000000
    3     1.000000   120.000000     0.000000     0.000000    -1.000000     0.000000     0.000000     0.000000
    4    -1.000000   120.000000     0.000000     0.000000    -1.000000     0.000000     0.000000     0.000000
    5     1.000000   120.000000     0.000000     0.000000     1.000000     0.000000     0.000000     0.000000
    6    -1.000000   120.000000     0.000000     0.000000     1.000000     0.000000     0.000000     0.000000
    7     1.000000   180.000000     1.000000     0.000000     0.000000     0.000001    -0.000000    -0.500000
    8    -1.000000   180.000000     1.000000     0.000000     0.000000     0.000001    -0.000000    -0.500000
    9     1.000000   180.000000     0.500000    -0.866025     0.000000     0.000000     0.000000    -0.500000
   10    -1.000000   180.000000     0.500000    -0.866025     0.000000     0.000000     0.000000    -0.500000
   11     1.000000   180.000000    -0.500000    -0.866025     0.000000     0.000000     0.000000    -0.500000
   12    -1.000000   180.000000    -0.500000    -0.866025     0.000000     0.000000     0.000000    -0.500000
 
 Subroutine IBZKPT returns following result:
 ===========================================
 
 Found     14 irreducible k-points:
 
 Following reciprocal coordinates:
            Coordinates               Weight
  0.000000  0.000000  0.000000      1.000000
  0.166667  0.000000  0.000000      6.000000
  0.333333  0.000000  0.000000      6.000000
  0.500000  0.000000  0.000000      3.000000
  0.166667  0.166667  0.000000      6.000000
  0.333333  0.166667  0.000000     12.000000
  0.333333  0.333333  0.000000      2.000000
  0.000000  0.000000  0.500000      1.000000
  0.166667  0.000000  0.500000      6.000000
  0.333333  0.000000  0.500000      6.000000
  0.500000  0.000000  0.500000      3.000000
  0.166667  0.166667  0.500000      6.000000
  0.333333  0.166667  0.500000     12.000000
  0.333333  0.333333  0.500000      2.000000
 
 Following cartesian coordinates:
            Coordinates               Weight
  0.000000  0.000000  0.000000      1.000000
  0.033101  0.019111  0.000000      6.000000
  0.066202  0.038222  0.000000      6.000000
  0.099303  0.057333  0.000000      3.000000
  0.033101  0.057333  0.000000      6.000000
  0.066202  0.076443  0.000000     12.000000
  0.066202  0.114665  0.000000      2.000000
  0.000000  0.000000  0.036342      1.000000
  0.033101  0.019111  0.036342      6.000000
  0.066202  0.038222  0.036342      6.000000
  0.099303  0.057333  0.036342      3.000000
  0.033101  0.057333  0.036342      6.000000
  0.066202  0.076443  0.036342     12.000000
  0.066202  0.114665  0.036342      2.000000
 
 TETIRR: Found     71 inequivalent tetrahedra from      432


--------------------------------------------------------------------------------------------------------




 Dimension of arrays:
   k-points           NKPTS =     14   k-points in BZ     NKDIM =     14   number of bands    NBANDS=    204
   number of dos      NEDOS =    301   number of ions     NIONS =     30
   non local maximal  LDIM  =      6   non local SUM 2l+1 LMDIM =     18
   total plane-waves  NPLWV = 350000
   max r-space proj   IRMAX =  10085   max aug-charges    IRDMAX=  34512
   dimension x,y,z NGX =    50 NGY =   50 NGZ =  140
   dimension x,y,z NGXF=   100 NGYF=  100 NGZF=  280
   support grid    NGXF=   100 NGYF=  100 NGZF=  280
   ions per type =              12  18
   NGX,Y,Z   is equivalent  to a cutoff of  16.51, 16.51, 16.92 a.u.
   NGXF,Y,Z  is equivalent  to a cutoff of  33.02, 33.02, 33.83 a.u.

 SYSTEM =  unknown system                          
 POSCAR =  Fe12 O18                                

 Startparameter for this run:
   NWRITE =      2    write-flag & timer
   PREC   = accura    normal or accurate (medium, high low for compatibility)
   ISTART =      0    job   : 0-new  1-cont  2-samecut
   ICHARG =      2    charge: 1-file 2-atom 10-const
   ISPIN  =      2    spin polarized calculation?
   LNONCOLLINEAR =      F non collinear calculations
   LSORBIT =      F    spin-orbit coupling
   INIWAV =      1    electr: 0-lowe 1-rand  2-diag
   LASPH  =      F    aspherical Exc in radial PAW
   METAGGA=      F    non-selfconsistent MetaGGA calc.

 Electronic Relaxation 1
   ENCUT  =  900.0 eV  66.15 Ry    8.13 a.u.  12.32 12.32 33.65*2*pi/ulx,y,z
   ENINI  =  900.0     initial cutoff
   ENAUG  =  605.4 eV  augmentation charge cutoff
   NELM   =    100;   NELMIN=  2; NELMDL= -5     # of ELM steps 
   EDIFF  = 0.1E-06   stopping-criterion for ELM
   LREAL  =      T    real-space projection
   NLSPLINE    = F    spline interpolate recip. space projectors
   LCOMPAT=      F    compatible to vasp.4.4
   GGA_COMPAT  = T    GGA compatible to vasp.4.4-vasp.4.6
   LMAXPAW     = -100 max onsite density
   LMAXMIX     =    2 max onsite mixed and CHGCAR
   VOSKOWN=      0    Vosko Wilk Nusair interpolation
   ROPT   =   -0.00025  -0.00025
 Ionic relaxation
   EDIFFG = 0.1E-05   stopping-criterion for IOM
   NSW    =      0    number of steps for IOM
   NBLOCK =      1;   KBLOCK =      1    inner block; outer block 
   IBRION =     -1    ionic relax: 0-MD 1-quasi-New 2-CG
   NFREE  =      0    steps in history (QN), initial steepest desc. (CG)
   ISIF   =      3    stress and relaxation
   IWAVPR =     10    prediction:  0-non 1-charg 2-wave 3-comb
   ISYM   =      2    0-nonsym 1-usesym 2-fastsym
   LCORR  =      T    Harris-Foulkes like correction to forces

   POTIM  = 0.5000    time-step for ionic-motion
   TEIN   =    0.0    initial temperature
   TEBEG  =    0.0;   TEEND  =   0.0 temperature during run
   SMASS  =  -3.00    Nose mass-parameter (am)
   estimated Nose-frequenzy (Omega)   =  0.10E-29 period in steps =****** mass=  -0.579E-27a.u.
   SCALEE = 1.0000    scale energy and forces
   NPACO  =    256;   APACO  = 16.0  distance and # of slots for P.C.
   PSTRESS=    0.0 pullay stress

  Mass of Ions in am
   POMASS =  55.85 16.00
  Ionic Valenz
   ZVAL   =  14.00  6.00
  Atomic Wigner-Seitz radii
   RWIGS  =  -1.00 -1.00
  virtual crystal weights 
   VCA    =   1.00  1.00
   NELECT =     276.0000    total number of electrons
   NUPDOWN=      -1.0000    fix difference up-down

 DOS related values:
   EMIN   =  10.00;   EMAX   =-10.00  energy-range for DOS
   EFERMI =   0.00
   ISMEAR =    -5;   SIGMA  =   0.05  broadening in eV -4-tet -1-fermi 0-gaus

 Electronic relaxation 2 (details)
   IALGO  =     38    algorithm
   LDIAG  =      T    sub-space diagonalisation (order eigenvalues)
   LSUBROT=      F    optimize rotation matrix (better conditioning)
   TURBO    =      0    0=normal 1=particle mesh
   IRESTART =      0    0=no restart 2=restart with 2 vectors
   NREBOOT  =      0    no. of reboots
   NMIN     =      0    reboot dimension
   EREF     =   0.00    reference energy to select bands
   IMIX   =      4    mixing-type and parameters
     AMIX     =   0.40;   BMIX     =  1.00
     AMIX_MAG =   1.60;   BMIX_MAG =  1.00
     AMIN     =   0.10
     WC   =   100.;   INIMIX=   1;  MIXPRE=   1;  MAXMIX= -45

 Intra band minimization:
   WEIMIN = 0.0000     energy-eigenvalue tresh-hold
   EBREAK =  0.12E-09  absolut break condition
   DEPER  =   0.30     relativ break condition  

   TIME   =   0.40     timestep for ELM

  volume/ion in A,a.u.               =      10.07        67.95
  Fermi-wavevector in a.u.,A,eV,Ry     =   1.588581  3.001983 34.335534  2.523591
  Thomas-Fermi vector in A             =   2.687563
 
 Write flags
   LWAVE        =      F    write WAVECAR
   LDOWNSAMPLE  =      F    k-point downsampling of WAVECAR
   LCHARG       =      F    write CHGCAR
   LVTOT        =      F    write LOCPOT, total local potential
   LVHAR        =      F    write LOCPOT, Hartree potential only
   LELF         =      F    write electronic localiz. function (ELF)
   LORBIT       =     11    0 simple, 1 ext, 2 COOP (PROOUT), +10 PAW based schemes


 Dipole corrections
   LMONO  =      F    monopole corrections only (constant potential shift)
   LDIPOL =      F    correct potential (dipole corrections)
   IDIPOL =      0    1-x, 2-y, 3-z, 4-all directions 
   EPSILON=  1.0000000 bulk dielectric constant

 Exchange correlation treatment:
   GGA     =    --    GGA type
   LEXCH   =     8    internal setting for exchange type
   VOSKOWN=      0    Vosko Wilk Nusair interpolation
   LHFCALC =     F    Hartree Fock is set to
   LHFONE  =     F    Hartree Fock one center treatment
   AEXX    =    0.0000 exact exchange contribution

 Linear response parameters
   LEPSILON=     F    determine dielectric tensor
   LRPA    =     F    only Hartree local field effects (RPA)
   LNABLA  =     F    use nabla operator in PAW spheres
   LVEL    =     F    velocity operator in full k-point grid
   LINTERFAST=   F  fast interpolation
   KINTER  =     0    interpolate to denser k-point grid
   CSHIFT  =0.1000    complex shift for real part using Kramers Kronig
   OMEGAMAX=  -1.0    maximum frequency
   DEG_THRESHOLD= 0.2000000E-02 threshold for treating states as degnerate
   RTIME   =   -0.100 relaxation time in fs
  (WPLASMAI=    0.000 imaginary part of plasma frequency in eV, 0.658/RTIME)
   DFIELD  = 0.0000000 0.0000000 0.0000000 field for delta impulse in time
 
 Orbital magnetization related:
   ORBITALMAG=     F  switch on orbital magnetization
   LCHIMAG   =     F  perturbation theory with respect to B field
   DQ        =  0.001000  dq finite difference perturbation B field
   LLRAUG    =     F  two centre corrections for induced B field



--------------------------------------------------------------------------------------------------------


 Static calculation
 charge density and potential will be updated during run
 spin polarized calculation
 Variant of blocked Davidson
 Davidson routine will perform the subspace rotation
 perform sub-space diagonalisation
    after iterative eigenvector-optimisation
 modified Broyden-mixing scheme, WC =      100.0
 initial mixing is a Kerker type mixing with AMIX =  0.4000 and BMIX =      1.0000
 Hartree-type preconditioning will be used
 using additional bands           66
 real space projection scheme for non local part
 use partial core corrections
 calculate Harris-corrections to forces 
   (improved forces if not selfconsistent)
 use gradient corrections 
 use of overlap-Matrix (Vanderbilt PP)
 Fermi weights with tetrahedron method with Bloechl corrections


--------------------------------------------------------------------------------------------------------


  energy-cutoff  :      900.00
  volume of cell :      302.07
      direct lattice vectors                 reciprocal lattice vectors
     5.035100000  0.000000000  0.000000000     0.198605787  0.114665118  0.000000000
    -2.517550000  4.360524000  0.000000000     0.000000000  0.229330236  0.000000000
     0.000000000  0.000000000 13.758100000     0.000000000  0.000000000  0.072684455

  length of vectors
     5.035100000  5.035099558 13.758100000     0.229330216  0.229330236  0.072684455


 
 k-points in units of 2pi/SCALE and weight: pymatgen with grid density = 2464 / numb
   0.00000000  0.00000000  0.00000000       0.014
   0.03310096  0.01911085  0.00000000       0.083
   0.06620193  0.03822171  0.00000000       0.083
   0.09930289  0.05733256  0.00000000       0.042
   0.03310096  0.05733256  0.00000000       0.083
   0.06620193  0.07644341  0.00000000       0.167
   0.06620193  0.11466512  0.00000000       0.028
   0.00000000  0.00000000  0.03634223       0.014
   0.03310096  0.01911085  0.03634223       0.083
   0.06620193  0.03822171  0.03634223       0.083
   0.09930289  0.05733256  0.03634223       0.042
   0.03310096  0.05733256  0.03634223       0.083
   0.06620193  0.07644341  0.03634223       0.167
   0.06620193  0.11466512  0.03634223       0.028
 
 k-points in reciprocal lattice and weights: pymatgen with grid density = 2464 / numb
   0.00000000  0.00000000  0.00000000       0.014
   0.16666667  0.00000000  0.00000000       0.083
   0.33333333  0.00000000  0.00000000       0.083
   0.50000000  0.00000000  0.00000000       0.042
   0.16666667  0.16666667  0.00000000       0.083
   0.33333333  0.16666667  0.00000000       0.167
   0.33333333  0.33333333  0.00000000       0.028
   0.00000000  0.00000000  0.50000000       0.014
   0.16666667  0.00000000  0.50000000       0.083
   0.33333333  0.00000000  0.50000000       0.083
   0.50000000  0.00000000  0.50000000       0.042
   0.16666667  0.16666667  0.50000000       0.083
   0.33333333  0.16666667  0.50000000       0.167
   0.33333333  0.33333333  0.50000000       0.028
 
 position of ions in fractional coordinates (direct lattice) 
   0.00000000  0.00000000  0.35532000
   0.00000000  0.00000000  0.64468000
   0.33333300  0.66666700  0.02198700
   0.66666700  0.33333300  0.68865300
   0.33333300  0.66666700  0.31134700
   0.66666700  0.33333300  0.97801300
   0.00000000  0.00000000  0.14468000
   0.00000000  0.00000000  0.85532000
   0.33333300  0.66666700  0.81134700
   0.33333300  0.66666700  0.52198700
   0.66666700  0.33333300  0.47801300
   0.66666700  0.33333300  0.18865300
   0.30618000  0.00000000  0.25000000
   0.69382000  0.00000000  0.75000000
   0.63951300  0.66666700  0.91666700
   0.97284700  0.33333300  0.58333300
   0.02715300  0.66666700  0.41666700
   0.36048700  0.33333300  0.08333300
   0.00000000  0.30618000  0.25000000
   0.00000000  0.69382000  0.75000000
   0.33333300  0.97284700  0.91666700
   0.66666700  0.63951300  0.58333300
   0.33333300  0.36048700  0.41666700
   0.66666700  0.02715300  0.08333300
   0.69382000  0.69382000  0.25000000
   0.30618000  0.30618000  0.75000000
   0.02715300  0.36048700  0.91666700
   0.63951300  0.97284700  0.41666700
   0.36048700  0.02715300  0.58333300
   0.97284700  0.63951300  0.08333300
 
 position of ions in cartesian coordinates  (Angst):
   0.00000000  0.00000000  4.88852809
   0.00000000  0.00000000  8.86957191
  -0.00000252  2.90701745  0.30249934
   2.51755252  1.45350655  9.47455684
  -0.00000252  2.90701745  4.28354316
   2.51755252  1.45350655 13.45560066
   0.00000000  0.00000000  1.99052191
   0.00000000  0.00000000 11.76757809
  -0.00000252  2.90701745 11.16259316
  -0.00000252  2.90701745  7.18154934
   2.51755252  1.45350655  6.57655066
   2.51755252  1.45350655  2.59550684
   1.54164692  0.00000000  3.43952500
   3.49345308  0.00000000 10.31857500
   1.54164440  2.90701745 12.61159625
   4.05919944  1.45350655  8.02555375
  -1.54164944  2.90701745  5.73254625
   0.97590560  1.45350655  1.14650375
  -0.77082346  1.33510524  3.43952500
  -1.74672654  3.02541876 10.31857500
  -0.77082598  4.24212269 12.61159625
   1.74672906  2.78861178  8.02555375
   0.77082094  1.57191222  5.73254625
   3.28837598  0.11840131  1.14650375
   1.74672654  3.02541876  3.43952500
   0.77082346  1.33510524 10.31857500
  -0.77082598  1.57191222 12.61159625
   0.77082094  4.24212269  5.73254625
   1.74672906  0.11840131  8.02555375
   3.28837598  2.78861178  1.14650375
 


--------------------------------------------------------------------------------------------------------


 k-point  1 :   0.0000 0.0000 0.0000  plane waves:   18595
 k-point  2 :   0.1667 0.0000 0.0000  plane waves:   18511
 k-point  3 :   0.3333 0.0000 0.0000  plane waves:   18511
 k-point  4 :   0.5000 0.0000 0.0000  plane waves:   18558
 k-point  5 :   0.1667 0.1667 0.0000  plane waves:   18522
 k-point  6 :   0.3333 0.1667 0.0000  plane waves:   18504
 k-point  7 :   0.3333 0.3333 0.0000  plane waves:   18474
 k-point  8 :   0.0000 0.0000 0.5000  plane waves:   18584
 k-point  9 :   0.1667 0.0000 0.5000  plane waves:   18524
 k-point 10 :   0.3333 0.0000 0.5000  plane waves:   18508
 k-point 11 :   0.5000 0.0000 0.5000  plane waves:   18496
 k-point 12 :   0.1667 0.1667 0.5000  plane waves:   18512
 k-point 13 :   0.3333 0.1667 0.5000  plane waves:   18524
 k-point 14 :   0.3333 0.3333 0.5000  plane waves:   18516

 maximum and minimum number of plane-waves per node :      4669     4590

 maximum number of plane-waves:     18595
 maximum index in each direction: 
   IXMAX=   12   IYMAX=   12   IZMAX=   33
   IXMIN=  -12   IYMIN=  -12   IZMIN=  -34


 real space projection operators:
  total allocation   :      21347.44 KBytes
  max/ min on nodes  :       5566.75       5098.50


 parallel 3D FFT for wavefunctions:
    minimum data exchange during FFTs selected (reduces bandwidth)
 parallel 3D FFT for charge:
    minimum data exchange during FFTs selected (reduces bandwidth)


 total amount of memory used by VASP MPI-rank0   140213. kBytes
=======================================================================

   base      :      30000. kBytes
   nonlr-proj:      11957. kBytes
   fftplans  :       7245. kBytes
   grid      :      18564. kBytes
   one-center:        248. kBytes
   wavefun   :      72199. kBytes
 
     INWAV:  cpu time    0.0000: real time    0.0001
 Broyden mixing: mesh for mixing (old mesh)
   NGX = 25   NGY = 25   NGZ = 67
  (NGX  =100   NGY  =100   NGZ  =280)
  gives a total of  41875 points

 initial charge density was supplied:
 charge density of overlapping atoms calculated
 number of electron     276.0000000 magnetization      70.8000000
 keeping initial charge density in first step


--------------------------------------------------------------------------------------------------------


 Maximum index for non-local projection operator         2687
 Maximum index for augmentation-charges         2258 (set IRDMAX)


--------------------------------------------------------------------------------------------------------


 First call to EWALD:  gamma=   0.264
 Maximum number of real-space cells 4x 4x 2
 Maximum number of reciprocal cells 2x 2x 5

    FEWALD:  cpu time    0.0016: real time    0.0016


--------------------------------------- Iteration      1(   1)  ---------------------------------------


    POTLOK:  cpu time    0.1746: real time    0.1762
    SETDIJ:  cpu time    0.0187: real time    0.0187
     EDDAV:  cpu time   24.1300: real time   24.2046
 BZINTS: Fermi energy: 33.630161;276.000000 electrons
         Band energy:2140.232578;  BLOECHL correction: -0.082591
       DOS:  cpu time    0.0437: real time    0.0438
    --------------------------------------------
      LOOP:  cpu time   24.3669: real time   24.4434

 eigenvalue-minimisations  : 11460
 total energy-change (2. order) : 0.5156901E+04  (-0.1891627E+05)
 number of electron     276.0000000 magnetization      70.8000000
 augmentation part      276.0000000 magnetization      70.8000000

 Free energy of the ion-electron system (eV)
  ---------------------------------------------------
  alpha Z        PSCENC =      1362.55286497
  Ewald energy   TEWEN  =    -25513.06237826
  -Hartree energ DENC   =    -10371.14386019
  -exchange      EXHF   =         0.00000000
  -V(xc)+E(xc)   XCENC  =      1375.27777967
  PAW double counting   =     30224.59406688   -31333.39571732
  entropy T*S    EENTRO =         0.00000000
  eigenvalues    EBANDS =      2140.23257846
  atomic energy  EATOM  =     37271.84599506
  Solvation  Ediel_sol  =         0.00000000
  ---------------------------------------------------
  free energy    TOTEN  =      5156.90132926 eV

  energy without entropy =     5156.90132926  energy(sigma->0) =     5156.90132926


--------------------------------------------------------------------------------------------------------




--------------------------------------- Iteration      1(   2)  ---------------------------------------


     EDDAV:  cpu time   24.2779: real time   24.3447
 BZINTS: Fermi energy: 12.347700;276.000000 electrons
         Band energy:***********;  BLOECHL correction: -0.036665
       DOS:  cpu time    0.0488: real time    0.0489
    --------------------------------------------
      LOOP:  cpu time   24.3267: real time   24.3936

 eigenvalue-minimisations  : 11424
 total energy-change (2. order) :-0.4479968E+04  (-0.4110610E+04)
 number of electron     276.0000000 magnetization      70.8000000
 augmentation part      276.0000000 magnetization      70.8000000

 Free energy of the ion-electron system (eV)
  ---------------------------------------------------
  alpha Z        PSCENC =      1362.55286497
  Ewald energy   TEWEN  =    -25513.06237826
  -Hartree energ DENC   =    -10371.14386019
  -exchange      EXHF   =         0.00000000
  -V(xc)+E(xc)   XCENC  =      1375.27777967
  PAW double counting   =     30224.59406688   -31333.39571732
  entropy T*S    EENTRO =         0.00000000
  eigenvalues    EBANDS =     -2339.73493221
  atomic energy  EATOM  =     37271.84599506
  Solvation  Ediel_sol  =         0.00000000
  ---------------------------------------------------
  free energy    TOTEN  =       676.93381859 eV

  energy without entropy =      676.93381859  energy(sigma->0) =      676.93381859


--------------------------------------------------------------------------------------------------------




--------------------------------------- Iteration      1(   3)  ---------------------------------------


     EDDAV:  cpu time   26.0629: real time   26.1297
 BZINTS: Fermi energy:  8.831231;276.000000 electrons
         Band energy:***********;  BLOECHL correction:  0.000000
       DOS:  cpu time    0.0073: real time    0.0073
    --------------------------------------------
      LOOP:  cpu time   26.0702: real time   26.1370

 eigenvalue-minimisations  : 11784
 total energy-change (2. order) :-0.8976340E+03  (-0.7710016E+03)
 number of electron     276.0000000 magnetization      70.8000000
 augmentation part      276.0000000 magnetization      70.8000000

 Free energy of the ion-electron system (eV)
  ---------------------------------------------------
  alpha Z        PSCENC =      1362.55286497
  Ewald energy   TEWEN  =    -25513.06237826
  -Hartree energ DENC   =    -10371.14386019
  -exchange      EXHF   =         0.00000000
  -V(xc)+E(xc)   XCENC  =      1375.27777967
  PAW double counting   =     30224.59406688   -31333.39571732
  entropy T*S    EENTRO =         0.00000000
  eigenvalues    EBANDS =     -3237.36891782
  atomic energy  EATOM  =     37271.84599506
  Solvation  Ediel_sol  =         0.00000000
  ---------------------------------------------------
  free energy    TOTEN  =      -220.70016702 eV

  energy without entropy =     -220.70016702  energy(sigma->0) =     -220.70016702


--------------------------------------------------------------------------------------------------------




--------------------------------------- Iteration      1(   4)  ---------------------------------------


     EDDAV:  cpu time   27.8031: real time   27.8755
 BZINTS: Fermi energy:  8.255864;276.000000 electrons
         Band energy:***********;  BLOECHL correction:  0.000000
       DOS:  cpu time    0.0077: real time    0.0077
    --------------------------------------------
      LOOP:  cpu time   27.8108: real time   27.8832

 eigenvalue-minimisations  : 12960
 total energy-change (2. order) :-0.7293095E+02  (-0.7200447E+02)
 number of electron     276.0000000 magnetization      70.8000000
 augmentation part      276.0000000 magnetization      70.8000000

 Free energy of the ion-electron system (eV)
  ---------------------------------------------------
  alpha Z        PSCENC =      1362.55286497
  Ewald energy   TEWEN  =    -25513.06237826
  -Hartree energ DENC   =    -10371.14386019
  -exchange      EXHF   =         0.00000000
  -V(xc)+E(xc)   XCENC  =      1375.27777967
  PAW double counting   =     30224.59406688   -31333.39571732
  entropy T*S    EENTRO =         0.00000000
  eigenvalues    EBANDS =     -3310.29986636
  atomic energy  EATOM  =     37271.84599506
  Solvation  Ediel_sol  =         0.00000000
  ---------------------------------------------------
  free energy    TOTEN  =      -293.63111555 eV

  energy without entropy =     -293.63111555  energy(sigma->0) =     -293.63111555


--------------------------------------------------------------------------------------------------------




--------------------------------------- Iteration      1(   5)  ---------------------------------------


     EDDAV:  cpu time   27.9028: real time   27.9738
 BZINTS: Fermi energy:  8.161398;276.000000 electrons
         Band energy:***********;  BLOECHL correction:  0.000000
       DOS:  cpu time    0.0064: real time    0.0064
    CHARGE:  cpu time    1.0784: real time    1.0811
    MIXING:  cpu time    0.0039: real time    0.0040
    --------------------------------------------
      LOOP:  cpu time   28.9915: real time   29.0654

 eigenvalue-minimisations  : 12684
 total energy-change (2. order) :-0.8867265E+00  (-0.8837633E+00)
 number of electron     275.9999998 magnetization      67.8179405
 augmentation part      108.0139032 magnetization      47.0438546

 Broyden mixing:
  rms(total) = 0.80930E+01    rms(broyden)= 0.80930E+01
  rms(prec ) = 0.88390E+01
  weight for this iteration     100.00

 Free energy of the ion-electron system (eV)
  ---------------------------------------------------
  alpha Z        PSCENC =      1362.55286497
  Ewald energy   TEWEN  =    -25513.06237826
  -Hartree energ DENC   =    -10371.14386019
  -exchange      EXHF   =         0.00000000
  -V(xc)+E(xc)   XCENC  =      1375.27777967
  PAW double counting   =     30224.59406688   -31333.39571732
  entropy T*S    EENTRO =         0.00000000
  eigenvalues    EBANDS =     -3311.18659287
  atomic energy  EATOM  =     37271.84599506
  Solvation  Ediel_sol  =         0.00000000
  ---------------------------------------------------
  free energy    TOTEN  =      -294.51784207 eV

  energy without entropy =     -294.51784207  energy(sigma->0) =     -294.51784207


--------------------------------------------------------------------------------------------------------




--------------------------------------- Iteration      1(   6)  ---------------------------------------


    POTLOK:  cpu time    0.1800: real time    0.1805
    SETDIJ:  cpu time    0.0181: real time    0.0181
     EDDAV:  cpu time   30.9668: real time   31.0451
 BZINTS: Fermi energy:  5.534950;276.000000 electrons
         Band energy:***********;  BLOECHL correction: -0.054526
       DOS:  cpu time    0.0522: real time    0.0523
    CHARGE:  cpu time    1.1081: real time    1.1108
    MIXING:  cpu time    0.0039: real time    0.0039
    --------------------------------------------
      LOOP:  cpu time   32.3290: real time   32.4107

 eigenvalue-minimisations  : 14796
 total energy-change (2. order) : 0.5924499E+02  (-0.2528073E+02)
 number of electron     275.9999997 magnetization      62.9798808
 augmentation part      120.7045826 magnetization      54.4144212

 Broyden mixing:
  rms(total) = 0.91186E+01    rms(broyden)= 0.91186E+01
  rms(prec ) = 0.97672E+01
  weight for this iteration     100.00

 eigenvalues of (default mixing * dielectric matrix)
  average eigenvalue GAMMA=   0.3187
  0.3187

 Free energy of the ion-electron system (eV)
  ---------------------------------------------------
  alpha Z        PSCENC =      1362.55286497
  Ewald energy   TEWEN  =    -25513.06237826
  -Hartree energ DENC   =     -9965.67333516
  -exchange      EXHF   =         0.00000000
  -V(xc)+E(xc)   XCENC  =      1376.63600929
  PAW double counting   =     31436.01679169   -32502.91347833
  entropy T*S    EENTRO =         0.00000000
  eigenvalues    EBANDS =     -3700.67532510
  atomic energy  EATOM  =     37271.84599506
  Solvation  Ediel_sol  =         0.00000000
  ---------------------------------------------------
  free energy    TOTEN  =      -235.27285583 eV

  energy without entropy =     -235.27285583  energy(sigma->0) =     -235.27285583


--------------------------------------------------------------------------------------------------------




--------------------------------------- Iteration      1(   7)  ---------------------------------------


    POTLOK:  cpu time    0.1791: real time    0.1821
    SETDIJ:  cpu time    0.0183: real time    0.0183
     EDDAV:  cpu time   26.5131: real time   26.5802
 BZINTS: Fermi energy:  7.079081;276.000000 electrons
         Band energy:***********;  BLOECHL correction: -0.036361
       DOS:  cpu time    0.0441: real time    0.0442
    CHARGE:  cpu time    1.0812: real time    1.0840
    MIXING:  cpu time    0.0037: real time    0.0037
    --------------------------------------------
      LOOP:  cpu time   27.8396: real time   27.9124

 eigenvalue-minimisations  : 12264
 total energy-change (2. order) : 0.2320733E+02  (-0.1141595E+02)
 number of electron     275.9999997 magnetization      58.7850106
 augmentation part      109.3457889 magnetization      40.3303141

 Broyden mixing:
  rms(total) = 0.43712E+01    rms(broyden)= 0.43712E+01
  rms(prec ) = 0.45310E+01
  weight for this iteration     100.00

 eigenvalues of (default mixing * dielectric matrix)
  average eigenvalue GAMMA=   0.6788
  1.0272  0.3304

 Free energy of the ion-electron system (eV)
  ---------------------------------------------------
  alpha Z        PSCENC =      1362.55286497
  Ewald energy   TEWEN  =    -25513.06237826
  -Hartree energ DENC   =    -10207.49950281
  -exchange      EXHF   =         0.00000000
  -V(xc)+E(xc)   XCENC  =      1372.38727612
  PAW double counting   =     32868.33342865   -33996.77263519
  entropy T*S    EENTRO =         0.00000000
  eigenvalues    EBANDS =     -3369.85057579
  atomic energy  EATOM  =     37271.84599506
  Solvation  Ediel_sol  =         0.00000000
  ---------------------------------------------------
  free energy    TOTEN  =      -212.06552724 eV

  energy without entropy =     -212.06552724  energy(sigma->0) =     -212.06552724


--------------------------------------------------------------------------------------------------------




--------------------------------------- Iteration      1(   8)  ---------------------------------------


    POTLOK:  cpu time    0.1765: real time    0.1770
    SETDIJ:  cpu time    0.0183: real time    0.0183
     EDDAV:  cpu time   26.2888: real time   26.3552
 BZINTS: Fermi energy:  6.445604;276.000000 electrons
         Band energy:***********;  BLOECHL correction: -0.034170
       DOS:  cpu time    0.0513: real time    0.0514
    CHARGE:  cpu time    1.0980: real time    1.1008
    MIXING:  cpu time    0.0037: real time    0.0037
    --------------------------------------------
      LOOP:  cpu time   27.6366: real time   27.7065

 eigenvalue-minimisations  : 12096
 total energy-change (2. order) :-0.6257910E+01  (-0.2142096E+01)
 number of electron     275.9999997 magnetization      51.9501295
 augmentation part      111.2656278 magnetization      35.0292324

 Broyden mixing:
  rms(total) = 0.26527E+01    rms(broyden)= 0.26527E+01
  rms(prec ) = 0.27130E+01
  weight for this iteration     100.00

 eigenvalues of (default mixing * dielectric matrix)
  average eigenvalue GAMMA=   1.0724
  2.2536  0.5799  0.3835

 Free energy of the ion-electron system (eV)
  ---------------------------------------------------
  alpha Z        PSCENC =      1362.55286497
  Ewald energy   TEWEN  =    -25513.06237826
  -Hartree energ DENC   =    -10072.34719295
  -exchange      EXHF   =         0.00000000
  -V(xc)+E(xc)   XCENC  =      1366.37474685
  PAW double counting   =     34226.22734951   -35366.40268049
  entropy T*S    EENTRO =         0.00000000
  eigenvalues    EBANDS =     -3493.51214191
  atomic energy  EATOM  =     37271.84599506
  Solvation  Ediel_sol  =         0.00000000
  ---------------------------------------------------
  free energy    TOTEN  =      -218.32343722 eV

  energy without entropy =     -218.32343722  energy(sigma->0) =     -218.32343722


--------------------------------------------------------------------------------------------------------




--------------------------------------- Iteration      1(   9)  ---------------------------------------


    POTLOK:  cpu time    0.1790: real time    0.1795
    SETDIJ:  cpu time    0.0182: real time    0.0182
     EDDAV:  cpu time   26.9881: real time   27.0562
 BZINTS: Fermi energy:  5.881580;276.000000 electrons
         Band energy:***********;  BLOECHL correction: -0.038344
       DOS:  cpu time    0.0519: real time    0.0520
    CHARGE:  cpu time    1.0970: real time    1.0997
    MIXING:  cpu time    0.0041: real time    0.0041
    --------------------------------------------
      LOOP:  cpu time   28.3381: real time   28.4097

 eigenvalue-minimisations  : 12576
 total energy-change (2. order) :-0.4180133E+01  (-0.8214272E+00)
 number of electron     275.9999997 magnetization      50.9237712
 augmentation part      114.1255693 magnetization      37.7911076

 Broyden mixing:
  rms(total) = 0.27057E+01    rms(broyden)= 0.27057E+01
  rms(prec ) = 0.28349E+01
  weight for this iteration     100.00

 eigenvalues of (default mixing * dielectric matrix)
  average eigenvalue GAMMA=   1.1014
  2.8500  0.8032  0.3761  0.3761

 Free energy of the ion-electron system (eV)
  ---------------------------------------------------
  alpha Z        PSCENC =      1362.55286497
  Ewald energy   TEWEN  =    -25513.06237826
  -Hartree energ DENC   =     -9933.69129312
  -exchange      EXHF   =         0.00000000
  -V(xc)+E(xc)   XCENC  =      1362.37080265
  PAW double counting   =     36509.90694278   -37678.89160657
  entropy T*S    EENTRO =         0.00000000
  eigenvalues    EBANDS =     -3603.53489766
  atomic energy  EATOM  =     37271.84599506
  Solvation  Ediel_sol  =         0.00000000
  ---------------------------------------------------
  free energy    TOTEN  =      -222.50357015 eV

  energy without entropy =     -222.50357015  energy(sigma->0) =     -222.50357015


--------------------------------------------------------------------------------------------------------




--------------------------------------- Iteration      1(  10)  ---------------------------------------


    POTLOK:  cpu time    0.1784: real time    0.1793
    SETDIJ:  cpu time    0.0184: real time    0.0186
     EDDAV:  cpu time   27.2470: real time   27.3218
 BZINTS: Fermi energy:  5.958882;276.000000 electrons
         Band energy:***********;  BLOECHL correction: -0.037099
       DOS:  cpu time    0.0527: real time    0.0528
    CHARGE:  cpu time    1.0983: real time    1.1011
    MIXING:  cpu time    0.0039: real time    0.0040
    --------------------------------------------
      LOOP:  cpu time   28.5988: real time   28.6775

 eigenvalue-minimisations  : 12564
 total energy-change (2. order) : 0.3327642E+00  (-0.2454552E+00)
 number of electron     275.9999997 magnetization      50.6200410
 augmentation part      113.4160129 magnetization      37.3068116

 Broyden mixing:
  rms(total) = 0.18581E+01    rms(broyden)= 0.18581E+01
  rms(prec ) = 0.19685E+01
  weight for this iteration     100.00

 eigenvalues of (default mixing * dielectric matrix)
  average eigenvalue GAMMA=   1.0181
  2.6175  0.3741  0.7704  0.6641  0.6641

 Free energy of the ion-electron system (eV)
  ---------------------------------------------------
  alpha Z        PSCENC =      1362.55286497
  Ewald energy   TEWEN  =    -25513.06237826
  -Hartree energ DENC   =     -9949.20872359
  -exchange      EXHF   =         0.00000000
  -V(xc)+E(xc)   XCENC  =      1360.92252154
  PAW double counting   =     36547.02564648   -37719.37048484
  entropy T*S    EENTRO =         0.00000000
  eigenvalues    EBANDS =     -3582.87624727
  atomic energy  EATOM  =     37271.84599506
  Solvation  Ediel_sol  =         0.00000000
  ---------------------------------------------------
  free energy    TOTEN  =      -222.17080590 eV

  energy without entropy =     -222.17080590  energy(sigma->0) =     -222.17080590


--------------------------------------------------------------------------------------------------------




--------------------------------------- Iteration      1(  11)  ---------------------------------------


    POTLOK:  cpu time    0.1789: real time    0.1794
    SETDIJ:  cpu time    0.0180: real time    0.0180
     EDDAV:  cpu time   30.1083: real time   30.1843
 BZINTS: Fermi energy:  6.019811;276.000000 electrons
         Band energy:***********;  BLOECHL correction: -0.033987
       DOS:  cpu time    0.0464: real time    0.0465
    CHARGE:  cpu time    1.0859: real time    1.0889
    MIXING:  cpu time    0.0039: real time    0.0039
    --------------------------------------------
      LOOP:  cpu time   31.4414: real time   31.5210

 eigenvalue-minimisations  : 14304
 total energy-change (2. order) : 0.5619886E+00  (-0.2264793E-01)
 number of electron     275.9999997 magnetization      49.3115427
 augmentation part      112.9982314 magnetization      35.6148817

 Broyden mixing:
  rms(total) = 0.12184E+01    rms(broyden)= 0.12184E+01
  rms(prec ) = 0.12917E+01
  weight for this iteration     100.00

 eigenvalues of (default mixing * dielectric matrix)
  average eigenvalue GAMMA=   1.0453
  2.5827  0.9712  0.9712  0.3792  0.7999  0.5674

 Free energy of the ion-electron system (eV)
  ---------------------------------------------------
  alpha Z        PSCENC =      1362.55286497
  Ewald energy   TEWEN  =    -25513.06237826
  -Hartree energ DENC   =     -9960.26936540
  -exchange      EXHF   =         0.00000000
  -V(xc)+E(xc)   XCENC  =      1360.25096686
  PAW double counting   =     36378.30813455   -37548.65745888
  entropy T*S    EENTRO =         0.00000000
  eigenvalues    EBANDS =     -3572.57757618
  atomic energy  EATOM  =     37271.84599506
  Solvation  Ediel_sol  =         0.00000000
  ---------------------------------------------------
  free energy    TOTEN  =      -221.60881728 eV

  energy without entropy =     -221.60881728  energy(sigma->0) =     -221.60881728


--------------------------------------------------------------------------------------------------------




--------------------------------------- Iteration      1(  12)  ---------------------------------------


    POTLOK:  cpu time    0.1761: real time    0.1781
    SETDIJ:  cpu time    0.0182: real time    0.0183
     EDDAV:  cpu time   31.4408: real time   31.5217
 BZINTS: Fermi energy:  6.079412;276.000000 electrons
         Band energy:***********;  BLOECHL correction: -0.033297
       DOS:  cpu time    0.0531: real time    0.0532
    CHARGE:  cpu time    1.1007: real time    1.1035
    MIXING:  cpu time    0.0042: real time    0.0042
    --------------------------------------------
      LOOP:  cpu time   32.7932: real time   32.8790

 eigenvalue-minimisations  : 15240
 total energy-change (2. order) : 0.2028926E+00  (-0.1962001E-01)
 number of electron     275.9999997 magnetization      46.8883033
 augmentation part      112.6780043 magnetization      33.0884802

 Broyden mixing:
  rms(total) = 0.84288E+00    rms(broyden)= 0.84288E+00
  rms(prec ) = 0.88379E+00
  weight for this iteration     100.00

 eigenvalues of (default mixing * dielectric matrix)
  average eigenvalue GAMMA=   1.0965
  2.1585  1.5580  1.5580  0.3778  0.7521  0.6356  0.6356

 Free energy of the ion-electron system (eV)
  ---------------------------------------------------
  alpha Z        PSCENC =      1362.55286497
  Ewald energy   TEWEN  =    -25513.06237826
  -Hartree energ DENC   =     -9973.22634736
  -exchange      EXHF   =         0.00000000
  -V(xc)+E(xc)   XCENC  =      1359.60319400
  PAW double counting   =     36263.22135220   -37432.51631182
  entropy T*S    EENTRO =         0.00000000
  eigenvalues    EBANDS =     -3559.82429348
  atomic energy  EATOM  =     37271.84599506
  Solvation  Ediel_sol  =         0.00000000
  ---------------------------------------------------
  free energy    TOTEN  =      -221.40592470 eV

  energy without entropy =     -221.40592470  energy(sigma->0) =     -221.40592470


--------------------------------------------------------------------------------------------------------




--------------------------------------- Iteration      1(  13)  ---------------------------------------


    POTLOK:  cpu time    0.1786: real time    0.1807
    SETDIJ:  cpu time    0.0185: real time    0.0185
     EDDAV:  cpu time   29.8550: real time   29.9329
 BZINTS: Fermi energy:  6.138506;276.000000 electrons
         Band energy:***********;  BLOECHL correction: -0.034417
       DOS:  cpu time    0.0514: real time    0.0515
    CHARGE:  cpu time    1.0797: real time    1.0825
    MIXING:  cpu time    0.0045: real time    0.0045
    --------------------------------------------
      LOOP:  cpu time   31.1876: real time   31.2705

 eigenvalue-minimisations  : 13968
 total energy-change (2. order) : 0.9742365E-03  (-0.1116845E-01)
 number of electron     275.9999997 magnetization      43.9917804
 augmentation part      112.4092070 magnetization      30.4378683

 Broyden mixing:
  rms(total) = 0.46864E+00    rms(broyden)= 0.46864E+00
  rms(prec ) = 0.49197E+00
  weight for this iteration     100.00

 eigenvalues of (default mixing * dielectric matrix)
  average eigenvalue GAMMA=   1.3934
  3.4307  3.4307  0.3782  0.9289  0.9289  0.7249  0.7249  0.5999

 Free energy of the ion-electron system (eV)
  ---------------------------------------------------
  alpha Z        PSCENC =      1362.55286497
  Ewald energy   TEWEN  =    -25513.06237826
  -Hartree energ DENC   =     -9991.12443167
  -exchange      EXHF   =         0.00000000
  -V(xc)+E(xc)   XCENC  =      1358.78771031
  PAW double counting   =     36035.98141306   -37202.26040755
  entropy T*S    EENTRO =         0.00000000
  eigenvalues    EBANDS =     -3544.12571638
  atomic energy  EATOM  =     37271.84599506
  Solvation  Ediel_sol  =         0.00000000
  ---------------------------------------------------
  free energy    TOTEN  =      -221.40495046 eV

  energy without entropy =     -221.40495046  energy(sigma->0) =     -221.40495046


--------------------------------------------------------------------------------------------------------




--------------------------------------- Iteration      1(  14)  ---------------------------------------


    POTLOK:  cpu time    0.1750: real time    0.1764
    SETDIJ:  cpu time    0.0185: real time    0.0185
     EDDAV:  cpu time   31.2910: real time   31.3754
 BZINTS: Fermi energy:  6.171063;276.000000 electrons
         Band energy:***********;  BLOECHL correction: -0.032767
       DOS:  cpu time    0.0518: real time    0.0519
    CHARGE:  cpu time    1.0966: real time    1.1023
    MIXING:  cpu time    0.0049: real time    0.0049
    --------------------------------------------
      LOOP:  cpu time   32.6377: real time   32.7294

 eigenvalue-minimisations  : 15000
 total energy-change (2. order) :-0.4442193E-01  (-0.1522879E-01)
 number of electron     275.9999997 magnetization      43.0757037
 augmentation part      112.2246624 magnetization      29.9067402

 Broyden mixing:
  rms(total) = 0.18182E+00    rms(broyden)= 0.18182E+00
  rms(prec ) = 0.18950E+00
  weight for this iteration     100.00

 eigenvalues of (default mixing * dielectric matrix)
  average eigenvalue GAMMA=   1.5051
  5.3573  2.7801  1.2168  0.3781  0.8406  0.8406  0.8833  0.6246  0.6246

 Free energy of the ion-electron system (eV)
  ---------------------------------------------------
  alpha Z        PSCENC =      1362.55286497
  Ewald energy   TEWEN  =    -25513.06237826
  -Hartree energ DENC   =    -10003.84545017
  -exchange      EXHF   =         0.00000000
  -V(xc)+E(xc)   XCENC  =      1357.69698478
  PAW double counting   =     35835.00732094   -36998.25330459
  entropy T*S    EENTRO =         0.00000000
  eigenvalues    EBANDS =     -3533.39140513
  atomic energy  EATOM  =     37271.84599506
  Solvation  Ediel_sol  =         0.00000000
  ---------------------------------------------------
  free energy    TOTEN  =      -221.44937240 eV

  energy without entropy =     -221.44937240  energy(sigma->0) =     -221.44937240


--------------------------------------------------------------------------------------------------------




--------------------------------------- Iteration      1(  15)  ---------------------------------------


    POTLOK:  cpu time    0.1781: real time    0.1806
    SETDIJ:  cpu time    0.0181: real time    0.0181
     EDDAV:  cpu time   27.3218: real time   27.3907
 BZINTS: Fermi energy:  6.157123;276.000000 electrons
         Band energy:***********;  BLOECHL correction: -0.032952
       DOS:  cpu time    0.0542: real time    0.0543
    CHARGE:  cpu time    1.1123: real time    1.1151
    MIXING:  cpu time    0.0049: real time    0.0049
    --------------------------------------------
      LOOP:  cpu time   28.6894: real time   28.7637

 eigenvalue-minimisations  : 12756
 total energy-change (2. order) :-0.1798336E-01  (-0.6323668E-02)
 number of electron     275.9999997 magnetization      42.6373520
 augmentation part      112.2754779 magnetization      29.6424532

 Broyden mixing:
  rms(total) = 0.14387E+00    rms(broyden)= 0.14387E+00
  rms(prec ) = 0.15235E+00
  weight for this iteration     100.00

 eigenvalues of (default mixing * dielectric matrix)
  average eigenvalue GAMMA=   1.5471
  6.1313  2.8511  1.3611  1.0676  0.3781  0.8495  0.8495  0.6937  0.6937  0.5957

 Free energy of the ion-electron system (eV)
  ---------------------------------------------------
  alpha Z        PSCENC =      1362.55286497
  Ewald energy   TEWEN  =    -25513.06237826
  -Hartree energ DENC   =    -10002.55181017
  -exchange      EXHF   =         0.00000000
  -V(xc)+E(xc)   XCENC  =      1357.20214372
  PAW double counting   =     35821.53183561   -36984.40509604
  entropy T*S    EENTRO =         0.00000000
  eigenvalues    EBANDS =     -3534.58091065
  atomic energy  EATOM  =     37271.84599506
  Solvation  Ediel_sol  =         0.00000000
  ---------------------------------------------------
  free energy    TOTEN  =      -221.46735575 eV

  energy without entropy =     -221.46735575  energy(sigma->0) =     -221.46735575


--------------------------------------------------------------------------------------------------------




--------------------------------------- Iteration      1(  16)  ---------------------------------------


    POTLOK:  cpu time    0.1817: real time    0.1822
    SETDIJ:  cpu time    0.0183: real time    0.0183
     EDDAV:  cpu time   30.3283: real time   30.4115
 BZINTS: Fermi energy:  6.178279;276.000000 electrons
         Band energy:***********;  BLOECHL correction: -0.032838
       DOS:  cpu time    0.0513: real time    0.0514
    CHARGE:  cpu time    1.1096: real time    1.1127
    MIXING:  cpu time    0.0056: real time    0.0056
    --------------------------------------------
      LOOP:  cpu time   31.6948: real time   31.7818

 eigenvalue-minimisations  : 14364
 total energy-change (2. order) : 0.5051475E-02  (-0.8967407E-03)
 number of electron     275.9999997 magnetization      42.4956927
 augmentation part      112.1854638 magnetization      29.5018179

 Broyden mixing:
  rms(total) = 0.38172E-01    rms(broyden)= 0.38172E-01
  rms(prec ) = 0.39943E-01
  weight for this iteration     100.00

 eigenvalues of (default mixing * dielectric matrix)
  average eigenvalue GAMMA=   1.5374
  6.3169  2.7845  1.3164  1.3164  1.1161  0.3781  0.8095  0.8095  0.7270  0.7270
  0.6093

 Free energy of the ion-electron system (eV)
  ---------------------------------------------------
  alpha Z        PSCENC =      1362.55286497
  Ewald energy   TEWEN  =    -25513.06237826
  -Hartree energ DENC   =    -10007.18556007
  -exchange      EXHF   =         0.00000000
  -V(xc)+E(xc)   XCENC  =      1357.09015792
  PAW double counting   =     35779.39006648   -36942.15757074
  entropy T*S    EENTRO =         0.00000000
  eigenvalues    EBANDS =     -3529.93587964
  atomic energy  EATOM  =     37271.84599506
  Solvation  Ediel_sol  =         0.00000000
  ---------------------------------------------------
  free energy    TOTEN  =      -221.46230428 eV

  energy without entropy =     -221.46230428  energy(sigma->0) =     -221.46230428


--------------------------------------------------------------------------------------------------------




--------------------------------------- Iteration      1(  17)  ---------------------------------------


    POTLOK:  cpu time    0.1811: real time    0.1833
    SETDIJ:  cpu time    0.0181: real time    0.0182
     EDDAV:  cpu time   26.8211: real time   26.8902
 BZINTS: Fermi energy:  6.179572;276.000000 electrons
         Band energy:***********;  BLOECHL correction: -0.032783
       DOS:  cpu time    0.0512: real time    0.0513
    CHARGE:  cpu time    1.0947: real time    1.0974
    MIXING:  cpu time    0.0055: real time    0.0055
    --------------------------------------------
      LOOP:  cpu time   28.1717: real time   28.2459

 eigenvalue-minimisations  : 12456
 total energy-change (2. order) :-0.6031600E-03  (-0.4815291E-03)
 number of electron     275.9999997 magnetization      42.3966908
 augmentation part      112.1799076 magnetization      29.4159318

 Broyden mixing:
  rms(total) = 0.19377E-01    rms(broyden)= 0.19377E-01
  rms(prec ) = 0.19976E-01
  weight for this iteration     100.00

 eigenvalues of (default mixing * dielectric matrix)
  average eigenvalue GAMMA=   1.5617
  6.5234  2.7667  2.4487  1.0711  1.0711  0.3781  0.8910  0.8910  0.7208  0.7208
  0.6046  0.6529

 Free energy of the ion-electron system (eV)
  ---------------------------------------------------
  alpha Z        PSCENC =      1362.55286497
  Ewald energy   TEWEN  =    -25513.06237826
  -Hartree energ DENC   =    -10006.92685455
  -exchange      EXHF   =         0.00000000
  -V(xc)+E(xc)   XCENC  =      1357.02172168
  PAW double counting   =     35799.05587041   -36962.38198485
  entropy T*S    EENTRO =         0.00000000
  eigenvalues    EBANDS =     -3529.56814190
  atomic energy  EATOM  =     37271.84599506
  Solvation  Ediel_sol  =         0.00000000
  ---------------------------------------------------
  free energy    TOTEN  =      -221.46290744 eV

  energy without entropy =     -221.46290744  energy(sigma->0) =     -221.46290744


--------------------------------------------------------------------------------------------------------




--------------------------------------- Iteration      1(  18)  ---------------------------------------


    POTLOK:  cpu time    0.1795: real time    0.1801
    SETDIJ:  cpu time    0.0181: real time    0.0181
     EDDAV:  cpu time   29.2834: real time   29.3575
 BZINTS: Fermi energy:  6.180023;276.000000 electrons
         Band energy:***********;  BLOECHL correction: -0.032906
       DOS:  cpu time    0.0498: real time    0.0499
    CHARGE:  cpu time    1.0975: real time    1.1003
    MIXING:  cpu time    0.0057: real time    0.0057
    --------------------------------------------
      LOOP:  cpu time   30.6339: real time   30.7115

 eigenvalue-minimisations  : 13992
 total energy-change (2. order) :-0.2367404E-03  (-0.2561154E-04)
 number of electron     275.9999997 magnetization      42.3448162
 augmentation part      112.1750549 magnetization      29.3820151

 Broyden mixing:
  rms(total) = 0.86282E-02    rms(broyden)= 0.86281E-02
  rms(prec ) = 0.89774E-02
  weight for this iteration     100.00

 eigenvalues of (default mixing * dielectric matrix)
  average eigenvalue GAMMA=   1.5337
  6.6578  2.8445  2.4453  1.1476  1.1476  0.9588  0.9588  0.3781  0.7429  0.7429
  0.6862  0.6140  0.6140

 Free energy of the ion-electron system (eV)
  ---------------------------------------------------
  alpha Z        PSCENC =      1362.55286497
  Ewald energy   TEWEN  =    -25513.06237826
  -Hartree energ DENC   =    -10007.21896476
  -exchange      EXHF   =         0.00000000
  -V(xc)+E(xc)   XCENC  =      1356.97231384
  PAW double counting   =     35796.99760483   -36960.36848865
  entropy T*S    EENTRO =         0.00000000
  eigenvalues    EBANDS =     -3529.18209121
  atomic energy  EATOM  =     37271.84599506
  Solvation  Ediel_sol  =         0.00000000
  ---------------------------------------------------
  free energy    TOTEN  =      -221.46314418 eV

  energy without entropy =     -221.46314418  energy(sigma->0) =     -221.46314418


--------------------------------------------------------------------------------------------------------




--------------------------------------- Iteration      1(  19)  ---------------------------------------


    POTLOK:  cpu time    0.1775: real time    0.1794
    SETDIJ:  cpu time    0.0178: real time    0.0179
     EDDAV:  cpu time   28.6667: real time   28.7393
 BZINTS: Fermi energy:  6.181013;276.000000 electrons
         Band energy:***********;  BLOECHL correction: -0.032965
       DOS:  cpu time    0.0479: real time    0.0480
    CHARGE:  cpu time    1.0907: real time    1.0935
    MIXING:  cpu time    0.0055: real time    0.0055
    --------------------------------------------
      LOOP:  cpu time   30.0062: real time   30.0836

 eigenvalue-minimisations  : 13644
 total energy-change (2. order) :-0.5642835E-04  (-0.1012358E-04)
 number of electron     275.9999997 magnetization      42.3369520
 augmentation part      112.1707837 magnetization      29.3825946

 Broyden mixing:
  rms(total) = 0.17036E-02    rms(broyden)= 0.17035E-02
  rms(prec ) = 0.18146E-02
  weight for this iteration     100.00

 eigenvalues of (default mixing * dielectric matrix)
  average eigenvalue GAMMA=   1.5149
  6.7187  2.8538  2.4281  1.2960  1.2960  0.9868  0.9868  0.3781  0.7755  0.7755
  0.7409  0.7409  0.6154  0.6154

 Free energy of the ion-electron system (eV)
  ---------------------------------------------------
  alpha Z        PSCENC =      1362.55286497
  Ewald energy   TEWEN  =    -25513.06237826
  -Hartree energ DENC   =    -10007.57121354
  -exchange      EXHF   =         0.00000000
  -V(xc)+E(xc)   XCENC  =      1356.95207315
  PAW double counting   =     35792.45403012   -36955.76983150
  entropy T*S    EENTRO =         0.00000000
  eigenvalues    EBANDS =     -3528.86474061
  atomic energy  EATOM  =     37271.84599506
  Solvation  Ediel_sol  =         0.00000000
  ---------------------------------------------------
  free energy    TOTEN  =      -221.46320061 eV

  energy without entropy =     -221.46320061  energy(sigma->0) =     -221.46320061


--------------------------------------------------------------------------------------------------------




--------------------------------------- Iteration      1(  20)  ---------------------------------------


    POTLOK:  cpu time    0.1786: real time    0.1807
    SETDIJ:  cpu time    0.0181: real time    0.0181
     EDDAV:  cpu time   25.4665: real time   25.5308
 BZINTS: Fermi energy:  6.181365;276.000000 electrons
         Band energy:***********;  BLOECHL correction: -0.032972
       DOS:  cpu time    0.0482: real time    0.0483
    CHARGE:  cpu time    1.0342: real time    1.0368
    MIXING:  cpu time    0.0054: real time    0.0055
    --------------------------------------------
      LOOP:  cpu time   26.7511: real time   26.8201

 eigenvalue-minimisations  : 12480
 total energy-change (2. order) :-0.8443094E-05  (-0.2234291E-05)
 number of electron     275.9999997 magnetization      42.3333444
 augmentation part      112.1701736 magnetization      29.3804504

 Broyden mixing:
  rms(total) = 0.89905E-03    rms(broyden)= 0.89903E-03
  rms(prec ) = 0.92020E-03
  weight for this iteration     100.00

 eigenvalues of (default mixing * dielectric matrix)
  average eigenvalue GAMMA=   1.5137
  6.7518  2.9675  2.4071  1.8783  1.0854  1.0854  1.0071  1.0071  0.3781  0.7394
  0.7394  0.6051  0.7072  0.6736  0.6736

 Free energy of the ion-electron system (eV)
  ---------------------------------------------------
  alpha Z        PSCENC =      1362.55286497
  Ewald energy   TEWEN  =    -25513.06237826
  -Hartree energ DENC   =    -10007.65113372
  -exchange      EXHF   =         0.00000000
  -V(xc)+E(xc)   XCENC  =      1356.94918081
  PAW double counting   =     35792.40021032   -36955.72341766
  entropy T*S    EENTRO =         0.00000000
  eigenvalues    EBANDS =     -3528.77453057
  atomic energy  EATOM  =     37271.84599506
  Solvation  Ediel_sol  =         0.00000000
  ---------------------------------------------------
  free energy    TOTEN  =      -221.46320905 eV

  energy without entropy =     -221.46320905  energy(sigma->0) =     -221.46320905


--------------------------------------------------------------------------------------------------------




--------------------------------------- Iteration      1(  21)  ---------------------------------------


    POTLOK:  cpu time    0.1663: real time    0.1669
    SETDIJ:  cpu time    0.0165: real time    0.0166
     EDDAV:  cpu time   26.0056: real time   26.0732
 BZINTS: Fermi energy:  6.181742;276.000000 electrons
         Band energy:***********;  BLOECHL correction: -0.032969
       DOS:  cpu time    0.0501: real time    0.0502
    CHARGE:  cpu time    1.0732: real time    1.0759
    MIXING:  cpu time    0.0066: real time    0.0066
    --------------------------------------------
      LOOP:  cpu time   27.3183: real time   27.3894

 eigenvalue-minimisations  : 12600
 total energy-change (2. order) : 0.2081790E-05  (-0.2366770E-06)
 number of electron     275.9999997 magnetization      42.3353073
 augmentation part      112.1689215 magnetization      29.3821694

 Broyden mixing:
  rms(total) = 0.11240E-02    rms(broyden)= 0.11240E-02
  rms(prec ) = 0.11913E-02
  weight for this iteration     100.00

 eigenvalues of (default mixing * dielectric matrix)
  average eigenvalue GAMMA=   1.5051
  6.7524  3.0081  2.4515  2.1940  1.1927  1.1927  0.9931  0.9931  0.3781  0.7787
  0.7787  0.7331  0.7331  0.6170  0.6170  0.6685

 Free energy of the ion-electron system (eV)
  ---------------------------------------------------
  alpha Z        PSCENC =      1362.55286497
  Ewald energy   TEWEN  =    -25513.06237826
  -Hartree energ DENC   =    -10007.72686001
  -exchange      EXHF   =         0.00000000
  -V(xc)+E(xc)   XCENC  =      1356.95003210
  PAW double counting   =     35792.06116155   -36955.39451838
  entropy T*S    EENTRO =         0.00000000
  eigenvalues    EBANDS =     -3528.68950400
  atomic energy  EATOM  =     37271.84599506
  Solvation  Ediel_sol  =         0.00000000
  ---------------------------------------------------
  free energy    TOTEN  =      -221.46320697 eV

  energy without entropy =     -221.46320697  energy(sigma->0) =     -221.46320697


--------------------------------------------------------------------------------------------------------




--------------------------------------- Iteration      1(  22)  ---------------------------------------


    POTLOK:  cpu time    0.1810: real time    0.1822
    SETDIJ:  cpu time    0.0183: real time    0.0183
     EDDAV:  cpu time   23.1400: real time   23.2002
 BZINTS: Fermi energy:  6.181588;276.000000 electrons
         Band energy:***********;  BLOECHL correction: -0.032970
       DOS:  cpu time    0.0515: real time    0.0516
    CHARGE:  cpu time    1.0656: real time    1.0683
    MIXING:  cpu time    0.0061: real time    0.0061
    --------------------------------------------
      LOOP:  cpu time   24.4625: real time   24.5268

 eigenvalue-minimisations  : 10752
 total energy-change (2. order) :-0.1074273E-05  (-0.9888315E-07)
 number of electron     275.9999997 magnetization      42.3374309
 augmentation part      112.1695622 magnetization      29.3843590

 Broyden mixing:
  rms(total) = 0.50744E-03    rms(broyden)= 0.50744E-03
  rms(prec ) = 0.53741E-03
  weight for this iteration     100.00

 eigenvalues of (default mixing * dielectric matrix)
  average eigenvalue GAMMA=   1.4879
  6.7362  2.9789  2.6469  2.1393  1.3858  0.3781  1.0161  1.0161  1.0318  1.0318
  0.7495  0.7495  0.7847  0.7847  0.6087  0.6278  0.6278

 Free energy of the ion-electron system (eV)
  ---------------------------------------------------
  alpha Z        PSCENC =      1362.55286497
  Ewald energy   TEWEN  =    -25513.06237826
  -Hartree energ DENC   =    -10007.69222287
  -exchange      EXHF   =         0.00000000
  -V(xc)+E(xc)   XCENC  =      1356.95024516
  PAW double counting   =     35792.32847382   -36955.66442584
  entropy T*S    EENTRO =         0.00000000
  eigenvalues    EBANDS =     -3528.72176008
  atomic energy  EATOM  =     37271.84599506
  Solvation  Ediel_sol  =         0.00000000
  ---------------------------------------------------
  free energy    TOTEN  =      -221.46320804 eV

  energy without entropy =     -221.46320804  energy(sigma->0) =     -221.46320804


--------------------------------------------------------------------------------------------------------




--------------------------------------- Iteration      1(  23)  ---------------------------------------


    POTLOK:  cpu time    0.1722: real time    0.1732
    SETDIJ:  cpu time    0.0176: real time    0.0176
     EDDAV:  cpu time   21.7746: real time   21.8295
 BZINTS: Fermi energy:  6.181492;276.000000 electrons
         Band energy:***********;  BLOECHL correction: -0.032971
       DOS:  cpu time    0.0514: real time    0.0515
    CHARGE:  cpu time    1.0780: real time    1.0808
    MIXING:  cpu time    0.0063: real time    0.0063
    --------------------------------------------
      LOOP:  cpu time   23.1000: real time   23.1590

 eigenvalue-minimisations  :  9732
 total energy-change (2. order) :-0.1100634E-06  (-0.2931417E-07)
 number of electron     275.9999997 magnetization      42.3377585
 augmentation part      112.1699695 magnetization      29.3845709

 Broyden mixing:
  rms(total) = 0.66250E-04    rms(broyden)= 0.66248E-04
  rms(prec ) = 0.68480E-04
  weight for this iteration     100.00

 eigenvalues of (default mixing * dielectric matrix)
  average eigenvalue GAMMA=   1.4818
  6.7340  3.0139  2.6975  2.2630  1.3819  1.3819  1.0172  1.0172  0.3781  0.9629
  0.9629  0.7479  0.7479  0.7415  0.7350  0.6118  0.6498  0.6288

 Free energy of the ion-electron system (eV)
  ---------------------------------------------------
  alpha Z        PSCENC =      1362.55286497
  Ewald energy   TEWEN  =    -25513.06237826
  -Hartree energ DENC   =    -10007.66838483
  -exchange      EXHF   =         0.00000000
  -V(xc)+E(xc)   XCENC  =      1356.95083792
  PAW double counting   =     35792.52338377   -36955.86161746
  entropy T*S    EENTRO =         0.00000000
  eigenvalues    EBANDS =     -3528.74390932
  atomic energy  EATOM  =     37271.84599506
  Solvation  Ediel_sol  =         0.00000000
  ---------------------------------------------------
  free energy    TOTEN  =      -221.46320815 eV

  energy without entropy =     -221.46320815  energy(sigma->0) =     -221.46320815


--------------------------------------------------------------------------------------------------------




--------------------------------------- Iteration      1(  24)  ---------------------------------------


    POTLOK:  cpu time    0.1725: real time    0.1730
    SETDIJ:  cpu time    0.0177: real time    0.0177
     EDDAV:  cpu time   16.4050: real time   16.4465
 BZINTS: Fermi energy:  6.181499;276.000000 electrons
         Band energy:***********;  BLOECHL correction: -0.032970
       DOS:  cpu time    0.0471: real time    0.0472
    CHARGE:  cpu time    1.0367: real time    1.0393
    MIXING:  cpu time    0.0062: real time    0.0062
    --------------------------------------------
      LOOP:  cpu time   17.6852: real time   17.7300

 eigenvalue-minimisations  :  6444
 total energy-change (2. order) : 0.4025642E-06  (-0.9039362E-08)
 number of electron     275.9999997 magnetization      42.3377798
 augmentation part      112.1699131 magnetization      29.3845257

 Broyden mixing:
  rms(total) = 0.46665E-04    rms(broyden)= 0.46665E-04
  rms(prec ) = 0.48353E-04
  weight for this iteration     100.00

 eigenvalues of (default mixing * dielectric matrix)
[...]
  0.000  -0.002   0.000   0.000  -0.001  -0.000   0.000   0.000  -0.006   0.000   0.000   0.000  -0.000   0.009   0.000  -0.000
 total augmentation occupancy for first ion, spin component:           2
 -0.003   0.000  -0.000  -0.010   0.000   0.000   0.002   0.001  -0.000   0.000   0.000  -0.003  -0.002   0.000  -0.000  -0.000
 -0.000  -0.003  -0.000  -0.000  -0.010   0.000  -0.000  -0.000  -0.001  -0.000   0.000   0.000   0.000   0.002  -0.000  -0.000
  0.000   0.000  -0.003  -0.000   0.000  -0.010   0.000  -0.000   0.000   0.001  -0.002  -0.000   0.000  -0.000  -0.002   0.003
 -0.010  -0.000  -0.000   0.021   0.000  -0.000  -0.085  -0.050  -0.000   0.002   0.013   0.049   0.032   0.000  -0.001  -0.008
  0.000  -0.010   0.000  -0.000   0.017   0.000  -0.000  -0.000   0.076  -0.000  -0.000   0.000   0.000  -0.043   0.000   0.000
  0.000   0.000  -0.010   0.000  -0.000   0.021   0.013  -0.002  -0.000  -0.050   0.085  -0.008   0.001   0.000   0.032  -0.049
  0.002   0.000   0.000  -0.085  -0.000   0.013   4.295   0.577  -0.000  -0.179   0.000  -2.428  -0.471  -0.000   0.166   0.002
  0.001   0.000  -0.000  -0.050  -0.000  -0.002   0.577   5.022   0.000  -0.000  -0.179  -0.469  -3.026  -0.000   0.003   0.166
 -0.000  -0.001   0.000  -0.000   0.076  -0.000  -0.000   0.000   4.388   0.000  -0.000   0.000  -0.000  -2.383  -0.000   0.000
  0.000   0.000   0.001   0.002   0.000  -0.050  -0.179  -0.000   0.000   5.022  -0.577   0.166  -0.003  -0.000  -3.026   0.469
  0.000   0.000  -0.002   0.013  -0.000   0.085   0.000  -0.179  -0.000  -0.577   4.295  -0.002   0.166   0.000   0.471  -2.428
 -0.003   0.000  -0.000   0.049   0.000  -0.008  -2.428  -0.469   0.000   0.166  -0.002   1.294   0.332  -0.000  -0.129  -0.000
 -0.002   0.000   0.000   0.032  -0.000   0.001  -0.471  -3.026  -0.000  -0.003   0.166   0.332   1.751   0.000  -0.000  -0.129
  0.000   0.002  -0.000   0.000  -0.043   0.000  -0.000  -0.000  -2.383  -0.000   0.000  -0.000   0.000   1.231   0.000  -0.000
 -0.000   0.000  -0.002  -0.001   0.000   0.032   0.166   0.003  -0.000  -3.026   0.471  -0.129   0.000   0.000   1.751  -0.332
 -0.000  -0.000   0.003  -0.008   0.000  -0.049   0.002   0.166   0.000   0.469  -2.428   0.000  -0.129  -0.000  -0.332   1.294
  0.000   0.000  -0.000  -0.000   0.001   0.000   0.000  -0.000   0.044  -0.000  -0.000  -0.000  -0.000  -0.022  -0.000   0.000
 -0.000   0.000   0.000   0.000   0.001  -0.000  -0.000  -0.000   0.007  -0.000  -0.000   0.000  -0.000  -0.005  -0.000   0.000


------------------------ aborting loop because EDIFF is reached ----------------------------------------


 


 total charge     
 
# of ion       s       p       d       tot
------------------------------------------
    1        0.284   6.340   5.852  12.475
    2        0.284   6.340   5.854  12.478
    3        0.284   6.340   5.862  12.485
    4        0.284   6.340   5.852  12.475
    5        0.283   6.340   5.854  12.478
    6        0.284   6.340   5.865  12.488
    7        0.284   6.340   5.851  12.474
    8        0.284   6.340   5.853  12.477
    9        0.283   6.340   5.854  12.477
   10        0.283   6.340   5.868  12.492
   11        0.283   6.340   5.865  12.489
   12        0.283   6.340   5.857  12.480
   13        1.567   3.416   0.000   4.983
   14        1.567   3.415   0.000   4.983
   15        1.567   3.416   0.000   4.983
   16        1.567   3.417   0.000   4.984
   17        1.567   3.417   0.000   4.984
   18        1.567   3.416   0.000   4.983
   19        1.566   3.403   0.000   4.970
   20        1.566   3.403   0.000   4.969
   21        1.566   3.404   0.000   4.971
   22        1.566   3.404   0.000   4.971
   23        1.566   3.404   0.000   4.971
   24        1.566   3.404   0.000   4.971
   25        1.568   3.417   0.000   4.985
   26        1.568   3.416   0.000   4.985
   27        1.568   3.418   0.000   4.986
   28        1.568   3.419   0.000   4.987
   29        1.568   3.419   0.000   4.987
   30        1.568   3.418   0.000   4.987
--------------------------------------------------
tot         31.613 137.506  70.288 239.407
 


 magnetization (x)
 
# of ion       s       p       d       tot
------------------------------------------
    1        0.024   0.036   3.141   3.201
    2        0.024   0.036   3.138   3.198
    3        0.025   0.036   3.135   3.195
    4        0.025   0.036   3.140   3.201
    5        0.025   0.036   3.140   3.201
    6        0.025   0.036   3.132   3.193
    7        0.024   0.036   3.125   3.185
    8        0.024   0.036   3.122   3.183
    9        0.025   0.036   3.123   3.183
   10        0.025   0.036   3.117   3.177
   11        0.025   0.036   3.119   3.180
   12        0.025   0.036   3.123   3.183
   13        0.020   0.139   0.000   0.160
   14        0.020   0.139   0.000   0.159
   15        0.020   0.139   0.000   0.159
   16        0.020   0.140   0.000   0.160
   17        0.020   0.140   0.000   0.161
   18        0.020   0.139   0.000   0.160
   19        0.021   0.143   0.000   0.165
   20        0.021   0.143   0.000   0.164
   21        0.021   0.144   0.000   0.165
   22        0.021   0.144   0.000   0.165
   23        0.021   0.144   0.000   0.165
   24        0.021   0.144   0.000   0.166
   25        0.020   0.135   0.000   0.156
   26        0.020   0.135   0.000   0.155
   27        0.020   0.136   0.000   0.157
   28        0.020   0.137   0.000   0.158
   29        0.020   0.137   0.000   0.157
   30        0.020   0.137   0.000   0.157
--------------------------------------------------
tot          0.668   2.948  37.554  41.170
 
    CHARGE:  cpu time    1.1205: real time    1.1233
    FORLOC:  cpu time    0.0184: real time    0.0184
    FORNL :  cpu time    7.9499: real time    7.9697
    STRESS:  cpu time   23.8526: real time   23.9129
    FORCOR:  cpu time    0.1923: real time    0.1928
    FORHAR:  cpu time    0.0338: real time    0.0339
    MIXING:  cpu time    0.0072: real time    0.0073
    OFIELD:  cpu time    0.0001: real time    0.0001

  FORCE on cell =-STRESS in cart. coord.  units (eV):
  Direction    XX          YY          ZZ          XY          YZ          ZX
  --------------------------------------------------------------------------------------
  Alpha Z  1362.55286  1362.55286  1362.55286
  Ewald   -8201.75422 -8201.75360 -9109.63806     0.00000     0.00002    -0.00000
  Hartree  3503.88946  3503.88932  2999.88607    -0.00000     0.00001    -0.00000
  E(xc)   -1615.80633 -1615.80637 -1617.37020    -0.00002     0.00000    -0.00000
  Local    -165.09182  -165.09180  1230.74219    -0.00026    -0.00003     0.00000
  n-local  -743.06055  -741.95167  -744.50969    -4.16562     0.49365     0.11398
  augment  1844.62950  1844.62944  1846.55235     0.00022     0.00000    -0.00000
  Kinetic  4007.26066  4009.35627  4025.11775     7.65526    -1.99074    -5.04373
  Fock        0.00000     0.00000     0.00000     0.00000     0.00000     0.00000
  -------------------------------------------------------------------------------------
  Total      -5.77798    -5.77798    -6.66672     0.00000     0.00000     0.00000
  in kB     -30.64656   -30.64655   -35.36045     0.00000     0.00000     0.00000
  external pressure =      -32.22 kB  Pullay stress =        0.00 kB


 VOLUME and BASIS-vectors are now :
 -----------------------------------------------------------------------------
  energy-cutoff  :      900.00
  volume of cell :      302.07
      direct lattice vectors                 reciprocal lattice vectors
     5.035100000  0.000000000  0.000000000     0.198605787  0.114665118  0.000000000
    -2.517550000  4.360524000  0.000000000     0.000000000  0.229330236  0.000000000
     0.000000000  0.000000000 13.758100000     0.000000000  0.000000000  0.072684455

  length of vectors
     5.035100000  5.035099558 13.758100000     0.229330216  0.229330236  0.072684455


 FORCES acting on ions
    electron-ion (+dipol)            ewald-force                    non-local-force                 convergence-correction
 -----------------------------------------------------------------------------------------------
   0.156E-03 0.366E-03 -.126E+03   -.101E-02 0.523E-03 0.128E+03   0.867E-18 -.304E-17 -.289E+01   -.778E-08 0.488E-08 -.987E-06
   -.402E-03 0.580E-03 0.126E+03   0.101E-02 -.523E-03 -.128E+03   0.824E-17 0.217E-17 0.289E+01   0.107E-07 -.574E-08 0.988E-06
   -.135E-03 0.533E-03 -.126E+03   0.314E-02 -.187E-02 0.128E+03   0.217E-17 0.390E-17 -.289E+01   0.184E-06 -.107E-06 0.693E-05
   -.327E-03 0.645E-03 -.126E+03   -.220E-02 0.121E-02 0.128E+03   0.607E-17 0.000E+00 -.289E+01   -.172E-06 0.993E-07 0.963E-05
   0.814E-04 0.301E-03 0.126E+03   0.220E-02 -.121E-02 -.128E+03   0.694E-17 0.304E-17 0.289E+01   0.175E-06 -.100E-06 -.963E-05
   -.111E-03 0.412E-03 0.126E+03   -.314E-02 0.187E-02 -.128E+03   0.173E-17 0.260E-17 0.289E+01   -.181E-06 0.106E-06 -.693E-05
   0.566E-03 -.105E-02 0.126E+03   0.964E-03 -.523E-03 -.128E+03   -.499E-17 -.217E-17 0.289E+01   0.121E-07 -.763E-08 0.987E-06
   0.104E-02 -.127E-02 -.126E+03   -.964E-03 0.523E-03 0.128E+03   -.195E-17 -.304E-17 -.289E+01   -.666E-08 0.251E-08 -.988E-06
   0.105E-02 -.133E-02 0.126E+03   0.215E-02 -.121E-02 -.128E+03   -.867E-18 0.000E+00 0.289E+01   0.176E-06 -.103E-06 -.963E-05
   0.750E-03 -.110E-02 -.126E+03   0.319E-02 -.187E-02 0.128E+03   -.542E-17 0.434E-18 -.289E+01   0.186E-06 -.108E-06 0.693E-05
   0.857E-03 -.122E-02 0.126E+03   -.319E-02 0.187E-02 -.128E+03   0.434E-18 -.390E-17 0.289E+01   -.181E-06 0.103E-06 -.693E-05
   0.558E-03 -.988E-03 -.126E+03   -.215E-02 0.121E-02 0.128E+03   0.455E-17 -.347E-17 -.289E+01   -.171E-06 0.979E-07 0.963E-05
   -.424E+02 -.134E-02 0.216E-03   0.418E+02 0.106E-02 -.470E-03   0.678E+00 0.203E-18 0.748E-17   -.406E-05 0.425E-07 -.412E-08
   0.424E+02 -.869E-04 -.337E-03   -.418E+02 -.106E-02 0.470E-03   -.678E+00 -.195E-17 0.195E-17   0.406E-05 -.459E-07 0.184E-08
   -.424E+02 -.319E-02 -.583E-02   0.418E+02 0.570E-03 -.997E-03   0.678E+00 0.363E-17 0.195E-17   -.406E-05 -.391E-07 -.239E-05
   -.424E+02 0.239E-02 0.543E-02   0.418E+02 -.163E-02 0.147E-02   0.678E+00 0.282E-17 -.325E-17   -.401E-05 -.835E-08 0.240E-05
   0.424E+02 -.382E-02 -.555E-02   -.418E+02 0.163E-02 -.147E-02   -.678E+00 -.203E-18 -.737E-17   0.401E-05 0.493E-08 -.240E-05
   0.424E+02 0.176E-02 0.571E-02   -.418E+02 -.570E-03 0.997E-03   -.678E+00 0.217E-18 0.347E-17   0.406E-05 0.357E-07 0.239E-05
   0.212E+02 -.367E+02 -.308E-03   -.209E+02 0.362E+02 0.438E-03   -.339E+00 0.587E+00 0.781E-17   0.207E-05 -.350E-05 0.184E-08
   -.212E+02 0.367E+02 0.195E-03   0.209E+02 -.362E+02 -.438E-03   0.339E+00 -.587E+00 0.607E-17   -.207E-05 0.350E-05 -.402E-08
   0.212E+02 -.367E+02 -.552E-02   -.209E+02 0.362E+02 -.150E-02   -.339E+00 0.587E+00 -.607E-17   0.200E-05 -.347E-05 -.240E-05
   0.212E+02 -.367E+02 0.574E-02   -.209E+02 0.362E+02 0.964E-03   -.339E+00 0.587E+00 0.173E-17   0.200E-05 -.353E-05 0.239E-05
   -.212E+02 0.367E+02 -.585E-02   0.209E+02 -.362E+02 -.964E-03   0.339E+00 -.587E+00 -.520E-17   -.200E-05 0.353E-05 -.239E-05
   -.212E+02 0.367E+02 0.541E-02   0.209E+02 -.362E+02 0.150E-02   0.339E+00 -.587E+00 0.260E-17   -.200E-05 0.348E-05 0.240E-05
   0.212E+02 0.367E+02 0.937E-04   -.209E+02 -.362E+02 0.322E-04   -.339E+00 -.587E+00 -.304E-17   0.200E-05 0.345E-05 0.223E-08
   -.212E+02 -.367E+02 0.144E-03   0.209E+02 0.362E+02 -.322E-04   0.339E+00 0.587E+00 0.347E-17   -.199E-05 -.345E-05 0.214E-08
   0.212E+02 0.367E+02 -.407E-02   -.209E+02 -.362E+02 -.303E-02   -.339E+00 -.587E+00 -.347E-17   0.209E-05 0.349E-05 -.240E-05
   -.212E+02 -.367E+02 -.402E-02   0.209E+02 0.362E+02 -.310E-02   0.339E+00 0.587E+00 -.173E-17   -.198E-05 -.356E-05 -.240E-05
   0.212E+02 0.367E+02 0.426E-02   -.209E+02 -.362E+02 0.310E-02   -.339E+00 -.587E+00 -.824E-17   0.198E-05 0.356E-05 0.240E-05
   -.212E+02 -.367E+02 0.431E-02   0.209E+02 0.362E+02 0.303E-02   0.339E+00 0.587E+00 0.867E-18   -.209E-05 -.350E-05 0.240E-05
 -----------------------------------------------------------------------------------------------
   0.150E-01 -.165E-01 -.111E-04   -.995E-13 -.995E-13 -.192E-12   0.555E-16 0.000E+00 0.443E-15   0.411E-07 -.333E-07 -.413E-09
 
 
 POSITION                                       TOTAL-FORCE (eV/Angst)
 -----------------------------------------------------------------------------------
      0.00000      0.00000      4.88853        -0.000000      0.000000     -0.928121
      0.00000      0.00000      8.86957        -0.000000      0.000000      0.928121
     -0.00000      2.90702      0.30250        -0.000000      0.000000     -0.928121
      2.51755      1.45351      9.47456        -0.000000      0.000000     -0.928121
     -0.00000      2.90702      4.28354        -0.000000      0.000000      0.928121
      2.51755      1.45351     13.45560        -0.000000      0.000000      0.928121
      0.00000      0.00000      1.99052        -0.000000      0.000000      0.928121
      0.00000      0.00000     11.76758        -0.000000      0.000000     -0.928121
     -0.00000      2.90702     11.16259        -0.000000      0.000000      0.928121
     -0.00000      2.90702      7.18155        -0.000000      0.000000     -0.928121
      2.51755      1.45351      6.57655        -0.000000      0.000000      0.928121
      2.51755      1.45351      2.59551        -0.000000      0.000000     -0.928121
      1.54165      0.00000      3.43953         0.086023      0.000000     -0.000000
      3.49345      0.00000     10.31858        -0.086023      0.000000     -0.000000
      1.54164      2.90702     12.61160         0.086023      0.000000     -0.000000
      4.05920      1.45351      8.02555         0.086023      0.000000     -0.000000
     -1.54165      2.90702      5.73255        -0.086023      0.000000     -0.000000
      0.97591      1.45351      1.14650        -0.086023      0.000000     -0.000000
     -0.77082      1.33511      3.43953        -0.043012      0.074498     -0.000000
     -1.74673      3.02542     10.31858         0.043012     -0.074498     -0.000000
     -0.77083      4.24212     12.61160        -0.043012      0.074498     -0.000000
      1.74673      2.78861      8.02555        -0.043012      0.074498     -0.000000
      0.77082      1.57191      5.73255         0.043012     -0.074498     -0.000000
      3.28838      0.11840      1.14650         0.043012     -0.074498     -0.000000
      1.74673      3.02542      3.43953        -0.043012     -0.074498     -0.000000
      0.77082      1.33511     10.31858         0.043012      0.074498     -0.000000
     -0.77083      1.57191     12.61160        -0.043012     -0.074498     -0.000000
      0.77082      4.24212      5.73255         0.043012      0.074498     -0.000000
      1.74673      0.11840      8.02555        -0.043012     -0.074498     -0.000000
      3.28838      2.78861      1.14650         0.043012      0.074498     -0.000000
 -----------------------------------------------------------------------------------
    total drift:                                0.015003     -0.016539     -0.000011


--------------------------------------------------------------------------------------------------------



  FREE ENERGIE OF THE ION-ELECTRON SYSTEM (eV)
  ---------------------------------------------------
  free  energy   TOTEN  =      -221.46320766 eV

  energy  without entropy=     -221.46320766  energy(sigma->0) =     -221.46320766
 


--------------------------------------------------------------------------------------------------------


    POTLOK:  cpu time    0.2004: real time    0.2013


--------------------------------------------------------------------------------------------------------


     LOOP+:  cpu time  722.2174: real time  724.1136
    4ORBIT:  cpu time    0.0000: real time    0.0000
 


 total charge     
 
# of ion       s       p       d       tot
------------------------------------------
    1        0.284   6.340   5.852  12.475
    2        0.284   6.340   5.854  12.478
    3        0.284   6.340   5.862  12.485
    4        0.284   6.340   5.852  12.475
    5        0.283   6.340   5.854  12.478
    6        0.284   6.340   5.865  12.488
    7        0.284   6.340   5.851  12.474
    8        0.284   6.340   5.853  12.477
    9        0.283   6.340   5.854  12.477
   10        0.283   6.340   5.868  12.492
   11        0.283   6.340   5.865  12.489
   12        0.283   6.340   5.857  12.480
   13        1.567   3.416   0.000   4.983
   14        1.567   3.415   0.000   4.983
   15        1.567   3.416   0.000   4.983
   16        1.567   3.417   0.000   4.984
   17        1.567   3.417   0.000   4.984
   18        1.567   3.416   0.000   4.983
   19        1.566   3.403   0.000   4.970
   20        1.566   3.403   0.000   4.969
   21        1.566   3.404   0.000   4.971
   22        1.566   3.404   0.000   4.971
   23        1.566   3.404   0.000   4.971
   24        1.566   3.404   0.000   4.971
   25        1.568   3.417   0.000   4.985
   26        1.568   3.416   0.000   4.985
   27        1.568   3.418   0.000   4.986
   28        1.568   3.419   0.000   4.987
   29        1.568   3.419   0.000   4.987
   30        1.568   3.418   0.000   4.987
--------------------------------------------------
tot         31.613 137.506  70.288 239.407
 


 magnetization (x)
 
# of ion       s       p       d       tot
------------------------------------------
    1        0.024   0.036   3.141   3.201
    2        0.024   0.036   3.138   3.198
    3        0.025   0.036   3.135   3.195
    4        0.025   0.036   3.140   3.201
    5        0.025   0.036   3.140   3.201
    6        0.025   0.036   3.132   3.193
    7        0.024   0.036   3.125   3.185
    8        0.024   0.036   3.122   3.183
    9        0.025   0.036   3.123   3.183
   10        0.025   0.036   3.117   3.177
   11        0.025   0.036   3.119   3.180
   12        0.025   0.036   3.123   3.183
   13        0.020   0.139   0.000   0.160
   14        0.020   0.139   0.000   0.159
   15        0.020   0.139   0.000   0.159
   16        0.020   0.140   0.000   0.160
   17        0.020   0.140   0.000   0.161
   18        0.020   0.139   0.000   0.160
   19        0.021   0.143   0.000   0.165
   20        0.021   0.143   0.000   0.164
   21        0.021   0.144   0.000   0.165
   22        0.021   0.144   0.000   0.165
   23        0.021   0.144   0.000   0.165
   24        0.021   0.144   0.000   0.166
   25        0.020   0.135   0.000   0.156
   26        0.020   0.135   0.000   0.155
   27        0.020   0.136   0.000   0.157
   28        0.020   0.137   0.000   0.158
   29        0.020   0.137   0.000   0.157
   30        0.020   0.137   0.000   0.157
--------------------------------------------------
tot          0.668   2.948  37.554  41.170
 
 BZINTS: Fermi energy:  6.181490;276.000000 electrons
         Band energy:***********;  BLOECHL correction: -0.032970

 total amount of memory used by VASP MPI-rank0   140213. kBytes
=======================================================================

   base      :      30000. kBytes
   nonlr-proj:      11957. kBytes
   fftplans  :       7245. kBytes
   grid      :      18564. kBytes
   one-center:        248. kBytes
   wavefun   :      72199. kBytes
 
  
  
 General timing and accounting informations for this job:
 ========================================================
  
                  Total CPU time used (sec):      733.401
                            User time (sec):      731.318
                          System time (sec):        2.083
                         Elapsed time (sec):      735.427
  
                   Maximum memory used (kb):      182832.
                   Average memory used (kb):           0.
  
                          Minor page faults:        57939
                          Major page faults:            0
                 Voluntary context switches:          328
