=========================================
SLURM_JOB_ID = 51706449
SLURM_JOB_NODELIST = lnode14
SLURM_GPUS = 
SLURM_CPUS_ON_NODE = 24
SLURM_JOB_PARTITION = lenovo
SLURM_TASK_PID = 973531
CUDA_VISIBLE_DEVICES = 
==========================================
 running on   24 total cores
 distrk:  each k-point on   24 cores,    1 groups
 distr:  one band on    4 cores,    6 groups
 using from now: INCAR     
 vasp.5.4.4.18Apr17-6-g9f103f2a35 (build Apr 28 2018 00:24:27) complex          
  
 POSCAR found type information on POSCAR  Fe O 
 POSCAR found :  2 types and      30 ions
 scaLAPACK will be used
 LDA part: xc-table for Pade appr. of Perdew
 POSCAR, INCAR and KPOINTS ok, starting setup
 FFT: planning ...
 WAVECAR not read
 entering main loop
       N       E                     dE             d eps       ncg     rms          rms(c)
DAV:   1     0.437106800578E+04    0.43711E+04   -0.14694E+05 11592   0.201E+03
DAV:   2     0.457827763655E+03   -0.39132E+04   -0.35586E+04 11424   0.567E+02
DAV:   3    -0.249389654887E+03   -0.70722E+03   -0.63069E+03 11868   0.238E+02
DAV:   4    -0.293924687386E+03   -0.44535E+02   -0.44029E+02 12888   0.595E+01
DAV:   5    -0.294418456445E+03   -0.49377E+00   -0.49245E+00 12732   0.706E+00    0.810E+01
DAV:   6    -0.235340147911E+03    0.59078E+02   -0.25360E+02 14760   0.809E+01    0.914E+01
DAV:   7    -0.211458145243E+03    0.23882E+02   -0.11458E+02 12240   0.634E+01    0.438E+01
DAV:   8    -0.218274301768E+03   -0.68162E+01   -0.21390E+01 12132   0.171E+01    0.265E+01
DAV:   9    -0.222515322360E+03   -0.42410E+01   -0.83362E+00 12600   0.171E+01    0.275E+01
DAV:  10    -0.222111761272E+03    0.40356E+00   -0.24905E+00 12588   0.699E+00    0.187E+01
DAV:  11    -0.221534591940E+03    0.57717E+00   -0.23796E-01 14184   0.285E+00    0.122E+01
DAV:  12    -0.221331708245E+03    0.20288E+00   -0.19628E-01 15192   0.240E+00    0.851E+00
DAV:  13    -0.221328359120E+03    0.33491E-02   -0.11681E-01 13968   0.232E+00    0.462E+00
DAV:  14    -0.221375159031E+03   -0.46800E-01   -0.16200E-01 14784   0.201E+00    0.173E+00
DAV:  15    -0.221393844939E+03   -0.18686E-01   -0.64138E-02 12480   0.677E-01    0.139E+00
DAV:  16    -0.221388666008E+03    0.51789E-02   -0.93916E-03 14088   0.717E-01    0.334E-01
DAV:  17    -0.221389405357E+03   -0.73935E-03   -0.44222E-03 12192   0.169E-01    0.183E-01
DAV:  18    -0.221389658240E+03   -0.25288E-03   -0.21066E-04 13848   0.790E-02    0.931E-02
DAV:  19    -0.221389734212E+03   -0.75973E-04   -0.94833E-05 13932   0.442E-02    0.218E-02
DAV:  20    -0.221389749170E+03   -0.14957E-04   -0.27038E-05 13032   0.179E-02    0.885E-03
DAV:  21    -0.221389754696E+03   -0.55258E-05   -0.26921E-06 11772   0.586E-03    0.101E-02
DAV:  22    -0.221389755687E+03   -0.99121E-06   -0.77907E-07 10548   0.429E-03    0.606E-03
DAV:  23    -0.221389752897E+03    0.27899E-05   -0.21097E-07  8640   0.236E-03    0.213E-03
DAV:  24    -0.221389751725E+03    0.11722E-05   -0.91260E-08  6684   0.101E-03    0.765E-04
DAV:  25    -0.221389752089E+03   -0.36421E-06   -0.21769E-08  6216   0.419E-04    0.278E-04
DAV:  26    -0.221389752215E+03   -0.12579E-06   -0.17846E-09  6216   0.163E-04    0.229E-04
DAV:  27    -0.221389752094E+03    0.12071E-06   -0.89018E-10  6216   0.116E-04    0.228E-04
DAV:  28    -0.221389752001E+03    0.92965E-07   -0.12801E-10  6216   0.528E-05
   1 F= -.22138975E+03 E0= -.22138975E+03  d E =0.000000E+00  mag=    42.3060
