 vasp.5.4.4.18Apr17-6-g9f103f2a35 (build Apr 28 2018 00:24:27) complex          
  
 executed on             LinuxIFC date 2021.09.06  03:38:17
 running on   24 total cores
 distrk:  each k-point on   24 cores,    1 groups
 distr:  one band on NCORES_PER_BAND=   4 cores,    6 groups


--------------------------------------------------------------------------------------------------------


 INCAR:
 POTCAR:    PAW_PBE Fe_pv 02Aug2007               
 POTCAR:    PAW_PBE O 08Apr2002                   
 POTCAR:    PAW_PBE Fe_pv 02Aug2007               
   VRHFIN =Fe:  3pd7s1                                                          
   LEXCH  = PE                                                                  
   EATOM  =  2457.4239 eV,  180.6156 Ry                                         
                                                                                
   TITEL  = PAW_PBE Fe_pv 02Aug2007                                             
   LULTRA =        F    use ultrasoft PP ?                                      
   IUNSCR =        1    unscreen: 0-lin 1-nonlin 2-no                           
   RPACOR =    1.750    partial core radius                                     
   POMASS =   55.847; ZVAL   =   14.000    mass and valenz                      
   RCORE  =    2.200    outmost cutoff radius                                   
   RWIGS  =    2.200; RWIGS  =    1.164    wigner-seitz radius (au A)           
   ENMAX  =  293.238; ENMIN  =  219.928 eV                                      
   ICORE  =        3    local potential                                         
   LCOR   =        T    correct aug charges                                     
   LPAW   =        T    paw PP                                                  
   EAUG   =  578.342                                                            
   DEXC   =    0.000                                                            
   RMAX   =    2.249    core radius for proj-oper                               
   RAUG   =    1.300    factor for augmentation sphere                          
   RDEP   =    2.296    radius for radial grids                                 
   RDEPT  =    1.766    core radius for aug-charge                              
                                                                                
   Atomic configuration                                                         
    8 entries                                                                   
     n  l   j            E        occ.                                          
     1  0  0.50     -6993.8440   2.0000                                         
     2  0  0.50      -814.6047   2.0000                                         
     2  1  1.50      -693.3689   6.0000                                         
     3  0  0.50       -89.4732   2.0000                                         
     3  1  1.50       -55.6373   6.0000                                         
     3  2  2.50        -3.8151   7.0000                                         
     4  0  0.50        -4.2551   1.0000                                         
     4  3  2.50        -1.3606   0.0000                                         
   Description                                                                  
     l       E           TYP  RCUT    TYP  RCUT                                 
     1    -55.6372668     23  2.000                                             
     1     -5.4423304     23  2.000                                             
     2     -3.8151096     23  2.200                                             
     2     -5.1756922     23  2.200                                             
     0     -4.2550951     23  2.200                                             
     0     27.2116520     23  2.200                                             
     3     -1.3605826     23  2.200                                             
  local pseudopotential read in
  partial core-charges read in
  partial kinetic energy density read in
  atomic valenz-charges read in
  non local Contribution for L=           1  read in
    real space projection operators read in
  non local Contribution for L=           1  read in
    real space projection operators read in
  non local Contribution for L=           2  read in
    real space projection operators read in
  non local Contribution for L=           2  read in
    real space projection operators read in
  non local Contribution for L=           0  read in
    real space projection operators read in
  non local Contribution for L=           0  read in
    real space projection operators read in
    PAW grid and wavefunctions read in
 
   number of l-projection  operators is LMAX  =           6
   number of lm-projection operators is LMMAX =          18
 
 POTCAR:    PAW_PBE O 08Apr2002                   
   VRHFIN =O: s2p4                                                              
   LEXCH  = PE                                                                  
   EATOM  =   432.3788 eV,   31.7789 Ry                                         
                                                                                
   TITEL  = PAW_PBE O 08Apr2002                                                 
   LULTRA =        F    use ultrasoft PP ?                                      
   IUNSCR =        1    unscreen: 0-lin 1-nonlin 2-no                           
   RPACOR =    1.200    partial core radius                                     
   POMASS =   16.000; ZVAL   =    6.000    mass and valenz                      
   RCORE  =    1.520    outmost cutoff radius                                   
   RWIGS  =    1.550; RWIGS  =    0.820    wigner-seitz radius (au A)           
   ENMAX  =  400.000; ENMIN  =  300.000 eV                                      
   ICORE  =        2    local potential                                         
   LCOR   =        T    correct aug charges                                     
   LPAW   =        T    paw PP                                                  
   EAUG   =  605.392                                                            
   DEXC   =    0.000                                                            
   RMAX   =    1.553    core radius for proj-oper                               
   RAUG   =    1.300    factor for augmentation sphere                          
   RDEP   =    1.550    radius for radial grids                                 
   RDEPT  =    1.329    core radius for aug-charge                              
                                                                                
   Atomic configuration                                                         
    4 entries                                                                   
     n  l   j            E        occ.                                          
     1  0  0.50      -514.6923   2.0000                                         
     2  0  0.50       -23.9615   2.0000                                         
     2  1  0.50        -9.0305   4.0000                                         
     3  2  1.50        -9.5241   0.0000                                         
   Description                                                                  
     l       E           TYP  RCUT    TYP  RCUT                                 
     0    -23.9615318     23  1.200                                             
     0     -9.5240782     23  1.200                                             
     1     -9.0304911     23  1.520                                             
     1      8.1634956     23  1.520                                             
     2     -9.5240782      7  1.500                                             
  local pseudopotential read in
  partial core-charges read in
  partial kinetic energy density read in
  kinetic energy density of atom read in
  atomic valenz-charges read in
  non local Contribution for L=           0  read in
    real space projection operators read in
  non local Contribution for L=           0  read in
    real space projection operators read in
  non local Contribution for L=           1  read in
    real space projection operators read in
  non local Contribution for L=           1  read in
    real space projection operators read in
    PAW grid and wavefunctions read in
 
   number of l-projection  operators is LMAX  =           4
   number of lm-projection operators is LMMAX =           8
 
 Optimization of the real space projectors (new method)

 maximal supplied QI-value         = 17.01
 optimisation between [QCUT,QGAM] = [ 12.25, 24.66] = [ 41.99,170.30] Ry 
 Optimized for a Real-space Cutoff    1.29 Angstroem

   l    n(q)    QCUT    max X(q) W(low)/X(q) W(high)/X(q)  e(spline) 
   1      9    12.245     4.267    0.57E-04    0.27E-03    0.24E-06
   1      9    12.245     5.750    0.98E-04    0.42E-03    0.38E-06
   2      9    12.245    53.656    0.12E-03    0.28E-03    0.25E-06
   2      9    12.245    49.521    0.12E-03    0.29E-03    0.26E-06
   0     10    12.245    31.246    0.34E-04    0.11E-03    0.12E-06
   0     10    12.245    12.201    0.27E-04    0.87E-04    0.10E-06
 Optimization of the real space projectors (new method)

 maximal supplied QI-value         = 24.76
 optimisation between [QCUT,QGAM] = [ 12.13, 24.51] = [ 41.20,168.19] Ry 
 Optimized for a Real-space Cutoff    1.18 Angstroem

   l    n(q)    QCUT    max X(q) W(low)/X(q) W(high)/X(q)  e(spline) 
   0      9    12.130    20.381    0.12E-03    0.40E-04    0.33E-06
   0      9    12.130    15.268    0.13E-03    0.40E-04    0.35E-06
   1      8    12.130     5.964    0.17E-03    0.83E-04    0.33E-06
   1      8    12.130     5.382    0.15E-03    0.78E-04    0.29E-06
  PAW_PBE Fe_pv 02Aug2007               :
 energy of atom  1       EATOM=-2457.4239
 kinetic energy error for atom=    0.0058 (will be added to EATOM!!)
  PAW_PBE O 08Apr2002                   :
 energy of atom  2       EATOM= -432.3788
 kinetic energy error for atom=    0.0181 (will be added to EATOM!!)
 
 
 POSCAR: Fe12 O18                                
  positions in direct lattice
  No initial velocities read in
 exchange correlation table for  LEXCH =        8
   RHO(1)=    0.500       N(1)  =     2000
   RHO(2)=  100.500       N(2)  =     4000
 


--------------------------------------------------------------------------------------------------------


 ion  position               nearest neighbor table
   1  0.000  0.000  0.355-  17 1.94  23 1.94  28 1.94  25 2.12  19 2.12  13 2.12
   2  0.000  0.000  0.645-  16 1.94  22 1.94  29 1.94  26 2.12  20 2.12  14 2.12
   3  0.333  0.667  0.022-  30 1.94  24 1.94  18 1.94  27 2.12  21 2.12  15 2.12
   4  0.667  0.333  0.689-  14 1.94  20 1.94  26 1.94  22 2.12  29 2.12  16 2.12
   5  0.333  0.667  0.311-  13 1.94  19 1.94  25 1.94  23 2.12  28 2.12  17 2.12
   6  0.667  0.333  0.978-  27 1.94  21 1.94  15 1.94  30 2.12  24 2.12  18 2.12
   7  0.000  0.000  0.145-  24 1.94  18 1.94  30 1.94  25 2.12  19 2.12  13 2.12
   8  0.000  0.000  0.855-  21 1.94  15 1.94  27 1.94  26 2.12  20 2.12  14 2.12
   9  0.333  0.667  0.811-  20 1.94  14 1.94  26 1.94  27 2.12  21 2.12  15 2.12
  10  0.333  0.667  0.522-  29 1.94  16 1.94  22 1.94  23 2.12  28 2.12  17 2.12
  11  0.667  0.333  0.478-  28 1.94  17 1.94  23 1.94  22 2.12  29 2.12  16 2.12
  12  0.667  0.333  0.189-  19 1.94  13 1.94  25 1.94  30 2.12  24 2.12  18 2.12
  13  0.306  0.000  0.250-   5 1.94  12 1.94   7 2.12   1 2.12
  14  0.694  0.000  0.750-   4 1.94   9 1.94   8 2.12   2 2.12
  15  0.640  0.667  0.917-   6 1.94   8 1.94   9 2.12   3 2.12
  16  0.973  0.333  0.583-  10 1.94   2 1.94   4 2.12  11 2.12
  17  0.027  0.667  0.417-  11 1.94   1 1.94   5 2.12  10 2.12
  18  0.360  0.333  0.083-   3 1.94   7 1.94  12 2.12   6 2.12
  19  0.000  0.306  0.250-  12 1.94   5 1.94   7 2.12   1 2.12
  20  0.000  0.694  0.750-   9 1.94   4 1.94   8 2.12   2 2.12
  21  0.333  0.973  0.917-   6 1.94   8 1.94   9 2.12   3 2.12
  22  0.667  0.640  0.583-  10 1.94   2 1.94   4 2.12  11 2.12
  23  0.333  0.360  0.417-  11 1.94   1 1.94   5 2.12  10 2.12
  24  0.667  0.027  0.083-   3 1.94   7 1.94  12 2.12   6 2.12
  25  0.694  0.694  0.250-  12 1.94   5 1.94   7 2.12   1 2.12
  26  0.306  0.306  0.750-   9 1.94   4 1.94   8 2.12   2 2.12
  27  0.027  0.360  0.917-   6 1.94   8 1.94   9 2.12   3 2.12
  28  0.640  0.973  0.417-  11 1.94   1 1.94   5 2.12  10 2.12
  29  0.360  0.027  0.583-  10 1.94   2 1.94   4 2.12  11 2.12
  30  0.973  0.640  0.083-   3 1.94   7 1.94  12 2.12   6 2.12
 
  LATTYP: Found a hexagonal cell.
 ALAT       =     5.0350995578
 C/A-ratio  =     2.7324385232
  
  Lattice vectors:
  
 A1 = (   5.0351000000,   0.0000000000,   0.0000000000)
 A2 = (  -2.5175500000,   4.3605240000,   0.0000000000)
 A3 = (   0.0000000000,   0.0000000000,  13.7581000000)


Analysis of symmetry for initial positions (statically):
=====================================================================
 Subroutine PRICEL returns following result:
 
  LATTYP: Found a trigonal (rhomboedric) cell.
 ALAT       =     5.4297801492
 COS(alpha) =     0.5700456062
  
  Lattice vectors:
  
 A1 = (  -2.5175449649,  -1.4535109070,  -4.5860425054)
 A2 = (  -0.0000025175,   2.9070174535,  -4.5860287473)
 A3 = (   2.5175474825,  -1.4535065465,  -4.5860287473)
 
   3 primitive cells build up your supercell.
 

 Routine SETGRP: Setting up the symmetry group for a 
 hexagonal supercell.


 Subroutine GETGRP returns: Found 12 space group operations
 (whereof  6 operations were pure point group operations)
 out of a pool of 24 trial point group operations.


The static configuration has the point symmetry S_6 .
 The point group associated with its full space group is D_3d.


Analysis of symmetry for dynamics (positions and initial velocities):
=====================================================================
 Subroutine PRICEL returns following result:
 
  LATTYP: Found a trigonal (rhomboedric) cell.
 ALAT       =     5.4297801492
 COS(alpha) =     0.5700456062
  
  Lattice vectors:
  
 A1 = (  -2.5175449649,  -1.4535109070,  -4.5860425054)
 A2 = (  -0.0000025175,   2.9070174535,  -4.5860287473)
 A3 = (   2.5175474825,  -1.4535065465,  -4.5860287473)
 
   3 primitive cells build up your supercell.
 

 Routine SETGRP: Setting up the symmetry group for a 
 hexagonal supercell.


 Subroutine GETGRP returns: Found 12 space group operations
 (whereof  6 operations were pure point group operations)
 out of a pool of 24 trial point group operations.


The dynamic configuration has the point symmetry S_6 .
 The point group associated with its full space group is D_3d.


Analysis of structural, dynamic, and magnetic symmetry:
=====================================================================
 Subroutine PRICEL returns following result:
 
  LATTYP: Found a trigonal (rhomboedric) cell.
 ALAT       =     5.4297801492
 COS(alpha) =     0.5700456062
  
  Lattice vectors:
  
 A1 = (  -2.5175449649,  -1.4535109070,  -4.5860425054)
 A2 = (  -0.0000025175,   2.9070174535,  -4.5860287473)
 A3 = (   2.5175474825,  -1.4535065465,  -4.5860287473)
 
   3 primitive cells build up your supercell.
 

 Routine SETGRP: Setting up the symmetry group for a 
 hexagonal supercell.


 Subroutine GETGRP returns: Found 12 space group operations
 (whereof  6 operations were pure point group operations)
 out of a pool of 24 trial point group operations.


The magnetic configuration has the point symmetry S_6 .
 The point group associated with its full space group is D_3d.


 Subroutine INISYM returns: Found 12 space group operations
 (whereof  6 operations are pure point group operations),
 and found     3 'primitive' translations

 
 
 KPOINTS: pymatgen with grid density = 2464 / numb

Automatic generation of k-mesh.
Space group operators:
 irot       det(A)        alpha          n_x          n_y          n_z        tau_x        tau_y        tau_z
    1     1.000000     0.000000     1.000000     0.000000     0.000000     0.000000     0.000000     0.000000
    2    -1.000000     0.000000     1.000000     0.000000     0.000000     0.000000     0.000000     0.000000
    3     1.000000   120.000000     0.000000     0.000000    -1.000000     0.000000     0.000000     0.000000
    4    -1.000000   120.000000     0.000000     0.000000    -1.000000     0.000000     0.000000     0.000000
    5     1.000000   120.000000     0.000000     0.000000     1.000000     0.000000     0.000000     0.000000
    6    -1.000000   120.000000     0.000000     0.000000     1.000000     0.000000     0.000000     0.000000
    7     1.000000   180.000000     1.000000     0.000000     0.000000     0.000001    -0.000000    -0.500000
    8    -1.000000   180.000000     1.000000     0.000000     0.000000     0.000001    -0.000000    -0.500000
    9     1.000000   180.000000     0.500000    -0.866025     0.000000     0.000000     0.000000    -0.500000
   10    -1.000000   180.000000     0.500000    -0.866025     0.000000     0.000000     0.000000    -0.500000
   11     1.000000   180.000000    -0.500000    -0.866025     0.000000     0.000000     0.000000    -0.500000
   12    -1.000000   180.000000    -0.500000    -0.866025     0.000000     0.000000     0.000000    -0.500000
 
 Subroutine IBZKPT returns following result:
 ===========================================
 
 Found     14 irreducible k-points:
 
 Following reciprocal coordinates:
            Coordinates               Weight
  0.000000  0.000000  0.000000      1.000000
  0.166667  0.000000  0.000000      6.000000
  0.333333  0.000000  0.000000      6.000000
  0.500000  0.000000  0.000000      3.000000
  0.166667  0.166667  0.000000      6.000000
  0.333333  0.166667  0.000000     12.000000
  0.333333  0.333333  0.000000      2.000000
  0.000000  0.000000  0.500000      1.000000
  0.166667  0.000000  0.500000      6.000000
  0.333333  0.000000  0.500000      6.000000
  0.500000  0.000000  0.500000      3.000000
  0.166667  0.166667  0.500000      6.000000
  0.333333  0.166667  0.500000     12.000000
  0.333333  0.333333  0.500000      2.000000
 
 Following cartesian coordinates:
            Coordinates               Weight
  0.000000  0.000000  0.000000      1.000000
  0.033101  0.019111  0.000000      6.000000
  0.066202  0.038222  0.000000      6.000000
  0.099303  0.057333  0.000000      3.000000
  0.033101  0.057333  0.000000      6.000000
  0.066202  0.076443  0.000000     12.000000
  0.066202  0.114665  0.000000      2.000000
  0.000000  0.000000  0.036342      1.000000
  0.033101  0.019111  0.036342      6.000000
  0.066202  0.038222  0.036342      6.000000
  0.099303  0.057333  0.036342      3.000000
  0.033101  0.057333  0.036342      6.000000
  0.066202  0.076443  0.036342     12.000000
  0.066202  0.114665  0.036342      2.000000
 
 TETIRR: Found     71 inequivalent tetrahedra from      432


--------------------------------------------------------------------------------------------------------




 Dimension of arrays:
   k-points           NKPTS =     14   k-points in BZ     NKDIM =     14   number of bands    NBANDS=    204
   number of dos      NEDOS =    301   number of ions     NIONS =     30
   non local maximal  LDIM  =      6   non local SUM 2l+1 LMDIM =     18
   total plane-waves  NPLWV = 172800
   max r-space proj   IRMAX =   5198   max aug-charges    IRDMAX=  17140
   dimension x,y,z NGX =    40 NGY =   40 NGZ =  108
   dimension x,y,z NGXF=    80 NGYF=   80 NGZF=  216
   support grid    NGXF=    80 NGYF=   80 NGZF=  216
   ions per type =              12  18
   NGX,Y,Z   is equivalent  to a cutoff of  13.21, 13.21, 13.05 a.u.
   NGXF,Y,Z  is equivalent  to a cutoff of  26.41, 26.41, 26.10 a.u.

 SYSTEM =  unknown system                          
 POSCAR =  Fe12 O18                                

 Startparameter for this run:
   NWRITE =      2    write-flag & timer
   PREC   = accura    normal or accurate (medium, high low for compatibility)
   ISTART =      0    job   : 0-new  1-cont  2-samecut
   ICHARG =      2    charge: 1-file 2-atom 10-const
   ISPIN  =      2    spin polarized calculation?
   LNONCOLLINEAR =      F non collinear calculations
   LSORBIT =      F    spin-orbit coupling
   INIWAV =      1    electr: 0-lowe 1-rand  2-diag
   LASPH  =      F    aspherical Exc in radial PAW
   METAGGA=      F    non-selfconsistent MetaGGA calc.

 Electronic Relaxation 1
   ENCUT  =  580.0 eV  42.63 Ry    6.53 a.u.   9.89  9.89 27.02*2*pi/ulx,y,z
   ENINI  =  580.0     initial cutoff
   ENAUG  =  605.4 eV  augmentation charge cutoff
   NELM   =    100;   NELMIN=  2; NELMDL= -5     # of ELM steps 
   EDIFF  = 0.1E-06   stopping-criterion for ELM
   LREAL  =      T    real-space projection
   NLSPLINE    = F    spline interpolate recip. space projectors
   LCOMPAT=      F    compatible to vasp.4.4
   GGA_COMPAT  = T    GGA compatible to vasp.4.4-vasp.4.6
   LMAXPAW     = -100 max onsite density
   LMAXMIX     =    2 max onsite mixed and CHGCAR
   VOSKOWN=      0    Vosko Wilk Nusair interpolation
   ROPT   =   -0.00025  -0.00025
 Ionic relaxation
   EDIFFG = 0.1E-05   stopping-criterion for IOM
   NSW    =      0    number of steps for IOM
   NBLOCK =      1;   KBLOCK =      1    inner block; outer block 
   IBRION =     -1    ionic relax: 0-MD 1-quasi-New 2-CG
   NFREE  =      0    steps in history (QN), initial steepest desc. (CG)
   ISIF   =      3    stress and relaxation
   IWAVPR =     10    prediction:  0-non 1-charg 2-wave 3-comb
   ISYM   =      2    0-nonsym 1-usesym 2-fastsym
   LCORR  =      T    Harris-Foulkes like correction to forces

   POTIM  = 0.5000    time-step for ionic-motion
   TEIN   =    0.0    initial temperature
   TEBEG  =    0.0;   TEEND  =   0.0 temperature during run
   SMASS  =  -3.00    Nose mass-parameter (am)
   estimated Nose-frequenzy (Omega)   =  0.10E-29 period in steps =****** mass=  -0.579E-27a.u.
   SCALEE = 1.0000    scale energy and forces
   NPACO  =    256;   APACO  = 16.0  distance and # of slots for P.C.
   PSTRESS=    0.0 pullay stress

  Mass of Ions in am
   POMASS =  55.85 16.00
  Ionic Valenz
   ZVAL   =  14.00  6.00
  Atomic Wigner-Seitz radii
   RWIGS  =  -1.00 -1.00
  virtual crystal weights 
   VCA    =   1.00  1.00
   NELECT =     276.0000    total number of electrons
   NUPDOWN=      -1.0000    fix difference up-down

 DOS related values:
   EMIN   =  10.00;   EMAX   =-10.00  energy-range for DOS
   EFERMI =   0.00
   ISMEAR =    -5;   SIGMA  =   0.05  broadening in eV -4-tet -1-fermi 0-gaus

 Electronic relaxation 2 (details)
   IALGO  =     38    algorithm
   LDIAG  =      T    sub-space diagonalisation (order eigenvalues)
   LSUBROT=      F    optimize rotation matrix (better conditioning)
   TURBO    =      0    0=normal 1=particle mesh
   IRESTART =      0    0=no restart 2=restart with 2 vectors
   NREBOOT  =      0    no. of reboots
   NMIN     =      0    reboot dimension
   EREF     =   0.00    reference energy to select bands
   IMIX   =      4    mixing-type and parameters
     AMIX     =   0.40;   BMIX     =  1.00
     AMIX_MAG =   1.60;   BMIX_MAG =  1.00
     AMIN     =   0.10
     WC   =   100.;   INIMIX=   1;  MIXPRE=   1;  MAXMIX= -45

 Intra band minimization:
   WEIMIN = 0.0000     energy-eigenvalue tresh-hold
   EBREAK =  0.12E-09  absolut break condition
   DEPER  =   0.30     relativ break condition  

   TIME   =   0.40     timestep for ELM

  volume/ion in A,a.u.               =      10.07        67.95
  Fermi-wavevector in a.u.,A,eV,Ry     =   1.588581  3.001983 34.335534  2.523591
  Thomas-Fermi vector in A             =   2.687563
 
 Write flags
   LWAVE        =      F    write WAVECAR
   LDOWNSAMPLE  =      F    k-point downsampling of WAVECAR
   LCHARG       =      F    write CHGCAR
   LVTOT        =      F    write LOCPOT, total local potential
   LVHAR        =      F    write LOCPOT, Hartree potential only
   LELF         =      F    write electronic localiz. function (ELF)
   LORBIT       =     11    0 simple, 1 ext, 2 COOP (PROOUT), +10 PAW based schemes


 Dipole corrections
   LMONO  =      F    monopole corrections only (constant potential shift)
   LDIPOL =      F    correct potential (dipole corrections)
   IDIPOL =      0    1-x, 2-y, 3-z, 4-all directions 
   EPSILON=  1.0000000 bulk dielectric constant

 Exchange correlation treatment:
   GGA     =    --    GGA type
   LEXCH   =     8    internal setting for exchange type
   VOSKOWN=      0    Vosko Wilk Nusair interpolation
   LHFCALC =     F    Hartree Fock is set to
   LHFONE  =     F    Hartree Fock one center treatment
   AEXX    =    0.0000 exact exchange contribution

 Linear response parameters
   LEPSILON=     F    determine dielectric tensor
   LRPA    =     F    only Hartree local field effects (RPA)
   LNABLA  =     F    use nabla operator in PAW spheres
   LVEL    =     F    velocity operator in full k-point grid
   LINTERFAST=   F  fast interpolation
   KINTER  =     0    interpolate to denser k-point grid
   CSHIFT  =0.1000    complex shift for real part using Kramers Kronig
   OMEGAMAX=  -1.0    maximum frequency
   DEG_THRESHOLD= 0.2000000E-02 threshold for treating states as degnerate
   RTIME   =   -0.100 relaxation time in fs
  (WPLASMAI=    0.000 imaginary part of plasma frequency in eV, 0.658/RTIME)
   DFIELD  = 0.0000000 0.0000000 0.0000000 field for delta impulse in time
 
 Orbital magnetization related:
   ORBITALMAG=     F  switch on orbital magnetization
   LCHIMAG   =     F  perturbation theory with respect to B field
   DQ        =  0.001000  dq finite difference perturbation B field
   LLRAUG    =     F  two centre corrections for induced B field



--------------------------------------------------------------------------------------------------------


 Static calculation
 charge density and potential will be updated during run
 spin polarized calculation
 Variant of blocked Davidson
 Davidson routine will perform the subspace rotation
 perform sub-space diagonalisation
    after iterative eigenvector-optimisation
 modified Broyden-mixing scheme, WC =      100.0
 initial mixing is a Kerker type mixing with AMIX =  0.4000 and BMIX =      1.0000
 Hartree-type preconditioning will be used
 using additional bands           66
 real space projection scheme for non local part
 use partial core corrections
 calculate Harris-corrections to forces 
   (improved forces if not selfconsistent)
 use gradient corrections 
 use of overlap-Matrix (Vanderbilt PP)
 Fermi weights with tetrahedron method with Bloechl corrections


--------------------------------------------------------------------------------------------------------


  energy-cutoff  :      580.00
  volume of cell :      302.07
      direct lattice vectors                 reciprocal lattice vectors
     5.035100000  0.000000000  0.000000000     0.198605787  0.114665118  0.000000000
    -2.517550000  4.360524000  0.000000000     0.000000000  0.229330236  0.000000000
     0.000000000  0.000000000 13.758100000     0.000000000  0.000000000  0.072684455

  length of vectors
     5.035100000  5.035099558 13.758100000     0.229330216  0.229330236  0.072684455


 
 k-points in units of 2pi/SCALE and weight: pymatgen with grid density = 2464 / numb
   0.00000000  0.00000000  0.00000000       0.014
   0.03310096  0.01911085  0.00000000       0.083
   0.06620193  0.03822171  0.00000000       0.083
   0.09930289  0.05733256  0.00000000       0.042
   0.03310096  0.05733256  0.00000000       0.083
   0.06620193  0.07644341  0.00000000       0.167
   0.06620193  0.11466512  0.00000000       0.028
   0.00000000  0.00000000  0.03634223       0.014
   0.03310096  0.01911085  0.03634223       0.083
   0.06620193  0.03822171  0.03634223       0.083
   0.09930289  0.05733256  0.03634223       0.042
   0.03310096  0.05733256  0.03634223       0.083
   0.06620193  0.07644341  0.03634223       0.167
   0.06620193  0.11466512  0.03634223       0.028
 
 k-points in reciprocal lattice and weights: pymatgen with grid density = 2464 / numb
   0.00000000  0.00000000  0.00000000       0.014
   0.16666667  0.00000000  0.00000000       0.083
   0.33333333  0.00000000  0.00000000       0.083
   0.50000000  0.00000000  0.00000000       0.042
   0.16666667  0.16666667  0.00000000       0.083
   0.33333333  0.16666667  0.00000000       0.167
   0.33333333  0.33333333  0.00000000       0.028
   0.00000000  0.00000000  0.50000000       0.014
   0.16666667  0.00000000  0.50000000       0.083
   0.33333333  0.00000000  0.50000000       0.083
   0.50000000  0.00000000  0.50000000       0.042
   0.16666667  0.16666667  0.50000000       0.083
   0.33333333  0.16666667  0.50000000       0.167
   0.33333333  0.33333333  0.50000000       0.028
 
 position of ions in fractional coordinates (direct lattice) 
   0.00000000  0.00000000  0.35532000
   0.00000000  0.00000000  0.64468000
   0.33333300  0.66666700  0.02198700
   0.66666700  0.33333300  0.68865300
   0.33333300  0.66666700  0.31134700
   0.66666700  0.33333300  0.97801300
   0.00000000  0.00000000  0.14468000
   0.00000000  0.00000000  0.85532000
   0.33333300  0.66666700  0.81134700
   0.33333300  0.66666700  0.52198700
   0.66666700  0.33333300  0.47801300
   0.66666700  0.33333300  0.18865300
   0.30618000  0.00000000  0.25000000
   0.69382000  0.00000000  0.75000000
   0.63951300  0.66666700  0.91666700
   0.97284700  0.33333300  0.58333300
   0.02715300  0.66666700  0.41666700
   0.36048700  0.33333300  0.08333300
   0.00000000  0.30618000  0.25000000
   0.00000000  0.69382000  0.75000000
   0.33333300  0.97284700  0.91666700
   0.66666700  0.63951300  0.58333300
   0.33333300  0.36048700  0.41666700
   0.66666700  0.02715300  0.08333300
   0.69382000  0.69382000  0.25000000
   0.30618000  0.30618000  0.75000000
   0.02715300  0.36048700  0.91666700
   0.63951300  0.97284700  0.41666700
   0.36048700  0.02715300  0.58333300
   0.97284700  0.63951300  0.08333300
 
 position of ions in cartesian coordinates  (Angst):
   0.00000000  0.00000000  4.88852809
   0.00000000  0.00000000  8.86957191
  -0.00000252  2.90701745  0.30249934
   2.51755252  1.45350655  9.47455684
  -0.00000252  2.90701745  4.28354316
   2.51755252  1.45350655 13.45560066
   0.00000000  0.00000000  1.99052191
   0.00000000  0.00000000 11.76757809
  -0.00000252  2.90701745 11.16259316
  -0.00000252  2.90701745  7.18154934
   2.51755252  1.45350655  6.57655066
   2.51755252  1.45350655  2.59550684
   1.54164692  0.00000000  3.43952500
   3.49345308  0.00000000 10.31857500
   1.54164440  2.90701745 12.61159625
   4.05919944  1.45350655  8.02555375
  -1.54164944  2.90701745  5.73254625
   0.97590560  1.45350655  1.14650375
  -0.77082346  1.33510524  3.43952500
  -1.74672654  3.02541876 10.31857500
  -0.77082598  4.24212269 12.61159625
   1.74672906  2.78861178  8.02555375
   0.77082094  1.57191222  5.73254625
   3.28837598  0.11840131  1.14650375
   1.74672654  3.02541876  3.43952500
   0.77082346  1.33510524 10.31857500
  -0.77082598  1.57191222 12.61159625
   0.77082094  4.24212269  5.73254625
   1.74672906  0.11840131  8.02555375
   3.28837598  2.78861178  1.14650375
 


--------------------------------------------------------------------------------------------------------


 k-point  1 :   0.0000 0.0000 0.0000  plane waves:    9535
 k-point  2 :   0.1667 0.0000 0.0000  plane waves:    9545
 k-point  3 :   0.3333 0.0000 0.0000  plane waves:    9575
 k-point  4 :   0.5000 0.0000 0.0000  plane waves:    9620
 k-point  5 :   0.1667 0.1667 0.0000  plane waves:    9582
 k-point  6 :   0.3333 0.1667 0.0000  plane waves:    9589
 k-point  7 :   0.3333 0.3333 0.0000  plane waves:    9594
 k-point  8 :   0.0000 0.0000 0.5000  plane waves:    9570
 k-point  9 :   0.1667 0.0000 0.5000  plane waves:    9552
 k-point 10 :   0.3333 0.0000 0.5000  plane waves:    9604
 k-point 11 :   0.5000 0.0000 0.5000  plane waves:    9580
 k-point 12 :   0.1667 0.1667 0.5000  plane waves:    9556
 k-point 13 :   0.3333 0.1667 0.5000  plane waves:    9594
 k-point 14 :   0.3333 0.3333 0.5000  plane waves:    9600

 maximum and minimum number of plane-waves per node :      2446     2352

 maximum number of plane-waves:      9620
 maximum index in each direction: 
   IXMAX=    9   IYMAX=    9   IZMAX=   27
   IXMIN=  -10   IYMIN=  -10   IZMIN=  -27


 real space projection operators:
  total allocation   :      12745.50 KBytes
  max/ min on nodes  :       3190.00       3182.62


 parallel 3D FFT for wavefunctions:
    minimum data exchange during FFTs selected (reduces bandwidth)
 parallel 3D FFT for charge:
    minimum data exchange during FFTs selected (reduces bandwidth)


 total amount of memory used by VASP MPI-rank0    87655. kBytes
=======================================================================

   base      :      30000. kBytes
   nonlr-proj:       6555. kBytes
   fftplans  :       3520. kBytes
   grid      :       9039. kBytes
   one-center:        248. kBytes
   wavefun   :      38293. kBytes
 
     INWAV:  cpu time    0.0000: real time    0.0001
 Broyden mixing: mesh for mixing (old mesh)
   NGX = 19   NGY = 19   NGZ = 55
  (NGX  = 80   NGY  = 80   NGZ  =216)
  gives a total of  19855 points

 initial charge density was supplied:
 charge density of overlapping atoms calculated
 number of electron     276.0000000 magnetization      70.8000000
 keeping initial charge density in first step


--------------------------------------------------------------------------------------------------------


 Maximum index for non-local projection operator         1266
 Maximum index for augmentation-charges         1267 (set IRDMAX)


--------------------------------------------------------------------------------------------------------


 First call to EWALD:  gamma=   0.264
 Maximum number of real-space cells 4x 4x 2
 Maximum number of reciprocal cells 2x 2x 5

    FEWALD:  cpu time    0.0016: real time    0.0016


--------------------------------------- Iteration      1(   1)  ---------------------------------------


    POTLOK:  cpu time    0.0860: real time    0.0874
    SETDIJ:  cpu time    0.0130: real time    0.0130
     EDDAV:  cpu time   12.7420: real time   12.7833
 BZINTS: Fermi energy: 28.834287;276.000000 electrons
         Band energy:1354.735557;  BLOECHL correction: -0.174382
       DOS:  cpu time    0.0431: real time    0.0432
    --------------------------------------------
      LOOP:  cpu time   12.8841: real time   12.9269

 eigenvalue-minimisations  : 11592
 total energy-change (2. order) : 0.4371068E+04  (-0.1469383E+05)
 number of electron     276.0000000 magnetization      70.8000000
 augmentation part      276.0000000 magnetization      70.8000000

 Free energy of the ion-electron system (eV)
  ---------------------------------------------------
  alpha Z        PSCENC =      1362.55286497
  Ewald energy   TEWEN  =    -25513.06237826
  -Hartree energ DENC   =    -10371.14386018
  -exchange      EXHF   =         0.00000000
  -V(xc)+E(xc)   XCENC  =      1375.27779283
  PAW double counting   =     30224.59406688   -31333.39571732
  entropy T*S    EENTRO =         0.00000000
  eigenvalues    EBANDS =      1354.73555742
  atomic energy  EATOM  =     37271.50967944
  Solvation  Ediel_sol  =         0.00000000
  ---------------------------------------------------
  free energy    TOTEN  =      4371.06800578 eV

  energy without entropy =     4371.06800578  energy(sigma->0) =     4371.06800578


--------------------------------------------------------------------------------------------------------




--------------------------------------- Iteration      1(   2)  ---------------------------------------


     EDDAV:  cpu time   12.5941: real time   12.6337
 BZINTS: Fermi energy: 11.461049;276.000000 electrons
         Band energy:***********;  BLOECHL correction: -0.031579
       DOS:  cpu time    0.0434: real time    0.0435
    --------------------------------------------
      LOOP:  cpu time   12.6375: real time   12.6772

 eigenvalue-minimisations  : 11424
 total energy-change (2. order) :-0.3913240E+04  (-0.3558649E+04)
 number of electron     276.0000000 magnetization      70.8000000
 augmentation part      276.0000000 magnetization      70.8000000

 Free energy of the ion-electron system (eV)
  ---------------------------------------------------
  alpha Z        PSCENC =      1362.55286497
  Ewald energy   TEWEN  =    -25513.06237826
  -Hartree energ DENC   =    -10371.14386018
  -exchange      EXHF   =         0.00000000
  -V(xc)+E(xc)   XCENC  =      1375.27779283
  PAW double counting   =     30224.59406688   -31333.39571732
  entropy T*S    EENTRO =         0.00000000
  eigenvalues    EBANDS =     -2558.50468470
  atomic energy  EATOM  =     37271.50967944
  Solvation  Ediel_sol  =         0.00000000
  ---------------------------------------------------
  free energy    TOTEN  =       457.82776366 eV

  energy without entropy =      457.82776366  energy(sigma->0) =      457.82776366


--------------------------------------------------------------------------------------------------------




--------------------------------------- Iteration      1(   3)  ---------------------------------------


     EDDAV:  cpu time   13.2109: real time   13.2461
 BZINTS: Fermi energy:  8.528148;276.000000 electrons
         Band energy:***********;  BLOECHL correction:  0.000000
       DOS:  cpu time    0.0060: real time    0.0060
    --------------------------------------------
      LOOP:  cpu time   13.2169: real time   13.2520

 eigenvalue-minimisations  : 11868
 total energy-change (2. order) :-0.7072174E+03  (-0.6306899E+03)
 number of electron     276.0000000 magnetization      70.8000000
 augmentation part      276.0000000 magnetization      70.8000000

 Free energy of the ion-electron system (eV)
  ---------------------------------------------------
  alpha Z        PSCENC =      1362.55286497
  Ewald energy   TEWEN  =    -25513.06237826
  -Hartree energ DENC   =    -10371.14386018
  -exchange      EXHF   =         0.00000000
  -V(xc)+E(xc)   XCENC  =      1375.27779283
  PAW double counting   =     30224.59406688   -31333.39571732
  entropy T*S    EENTRO =         0.00000000
  eigenvalues    EBANDS =     -3265.72210324
  atomic energy  EATOM  =     37271.50967944
  Solvation  Ediel_sol  =         0.00000000
  ---------------------------------------------------
  free energy    TOTEN  =      -249.38965489 eV

  energy without entropy =     -249.38965489  energy(sigma->0) =     -249.38965489


--------------------------------------------------------------------------------------------------------




--------------------------------------- Iteration      1(   4)  ---------------------------------------


     EDDAV:  cpu time   14.3128: real time   14.3501
 BZINTS: Fermi energy:  8.294221;276.000000 electrons
         Band energy:***********;  BLOECHL correction:  0.000000
       DOS:  cpu time    0.0072: real time    0.0072
    --------------------------------------------
      LOOP:  cpu time   14.3200: real time   14.3573

 eigenvalue-minimisations  : 12888
 total energy-change (2. order) :-0.4453503E+02  (-0.4402889E+02)
 number of electron     276.0000000 magnetization      70.8000000
 augmentation part      276.0000000 magnetization      70.8000000

 Free energy of the ion-electron system (eV)
  ---------------------------------------------------
  alpha Z        PSCENC =      1362.55286497
  Ewald energy   TEWEN  =    -25513.06237826
  -Hartree energ DENC   =    -10371.14386018
  -exchange      EXHF   =         0.00000000
  -V(xc)+E(xc)   XCENC  =      1375.27779283
  PAW double counting   =     30224.59406688   -31333.39571732
  entropy T*S    EENTRO =         0.00000000
  eigenvalues    EBANDS =     -3310.25713574
  atomic energy  EATOM  =     37271.50967944
  Solvation  Ediel_sol  =         0.00000000
  ---------------------------------------------------
  free energy    TOTEN  =      -293.92468739 eV

  energy without entropy =     -293.92468739  energy(sigma->0) =     -293.92468739


--------------------------------------------------------------------------------------------------------




--------------------------------------- Iteration      1(   5)  ---------------------------------------


     EDDAV:  cpu time   14.1398: real time   14.1757
 BZINTS: Fermi energy:  8.172819;276.000000 electrons
         Band energy:***********;  BLOECHL correction:  0.000000
       DOS:  cpu time    0.0061: real time    0.0061
    CHARGE:  cpu time    0.4323: real time    0.4333
    MIXING:  cpu time    0.0022: real time    0.0023
    --------------------------------------------
      LOOP:  cpu time   14.5804: real time   14.6175

 eigenvalue-minimisations  : 12732
 total energy-change (2. order) :-0.4937691E+00  (-0.4924455E+00)
 number of electron     276.0000073 magnetization      67.8179408
 augmentation part      108.0300731 magnetization      47.0428499

 Broyden mixing:
  rms(total) = 0.80971E+01    rms(broyden)= 0.80968E+01
  rms(prec ) = 0.88431E+01
  weight for this iteration     100.00

 Free energy of the ion-electron system (eV)
  ---------------------------------------------------
  alpha Z        PSCENC =      1362.55286497
  Ewald energy   TEWEN  =    -25513.06237826
  -Hartree energ DENC   =    -10371.14386018
  -exchange      EXHF   =         0.00000000
  -V(xc)+E(xc)   XCENC  =      1375.27779283
  PAW double counting   =     30224.59406688   -31333.39571732
  entropy T*S    EENTRO =         0.00000000
  eigenvalues    EBANDS =     -3310.75090480
  atomic energy  EATOM  =     37271.50967944
  Solvation  Ediel_sol  =         0.00000000
  ---------------------------------------------------
  free energy    TOTEN  =      -294.41845645 eV

  energy without entropy =     -294.41845645  energy(sigma->0) =     -294.41845645


--------------------------------------------------------------------------------------------------------




--------------------------------------- Iteration      1(   6)  ---------------------------------------


    POTLOK:  cpu time    0.0827: real time    0.0832
    SETDIJ:  cpu time    0.0128: real time    0.0128
     EDDAV:  cpu time   15.6242: real time   15.6639
 BZINTS: Fermi energy:  5.536496;276.000000 electrons
         Band energy:***********;  BLOECHL correction: -0.054224
       DOS:  cpu time    0.0484: real time    0.0485
    CHARGE:  cpu time    0.4468: real time    0.4481
    MIXING:  cpu time    0.0021: real time    0.0022
    --------------------------------------------
      LOOP:  cpu time   16.2170: real time   16.2587

 eigenvalue-minimisations  : 14760
 total energy-change (2. order) : 0.5907831E+02  (-0.2536004E+02)
 number of electron     276.0000044 magnetization      62.9827701
 augmentation part      120.7515209 magnetization      54.4262309

 Broyden mixing:
  rms(total) = 0.91412E+01    rms(broyden)= 0.91405E+01
  rms(prec ) = 0.97926E+01
  weight for this iteration     100.00

 eigenvalues of (default mixing * dielectric matrix)
  average eigenvalue GAMMA=   0.3181
  0.3181

 Free energy of the ion-electron system (eV)
  ---------------------------------------------------
  alpha Z        PSCENC =      1362.55286497
  Ewald energy   TEWEN  =    -25513.06237826
  -Hartree energ DENC   =     -9966.03251670
  -exchange      EXHF   =         0.00000000
  -V(xc)+E(xc)   XCENC  =      1376.66598968
  PAW double counting   =     31435.11005737   -32502.08219691
  entropy T*S    EENTRO =         0.00000000
  eigenvalues    EBANDS =     -3700.00164751
  atomic energy  EATOM  =     37271.50967944
  Solvation  Ediel_sol  =         0.00000000
  ---------------------------------------------------
  free energy    TOTEN  =      -235.34014791 eV

  energy without entropy =     -235.34014791  energy(sigma->0) =     -235.34014791


--------------------------------------------------------------------------------------------------------




--------------------------------------- Iteration      1(   7)  ---------------------------------------


    POTLOK:  cpu time    0.0809: real time    0.0813
    SETDIJ:  cpu time    0.0125: real time    0.0126
     EDDAV:  cpu time   13.2752: real time   13.3088
 BZINTS: Fermi energy:  7.087995;276.000000 electrons
         Band energy:***********;  BLOECHL correction: -0.036044
       DOS:  cpu time    0.0473: real time    0.0474
    CHARGE:  cpu time    0.4417: real time    0.4429
    MIXING:  cpu time    0.0020: real time    0.0020
    --------------------------------------------
      LOOP:  cpu time   13.8596: real time   13.8950

 eigenvalue-minimisations  : 12240
 total energy-change (2. order) : 0.2388200E+02  (-0.1145761E+02)
 number of electron     276.0000061 magnetization      58.7975157
 augmentation part      109.3645346 magnetization      40.2891203

 Broyden mixing:
  rms(total) = 0.43762E+01    rms(broyden)= 0.43758E+01
  rms(prec ) = 0.45367E+01
  weight for this iteration     100.00

 eigenvalues of (default mixing * dielectric matrix)
  average eigenvalue GAMMA=   0.6793
  1.0290  0.3295

 Free energy of the ion-electron system (eV)
  ---------------------------------------------------
  alpha Z        PSCENC =      1362.55286497
  Ewald energy   TEWEN  =    -25513.06237826
  -Hartree energ DENC   =    -10208.38463538
  -exchange      EXHF   =         0.00000000
  -V(xc)+E(xc)   XCENC  =      1372.46521401
  PAW double counting   =     32868.46803558   -33997.05842514
  entropy T*S    EENTRO =         0.00000000
  eigenvalues    EBANDS =     -3367.94850047
  atomic energy  EATOM  =     37271.50967944
  Solvation  Ediel_sol  =         0.00000000
  ---------------------------------------------------
  free energy    TOTEN  =      -211.45814524 eV

  energy without entropy =     -211.45814524  energy(sigma->0) =     -211.45814524


--------------------------------------------------------------------------------------------------------




--------------------------------------- Iteration      1(   8)  ---------------------------------------


    POTLOK:  cpu time    0.0822: real time    0.0826
    SETDIJ:  cpu time    0.0129: real time    0.0130
     EDDAV:  cpu time   13.2099: real time   13.2434
 BZINTS: Fermi energy:  6.455241;276.000000 electrons
         Band energy:***********;  BLOECHL correction: -0.034189
       DOS:  cpu time    0.0474: real time    0.0475
    CHARGE:  cpu time    0.4423: real time    0.4433
    MIXING:  cpu time    0.0021: real time    0.0021
    --------------------------------------------
      LOOP:  cpu time   13.7968: real time   13.8320

 eigenvalue-minimisations  : 12132
 total energy-change (2. order) :-0.6816157E+01  (-0.2139014E+01)
 number of electron     276.0000060 magnetization      51.9059705
 augmentation part      111.2659595 magnetization      34.9896216

 Broyden mixing:
  rms(total) = 0.26456E+01    rms(broyden)= 0.26456E+01
  rms(prec ) = 0.27060E+01
  weight for this iteration     100.00

 eigenvalues of (default mixing * dielectric matrix)
  average eigenvalue GAMMA=   1.0817
  2.2771  0.5870  0.3811

 Free energy of the ion-electron system (eV)
  ---------------------------------------------------
  alpha Z        PSCENC =      1362.55286497
  Ewald energy   TEWEN  =    -25513.06237826
  -Hartree energ DENC   =    -10074.00666259
  -exchange      EXHF   =         0.00000000
  -V(xc)+E(xc)   XCENC  =      1366.49842889
  PAW double counting   =     34232.03628362   -35372.49455843
  entropy T*S    EENTRO =         0.00000000
  eigenvalues    EBANDS =     -3491.30795940
  atomic energy  EATOM  =     37271.50967944
  Solvation  Ediel_sol  =         0.00000000
  ---------------------------------------------------
  free energy    TOTEN  =      -218.27430177 eV

  energy without entropy =     -218.27430177  energy(sigma->0) =     -218.27430177


--------------------------------------------------------------------------------------------------------




--------------------------------------- Iteration      1(   9)  ---------------------------------------


    POTLOK:  cpu time    0.0811: real time    0.0816
    SETDIJ:  cpu time    0.0125: real time    0.0126
     EDDAV:  cpu time   13.5682: real time   13.6025
 BZINTS: Fermi energy:  5.875201;276.000000 electrons
         Band energy:***********;  BLOECHL correction: -0.039495
       DOS:  cpu time    0.0451: real time    0.0452
    CHARGE:  cpu time    0.4420: real time    0.4433
    MIXING:  cpu time    0.0021: real time    0.0021
    --------------------------------------------
      LOOP:  cpu time   14.1511: real time   14.1872

 eigenvalue-minimisations  : 12600
 total energy-change (2. order) :-0.4241021E+01  (-0.8336237E+00)
 number of electron     276.0000055 magnetization      50.9295918
 augmentation part      114.1899870 magnetization      37.8670429

 Broyden mixing:
  rms(total) = 0.27505E+01    rms(broyden)= 0.27503E+01
  rms(prec ) = 0.28850E+01
  weight for this iteration     100.00

 eigenvalues of (default mixing * dielectric matrix)
  average eigenvalue GAMMA=   1.1006
  2.8492  0.8039  0.3747  0.3747

 Free energy of the ion-electron system (eV)
  ---------------------------------------------------
  alpha Z        PSCENC =      1362.55286497
  Ewald energy   TEWEN  =    -25513.06237826
  -Hartree energ DENC   =     -9932.27429354
  -exchange      EXHF   =         0.00000000
  -V(xc)+E(xc)   XCENC  =      1362.33715800
  PAW double counting   =     36532.53383333   -37701.85196002
  entropy T*S    EENTRO =         0.00000000
  eigenvalues    EBANDS =     -3604.26022628
  atomic energy  EATOM  =     37271.50967944
  Solvation  Ediel_sol  =         0.00000000
  ---------------------------------------------------
  free energy    TOTEN  =      -222.51532236 eV

  energy without entropy =     -222.51532236  energy(sigma->0) =     -222.51532236


--------------------------------------------------------------------------------------------------------




--------------------------------------- Iteration      1(  10)  ---------------------------------------


    POTLOK:  cpu time    0.0805: real time    0.0808
    SETDIJ:  cpu time    0.0130: real time    0.0130
     EDDAV:  cpu time   13.6058: real time   13.6409
 BZINTS: Fermi energy:  5.958441;276.000000 electrons
         Band energy:***********;  BLOECHL correction: -0.037473
       DOS:  cpu time    0.0472: real time    0.0474
    CHARGE:  cpu time    0.4415: real time    0.4427
    MIXING:  cpu time    0.0023: real time    0.0023
    --------------------------------------------
      LOOP:  cpu time   14.1903: real time   14.2271

 eigenvalue-minimisations  : 12588
 total energy-change (2. order) : 0.4035611E+00  (-0.2490537E+00)
 number of electron     276.0000055 magnetization      50.6181737
 augmentation part      113.4411156 magnetization      37.3273047

 Broyden mixing:
  rms(total) = 0.18677E+01    rms(broyden)= 0.18677E+01
  rms(prec ) = 0.19798E+01
  weight for this iteration     100.00

 eigenvalues of (default mixing * dielectric matrix)
  average eigenvalue GAMMA=   1.0191
  2.6147  0.3732  0.7704  0.6686  0.6686

 Free energy of the ion-electron system (eV)
  ---------------------------------------------------
  alpha Z        PSCENC =      1362.55286497
  Ewald energy   TEWEN  =    -25513.06237826
  -Hartree energ DENC   =     -9948.91893024
  -exchange      EXHF   =         0.00000000
  -V(xc)+E(xc)   XCENC  =      1360.90262687
  PAW double counting   =     36550.64901096   -37723.10043855
  entropy T*S    EENTRO =         0.00000000
  eigenvalues    EBANDS =     -3582.64419647
  atomic energy  EATOM  =     37271.50967944
  Solvation  Ediel_sol  =         0.00000000
  ---------------------------------------------------
  free energy    TOTEN  =      -222.11176127 eV

  energy without entropy =     -222.11176127  energy(sigma->0) =     -222.11176127


--------------------------------------------------------------------------------------------------------




--------------------------------------- Iteration      1(  11)  ---------------------------------------


    POTLOK:  cpu time    0.0810: real time    0.0814
    SETDIJ:  cpu time    0.0126: real time    0.0126
     EDDAV:  cpu time   14.8795: real time   14.9171
 BZINTS: Fermi energy:  6.020483;276.000000 electrons
         Band energy:***********;  BLOECHL correction: -0.034119
       DOS:  cpu time    0.0495: real time    0.0496
    CHARGE:  cpu time    0.4430: real time    0.4440
    MIXING:  cpu time    0.0024: real time    0.0024
    --------------------------------------------
      LOOP:  cpu time   15.4679: real time   15.5071

 eigenvalue-minimisations  : 14184
 total energy-change (2. order) : 0.5771693E+00  (-0.2379555E-01)
 number of electron     276.0000056 magnetization      49.2987585
 augmentation part      113.0170628 magnetization      35.6189697

 Broyden mixing:
  rms(total) = 0.12223E+01    rms(broyden)= 0.12223E+01
  rms(prec ) = 0.12965E+01
  weight for this iteration     100.00

 eigenvalues of (default mixing * dielectric matrix)
  average eigenvalue GAMMA=   1.0463
  2.5814  0.9757  0.9757  0.3782  0.7987  0.5680

 Free energy of the ion-electron system (eV)
  ---------------------------------------------------
  alpha Z        PSCENC =      1362.55286497
  Ewald energy   TEWEN  =    -25513.06237826
  -Hartree energ DENC   =     -9960.09629694
  -exchange      EXHF   =         0.00000000
  -V(xc)+E(xc)   XCENC  =      1360.22283509
  PAW double counting   =     36379.99152949   -37550.43179863
  entropy T*S    EENTRO =         0.00000000
  eigenvalues    EBANDS =     -3572.22102710
  atomic energy  EATOM  =     37271.50967944
  Solvation  Ediel_sol  =         0.00000000
  ---------------------------------------------------
  free energy    TOTEN  =      -221.53459194 eV

  energy without entropy =     -221.53459194  energy(sigma->0) =     -221.53459194


--------------------------------------------------------------------------------------------------------




--------------------------------------- Iteration      1(  12)  ---------------------------------------


    POTLOK:  cpu time    0.0826: real time    0.0830
    SETDIJ:  cpu time    0.0129: real time    0.0129
     EDDAV:  cpu time   15.7383: real time   15.7782
 BZINTS: Fermi energy:  6.081099;276.000000 electrons
         Band energy:***********;  BLOECHL correction: -0.033633
       DOS:  cpu time    0.0464: real time    0.0465
    CHARGE:  cpu time    0.4414: real time    0.4426
    MIXING:  cpu time    0.0022: real time    0.0022
    --------------------------------------------
      LOOP:  cpu time   16.3238: real time   16.3654

 eigenvalue-minimisations  : 15192
 total energy-change (2. order) : 0.2028837E+00  (-0.1962774E-01)
 number of electron     276.0000057 magnetization      46.8193554
 augmentation part      112.6954044 magnetization      33.0399772

 Broyden mixing:
  rms(total) = 0.85082E+00    rms(broyden)= 0.85081E+00
  rms(prec ) = 0.89246E+00
  weight for this iteration     100.00

 eigenvalues of (default mixing * dielectric matrix)
  average eigenvalue GAMMA=   1.0991
  1.9594  1.9594  1.3746  0.3768  0.7497  0.6371  0.6371

 Free energy of the ion-electron system (eV)
  ---------------------------------------------------
  alpha Z        PSCENC =      1362.55286497
  Ewald energy   TEWEN  =    -25513.06237826
  -Hartree energ DENC   =     -9973.33064798
  -exchange      EXHF   =         0.00000000
  -V(xc)+E(xc)   XCENC  =      1359.58793538
  PAW double counting   =     36264.55454461   -37433.95791997
  entropy T*S    EENTRO =         0.00000000
  eigenvalues    EBANDS =     -3559.18578642
  atomic energy  EATOM  =     37271.50967944
  Solvation  Ediel_sol  =         0.00000000
  ---------------------------------------------------
  free energy    TOTEN  =      -221.33170824 eV

  energy without entropy =     -221.33170824  energy(sigma->0) =     -221.33170824


--------------------------------------------------------------------------------------------------------




--------------------------------------- Iteration      1(  13)  ---------------------------------------


    POTLOK:  cpu time    0.0798: real time    0.0801
    SETDIJ:  cpu time    0.0128: real time    0.0128
     EDDAV:  cpu time   14.7320: real time   14.7694
 BZINTS: Fermi energy:  6.142425;276.000000 electrons
         Band energy:***********;  BLOECHL correction: -0.034486
       DOS:  cpu time    0.0309: real time    0.0309
    CHARGE:  cpu time    0.4494: real time    0.4505
    MIXING:  cpu time    0.0028: real time    0.0028
    --------------------------------------------
      LOOP:  cpu time   15.3076: real time   15.3465

 eigenvalue-minimisations  : 13968
 total energy-change (2. order) : 0.3349124E-02  (-0.1168078E-01)
 number of electron     276.0000057 magnetization      43.8961463
 augmentation part      112.4146174 magnetization      30.3626987

 Broyden mixing:
  rms(total) = 0.46243E+00    rms(broyden)= 0.46241E+00
  rms(prec ) = 0.48552E+00
  weight for this iteration     100.00

 eigenvalues of (default mixing * dielectric matrix)
  average eigenvalue GAMMA=   1.4010
  3.5465  3.3712  0.3771  0.9328  0.9328  0.7230  0.7230  0.6015

 Free energy of the ion-electron system (eV)
  ---------------------------------------------------
  alpha Z        PSCENC =      1362.55286497
  Ewald energy   TEWEN  =    -25513.06237826
  -Hartree energ DENC   =     -9991.73338813
  -exchange      EXHF   =         0.00000000
  -V(xc)+E(xc)   XCENC  =      1358.75049950
  PAW double counting   =     36031.44718153   -37197.77611142
  entropy T*S    EENTRO =         0.00000000
  eigenvalues    EBANDS =     -3543.01670675
  atomic energy  EATOM  =     37271.50967944
  Solvation  Ediel_sol  =         0.00000000
  ---------------------------------------------------
  free energy    TOTEN  =      -221.32835912 eV

  energy without entropy =     -221.32835912  energy(sigma->0) =     -221.32835912


--------------------------------------------------------------------------------------------------------




--------------------------------------- Iteration      1(  14)  ---------------------------------------


    POTLOK:  cpu time    0.0810: real time    0.0813
    SETDIJ:  cpu time    0.0128: real time    0.0129
     EDDAV:  cpu time   15.3817: real time   15.4213
 BZINTS: Fermi energy:  6.174899;276.000000 electrons
         Band energy:***********;  BLOECHL correction: -0.032737
       DOS:  cpu time    0.0484: real time    0.0486
    CHARGE:  cpu time    0.4420: real time    0.4430
    MIXING:  cpu time    0.0026: real time    0.0026
    --------------------------------------------
      LOOP:  cpu time   15.9684: real time   16.0095

 eigenvalue-minimisations  : 14784
 total energy-change (2. order) :-0.4679991E-01  (-0.1619977E-01)
 number of electron     276.0000058 magnetization      43.0027055
 augmentation part      112.2286849 magnetization      29.8531809

 Broyden mixing:
  rms(total) = 0.17337E+00    rms(broyden)= 0.17330E+00
  rms(prec ) = 0.18044E+00
  weight for this iteration     100.00

 eigenvalues of (default mixing * dielectric matrix)
  average eigenvalue GAMMA=   1.5109
  5.3768  2.7755  1.2424  0.3771  0.8441  0.8441  0.8797  0.6291  0.6291

 Free energy of the ion-electron system (eV)
  ---------------------------------------------------
  alpha Z        PSCENC =      1362.55286497
  Ewald energy   TEWEN  =    -25513.06237826
  -Hartree energ DENC   =    -10004.39919022
  -exchange      EXHF   =         0.00000000
  -V(xc)+E(xc)   XCENC  =      1357.64996991
  PAW double counting   =     35829.80764081   -36993.10894734
  entropy T*S    EENTRO =         0.00000000
  eigenvalues    EBANDS =     -3532.32479836
  atomic energy  EATOM  =     37271.50967944
  Solvation  Ediel_sol  =         0.00000000
  ---------------------------------------------------
  free energy    TOTEN  =      -221.37515903 eV

  energy without entropy =     -221.37515903  energy(sigma->0) =     -221.37515903


--------------------------------------------------------------------------------------------------------




--------------------------------------- Iteration      1(  15)  ---------------------------------------


    POTLOK:  cpu time    0.0802: real time    0.0807
    SETDIJ:  cpu time    0.0131: real time    0.0131
     EDDAV:  cpu time   13.4905: real time   13.5246
 BZINTS: Fermi energy:  6.159649;276.000000 electrons
         Band energy:***********;  BLOECHL correction: -0.033066
       DOS:  cpu time    0.0462: real time    0.0463
    CHARGE:  cpu time    0.4428: real time    0.4438
    MIXING:  cpu time    0.0030: real time    0.0030
    --------------------------------------------
      LOOP:  cpu time   14.0758: real time   14.1116

 eigenvalue-minimisations  : 12480
 total energy-change (2. order) :-0.1868591E-01  (-0.6413847E-02)
 number of electron     276.0000058 magnetization      42.5820498
 augmentation part      112.2856906 magnetization      29.6063343

 Broyden mixing:
  rms(total) = 0.13858E+00    rms(broyden)= 0.13856E+00
  rms(prec ) = 0.14703E+00
  weight for this iteration     100.00

 eigenvalues of (default mixing * dielectric matrix)
  average eigenvalue GAMMA=   1.5455
  6.1097  2.8475  1.3631  1.0777  0.3771  0.8486  0.8486  0.6935  0.6935  0.5958

 Free energy of the ion-electron system (eV)
  ---------------------------------------------------
  alpha Z        PSCENC =      1362.55286497
  Ewald energy   TEWEN  =    -25513.06237826
  -Hartree energ DENC   =    -10002.83181464
  -exchange      EXHF   =         0.00000000
  -V(xc)+E(xc)   XCENC  =      1357.15849597
  PAW double counting   =     35818.69434175   -36981.65449006
  entropy T*S    EENTRO =         0.00000000
  eigenvalues    EBANDS =     -3533.76054411
  atomic energy  EATOM  =     37271.50967944
  Solvation  Ediel_sol  =         0.00000000
  ---------------------------------------------------
  free energy    TOTEN  =      -221.39384494 eV

  energy without entropy =     -221.39384494  energy(sigma->0) =     -221.39384494


--------------------------------------------------------------------------------------------------------




--------------------------------------- Iteration      1(  16)  ---------------------------------------


    POTLOK:  cpu time    0.0817: real time    0.0821
    SETDIJ:  cpu time    0.0128: real time    0.0129
     EDDAV:  cpu time   14.8556: real time   14.8938
 BZINTS: Fermi energy:  6.181880;276.000000 electrons
         Band energy:***********;  BLOECHL correction: -0.032901
       DOS:  cpu time    0.0473: real time    0.0474
    CHARGE:  cpu time    0.4422: real time    0.4434
    MIXING:  cpu time    0.0029: real time    0.0029
    --------------------------------------------
      LOOP:  cpu time   15.4426: real time   15.4825

 eigenvalue-minimisations  : 14088
 total energy-change (2. order) : 0.5178931E-02  (-0.9391597E-03)
 number of electron     276.0000058 magnetization      42.4610432
 augmentation part      112.1920500 magnetization      29.4787214

 Broyden mixing:
  rms(total) = 0.33418E-01    rms(broyden)= 0.33401E-01
  rms(prec ) = 0.34799E-01
  weight for this iteration     100.00

 eigenvalues of (default mixing * dielectric matrix)
  average eigenvalue GAMMA=   1.5335
  6.2791  2.7875  1.3080  1.3080  1.1108  0.3771  0.8146  0.8146  0.7309  0.7309
  0.6074

 Free energy of the ion-electron system (eV)
  ---------------------------------------------------
  alpha Z        PSCENC =      1362.55286497
  Ewald energy   TEWEN  =    -25513.06237826
  -Hartree energ DENC   =    -10007.55403357
  -exchange      EXHF   =         0.00000000
  -V(xc)+E(xc)   XCENC  =      1357.06320886
  PAW double counting   =     35778.39879052   -36941.30727714
  entropy T*S    EENTRO =         0.00000000
  eigenvalues    EBANDS =     -3528.98952082
  atomic energy  EATOM  =     37271.50967944
  Solvation  Ediel_sol  =         0.00000000
  ---------------------------------------------------
  free energy    TOTEN  =      -221.38866601 eV

  energy without entropy =     -221.38866601  energy(sigma->0) =     -221.38866601


--------------------------------------------------------------------------------------------------------




--------------------------------------- Iteration      1(  17)  ---------------------------------------


    POTLOK:  cpu time    0.0808: real time    0.0811
    SETDIJ:  cpu time    0.0129: real time    0.0129
     EDDAV:  cpu time   13.2714: real time   13.3050
 BZINTS: Fermi energy:  6.182451;276.000000 electrons
         Band energy:***********;  BLOECHL correction: -0.032852
       DOS:  cpu time    0.0486: real time    0.0487
    CHARGE:  cpu time    0.4422: real time    0.4435
    MIXING:  cpu time    0.0031: real time    0.0031
    --------------------------------------------
      LOOP:  cpu time   13.8590: real time   13.8941

 eigenvalue-minimisations  : 12192
 total energy-change (2. order) :-0.7393496E-03  (-0.4422164E-03)
 number of electron     276.0000058 magnetization      42.3696231
 augmentation part      112.1907630 magnetization      29.4007501

 Broyden mixing:
  rms(total) = 0.18312E-01    rms(broyden)= 0.18307E-01
  rms(prec ) = 0.18904E-01
  weight for this iteration     100.00

 eigenvalues of (default mixing * dielectric matrix)
  average eigenvalue GAMMA=   1.5566
  6.4599  2.7541  2.4605  1.0741  1.0741  0.3771  0.8934  0.8934  0.7172  0.7172
  0.6028  0.6550

 Free energy of the ion-electron system (eV)
  ---------------------------------------------------
  alpha Z        PSCENC =      1362.55286497
  Ewald energy   TEWEN  =    -25513.06237826
  -Hartree energ DENC   =    -10007.16080021
  -exchange      EXHF   =         0.00000000
  -V(xc)+E(xc)   XCENC  =      1357.00601593
  PAW double counting   =     35799.17495092   -36962.64898826
  entropy T*S    EENTRO =         0.00000000
  eigenvalues    EBANDS =     -3528.76074988
  atomic energy  EATOM  =     37271.50967944
  Solvation  Ediel_sol  =         0.00000000
  ---------------------------------------------------
  free energy    TOTEN  =      -221.38940536 eV

  energy without entropy =     -221.38940536  energy(sigma->0) =     -221.38940536


--------------------------------------------------------------------------------------------------------




--------------------------------------- Iteration      1(  18)  ---------------------------------------


    POTLOK:  cpu time    0.0806: real time    0.0809
    SETDIJ:  cpu time    0.0128: real time    0.0129
     EDDAV:  cpu time   14.6305: real time   14.6677
 BZINTS: Fermi energy:  6.182809;276.000000 electrons
         Band energy:***********;  BLOECHL correction: -0.032986
       DOS:  cpu time    0.0474: real time    0.0475
    CHARGE:  cpu time    0.4420: real time    0.4432
    MIXING:  cpu time    0.0030: real time    0.0030
    --------------------------------------------
      LOOP:  cpu time   15.2163: real time   15.2552

 eigenvalue-minimisations  : 13848
 total energy-change (2. order) :-0.2528824E-03  (-0.2106569E-04)
 number of electron     276.0000058 magnetization      42.3181594
 augmentation part      112.1861140 magnetization      29.3660004

 Broyden mixing:
  rms(total) = 0.93074E-02    rms(broyden)= 0.93034E-02
  rms(prec ) = 0.96848E-02
  weight for this iteration     100.00

 eigenvalues of (default mixing * dielectric matrix)
  average eigenvalue GAMMA=   1.5267
  6.5887  2.8262  2.4595  1.1491  1.1491  0.9581  0.9581  0.3771  0.7345  0.7345
  0.6960  0.6079  0.6079

 Free energy of the ion-electron system (eV)
  ---------------------------------------------------
  alpha Z        PSCENC =      1362.55286497
  Ewald energy   TEWEN  =    -25513.06237826
  -Hartree energ DENC   =    -10007.41361174
  -exchange      EXHF   =         0.00000000
  -V(xc)+E(xc)   XCENC  =      1356.96100720
  PAW double counting   =     35797.88407401   -36961.41342967
  entropy T*S    EENTRO =         0.00000000
  eigenvalues    EBANDS =     -3528.40786419
  atomic energy  EATOM  =     37271.50967944
  Solvation  Ediel_sol  =         0.00000000
  ---------------------------------------------------
  free energy    TOTEN  =      -221.38965824 eV

  energy without entropy =     -221.38965824  energy(sigma->0) =     -221.38965824


--------------------------------------------------------------------------------------------------------




--------------------------------------- Iteration      1(  19)  ---------------------------------------


    POTLOK:  cpu time    0.0821: real time    0.0826
    SETDIJ:  cpu time    0.0128: real time    0.0128
     EDDAV:  cpu time   14.7022: real time   14.7395
 BZINTS: Fermi energy:  6.183772;276.000000 electrons
         Band energy:***********;  BLOECHL correction: -0.033063
       DOS:  cpu time    0.0438: real time    0.0439
    CHARGE:  cpu time    0.4408: real time    0.4418
    MIXING:  cpu time    0.0034: real time    0.0034
    --------------------------------------------
      LOOP:  cpu time   15.2851: real time   15.3241

 eigenvalue-minimisations  : 13932
 total energy-change (2. order) :-0.7597257E-04  (-0.9483273E-05)
 number of electron     276.0000058 magnetization      42.3052072
 augmentation part      112.1816537 magnetization      29.3613297

 Broyden mixing:
  rms(total) = 0.21829E-02    rms(broyden)= 0.21766E-02
  rms(prec ) = 0.23191E-02
  weight for this iteration     100.00

 eigenvalues of (default mixing * dielectric matrix)
  average eigenvalue GAMMA=   1.5139
  6.6698  2.8579  2.4180  1.3865  1.1940  1.0059  1.0059  0.3771  0.7833  0.7833
  0.7455  0.7455  0.6108  0.6108

 Free energy of the ion-electron system (eV)
  ---------------------------------------------------
  alpha Z        PSCENC =      1362.55286497
  Ewald energy   TEWEN  =    -25513.06237826
  -Hartree energ DENC   =    -10007.75347646
  -exchange      EXHF   =         0.00000000
  -V(xc)+E(xc)   XCENC  =      1356.94037284
  PAW double counting   =     35793.50612551   -36956.98328706
  entropy T*S    EENTRO =         0.00000000
  eigenvalues    EBANDS =     -3528.09963519
  atomic energy  EATOM  =     37271.50967944
  Solvation  Ediel_sol  =         0.00000000
  ---------------------------------------------------
  free energy    TOTEN  =      -221.38973421 eV

  energy without entropy =     -221.38973421  energy(sigma->0) =     -221.38973421


--------------------------------------------------------------------------------------------------------




--------------------------------------- Iteration      1(  20)  ---------------------------------------


    POTLOK:  cpu time    0.0828: real time    0.0836
    SETDIJ:  cpu time    0.0127: real time    0.0127
     EDDAV:  cpu time   13.9813: real time   14.0167
 BZINTS: Fermi energy:  6.184219;276.000000 electrons
         Band energy:***********;  BLOECHL correction: -0.033078
       DOS:  cpu time    0.0475: real time    0.0476
    CHARGE:  cpu time    0.4409: real time    0.4421
    MIXING:  cpu time    0.0033: real time    0.0034
    --------------------------------------------
      LOOP:  cpu time   14.5685: real time   14.6061

 eigenvalue-minimisations  : 13032
 total energy-change (2. order) :-0.1495738E-04  (-0.2703816E-05)
 number of electron     276.0000058 magnetization      42.3008360
 augmentation part      112.1802305 magnetization      29.3587660

 Broyden mixing:
  rms(total) = 0.88508E-03    rms(broyden)= 0.88313E-03
  rms(prec ) = 0.90828E-03
  weight for this iteration     100.00

 eigenvalues of (default mixing * dielectric matrix)
  average eigenvalue GAMMA=   1.4943
  6.6994  2.9416  2.3919  1.7388  0.3771  1.0209  1.0209  1.0312  1.0312  0.7359
  0.7359  0.7421  0.6036  0.6719  0.6719

 Free energy of the ion-electron system (eV)
  ---------------------------------------------------
  alpha Z        PSCENC =      1362.55286497
  Ewald energy   TEWEN  =    -25513.06237826
  -Hartree energ DENC   =    -10007.86411386
  -exchange      EXHF   =         0.00000000
  -V(xc)+E(xc)   XCENC  =      1356.93483210
  PAW double counting   =     35792.89319328   -36956.36991679
  entropy T*S    EENTRO =         0.00000000
  eigenvalues    EBANDS =     -3527.98391005
  atomic energy  EATOM  =     37271.50967944
  Solvation  Ediel_sol  =         0.00000000
  ---------------------------------------------------
  free energy    TOTEN  =      -221.38974917 eV

  energy without entropy =     -221.38974917  energy(sigma->0) =     -221.38974917


--------------------------------------------------------------------------------------------------------




--------------------------------------- Iteration      1(  21)  ---------------------------------------


    POTLOK:  cpu time    0.0821: real time    0.0824
    SETDIJ:  cpu time    0.0126: real time    0.0126
     EDDAV:  cpu time   12.9453: real time   12.9780
 BZINTS: Fermi energy:  6.184416;276.000000 electrons
         Band energy:***********;  BLOECHL correction: -0.033083
       DOS:  cpu time    0.0485: real time    0.0486
    CHARGE:  cpu time    0.4424: real time    0.4435
    MIXING:  cpu time    0.0033: real time    0.0033
    --------------------------------------------
      LOOP:  cpu time   13.5342: real time   13.5685

 eigenvalue-minimisations  : 11772
 total energy-change (2. order) :-0.5525791E-05  (-0.2692136E-06)
 number of electron     276.0000058 magnetization      42.3022797
 augmentation part      112.1796569 magnetization      29.3606866

 Broyden mixing:
  rms(total) = 0.10083E-02    rms(broyden)= 0.10081E-02
  rms(prec ) = 0.10615E-02
  weight for this iteration     100.00

 eigenvalues of (default mixing * dielectric matrix)
  average eigenvalue GAMMA=   1.4932
  6.7087  2.9886  2.2819  2.2819  1.1550  1.1550  1.0112  1.0112  0.3771  0.7885
  0.7885  0.7276  0.7276  0.6732  0.6077  0.6077

 Free energy of the ion-electron system (eV)
  ---------------------------------------------------
  alpha Z        PSCENC =      1362.55286497
  Ewald energy   TEWEN  =    -25513.06237826
  -Hartree energ DENC   =    -10007.91523396
  -exchange      EXHF   =         0.00000000
  -V(xc)+E(xc)   XCENC  =      1356.93411939
  PAW double counting   =     35792.42922265   -36955.90775488
  entropy T*S    EENTRO =         0.00000000
  eigenvalues    EBANDS =     -3527.93027405
  atomic energy  EATOM  =     37271.50967944
  Solvation  Ediel_sol  =         0.00000000
  ---------------------------------------------------
  free energy    TOTEN  =      -221.38975470 eV

  energy without entropy =     -221.38975470  energy(sigma->0) =     -221.38975470


--------------------------------------------------------------------------------------------------------




--------------------------------------- Iteration      1(  22)  ---------------------------------------


    POTLOK:  cpu time    0.0809: real time    0.0812
    SETDIJ:  cpu time    0.0127: real time    0.0128
     EDDAV:  cpu time   11.9147: real time   11.9455
 BZINTS: Fermi energy:  6.184308;276.000000 electrons
         Band energy:***********;  BLOECHL correction: -0.033084
       DOS:  cpu time    0.0438: real time    0.0439
    CHARGE:  cpu time    0.4416: real time    0.4428
    MIXING:  cpu time    0.0040: real time    0.0040
    --------------------------------------------
      LOOP:  cpu time   12.4977: real time   12.5302

 eigenvalue-minimisations  : 10548
 total energy-change (2. order) :-0.9912110E-06  (-0.7790655E-07)
 number of electron     276.0000058 magnetization      42.3048246
 augmentation part      112.1801723 magnetization      29.3633037

 Broyden mixing:
  rms(total) = 0.60570E-03    rms(broyden)= 0.60568E-03
  rms(prec ) = 0.62844E-03
  weight for this iteration     100.00

 eigenvalues of (default mixing * dielectric matrix)
  average eigenvalue GAMMA=   1.4751
  6.6952  2.9912  2.4283  2.3414  1.2423  1.2423  1.0149  1.0149  0.3771  0.8496
  0.8496  0.7237  0.7237  0.7045  0.6051  0.6363  0.6363

 Free energy of the ion-electron system (eV)
  ---------------------------------------------------
  alpha Z        PSCENC =      1362.55286497
  Ewald energy   TEWEN  =    -25513.06237826
  -Hartree energ DENC   =    -10007.89045426
  -exchange      EXHF   =         0.00000000
  -V(xc)+E(xc)   XCENC  =      1356.93420519
  PAW double counting   =     35792.62402940   -36956.10465467
  entropy T*S    EENTRO =         0.00000000
  eigenvalues    EBANDS =     -3527.95304750
  atomic energy  EATOM  =     37271.50967944
  Solvation  Ediel_sol  =         0.00000000
  ---------------------------------------------------
  free energy    TOTEN  =      -221.38975569 eV

  energy without entropy =     -221.38975569  energy(sigma->0) =     -221.38975569


--------------------------------------------------------------------------------------------------------




--------------------------------------- Iteration      1(  23)  ---------------------------------------


    POTLOK:  cpu time    0.0809: real time    0.0813
    SETDIJ:  cpu time    0.0128: real time    0.0128
     EDDAV:  cpu time   10.3781: real time   10.4043
 BZINTS: Fermi energy:  6.184270;276.000000 electrons
         Band energy:***********;  BLOECHL correction: -0.033081
       DOS:  cpu time    0.0438: real time    0.0439
    CHARGE:  cpu time    0.4400: real time    0.4412
    MIXING:  cpu time    0.0038: real time    0.0039
    --------------------------------------------
      LOOP:  cpu time   10.9594: real time   10.9874

 eigenvalue-minimisations  :  8640
 total energy-change (2. order) : 0.2789864E-05  (-0.2109651E-07)
 number of electron     276.0000058 magnetization      42.3058562
 augmentation part      112.1803792 magnetization      29.3639618

 Broyden mixing:
  rms(total) = 0.21308E-03    rms(broyden)= 0.21302E-03
  rms(prec ) = 0.22426E-03
  weight for this iteration     100.00

 eigenvalues of (default mixing * dielectric matrix)
  average eigenvalue GAMMA=   1.4830
  6.6851  3.0258  2.6654  2.2373  1.4465  1.4465  1.0397  1.0397  0.3771  0.9266
  0.9266  0.8506  0.7318  0.7318  0.6705  0.6705  0.6109  0.6109

 Free energy of the ion-electron system (eV)
  ---------------------------------------------------
  alpha Z        PSCENC =      1362.55286497
  Ewald energy   TEWEN  =    -25513.06237826
  -Hartree energ DENC   =    -10007.87412027
  -exchange      EXHF   =         0.00000000
  -V(xc)+E(xc)   XCENC  =      1356.93534901
  PAW double counting   =     35792.88952314   -36956.37499752
  entropy T*S    EENTRO =         0.00000000
  eigenvalues    EBANDS =     -3527.96567341
  atomic energy  EATOM  =     37271.50967944
  Solvation  Ediel_sol  =         0.00000000
  ---------------------------------------------------
  free energy    TOTEN  =      -221.38975290 eV

  energy without entropy =     -221.38975290  energy(sigma->0) =     -221.38975290


--------------------------------------------------------------------------------------------------------




--------------------------------------- Iteration      1(  24)  ---------------------------------------


    POTLOK:  cpu time    0.0812: real time    0.0818
    SETDIJ:  cpu time    0.0131: real time    0.0131
     EDDAV:  cpu time    8.8061: real time    8.8284
 BZINTS: Fermi energy:  6.184259;276.000000 electrons
         Band energy:***********;  BLOECHL correction: -0.033080
       DOS:  cpu time    0.0474: real time    0.0475
    CHARGE:  cpu time    0.4411: real time    0.4422
    MIXING:  cpu time    0.0044: real time    0.0044
    --------------------------------------------
      LOOP:  cpu time    9.3933: real time    9.4174

 eigenvalue-minimisations  :  6684
 total energy-change (2. order) : 0.1172215E-05  (-0.9125970E-08)
 number of electron     276.0000058 magnetization      42.3059419
 augmentation part      112.1804525 magnetization      29.3639125

 Broyden mixing:
  rms(total) = 0.76453E-04    rms(broyden)= 0.76389E-04
  rms(prec ) = 0.80436E-04
  weight for this iteration     100.00

 eigenvalues of (default mixing * dielectric matrix)
[...]
  0.000  -0.002  -0.000  -0.000  -0.001   0.000  -0.000   0.000  -0.006   0.000   0.000  -0.000  -0.000   0.009  -0.000  -0.000
 total augmentation occupancy for first ion, spin component:           2
 -0.003  -0.000  -0.000  -0.010  -0.000   0.000   0.002   0.001  -0.000   0.000   0.000  -0.003  -0.002   0.000  -0.000  -0.000
 -0.000  -0.003   0.000  -0.000  -0.010  -0.000   0.000  -0.000  -0.001  -0.000   0.000   0.000  -0.000   0.002   0.000  -0.000
  0.000   0.000  -0.003  -0.000  -0.000  -0.010   0.000  -0.000   0.000   0.001  -0.002  -0.000   0.000  -0.000  -0.002   0.003
 -0.010  -0.000  -0.000   0.021   0.000  -0.000  -0.085  -0.050  -0.000   0.002   0.013   0.049   0.032   0.000  -0.001  -0.008
  0.000  -0.010   0.000  -0.000   0.017   0.000  -0.000   0.000   0.076  -0.000  -0.000   0.000   0.000  -0.043   0.000   0.000
  0.000  -0.000  -0.010  -0.000  -0.000   0.021   0.013  -0.002  -0.000  -0.050   0.085  -0.008   0.001   0.000   0.032  -0.049
  0.002   0.000   0.000  -0.085   0.000   0.013   4.293   0.575  -0.000  -0.179  -0.000  -2.427  -0.469  -0.000   0.166   0.002
  0.001   0.000  -0.000  -0.050   0.000  -0.002   0.575   5.017   0.000   0.000  -0.179  -0.467  -3.023  -0.000   0.003   0.166
 -0.000  -0.001   0.000  -0.000   0.076  -0.000  -0.000   0.000   4.389   0.000  -0.000   0.000  -0.000  -2.384  -0.000   0.000
  0.000  -0.000   0.001   0.002  -0.000  -0.050  -0.179   0.000   0.000   5.017  -0.575   0.166  -0.003  -0.000  -3.023   0.467
  0.000   0.000  -0.002   0.013  -0.000   0.085   0.000  -0.179  -0.000  -0.575   4.293  -0.002   0.166   0.000   0.469  -2.427
 -0.003  -0.000  -0.000   0.049  -0.000  -0.008  -2.427  -0.467   0.000   0.166  -0.002   1.293   0.331  -0.000  -0.129  -0.000
 -0.002   0.000   0.000   0.032   0.000   0.001  -0.469  -3.023  -0.000  -0.003   0.166   0.331   1.749   0.000  -0.000  -0.129
  0.000   0.002  -0.000   0.000  -0.043   0.000  -0.000  -0.000  -2.384  -0.000   0.000   0.000   0.000   1.232   0.000  -0.000
 -0.000   0.000  -0.002  -0.001   0.000   0.032   0.166   0.003  -0.000  -3.023   0.469  -0.129  -0.000   0.000   1.749  -0.331
 -0.000  -0.000   0.003  -0.008   0.000  -0.049   0.002   0.166   0.000   0.467  -2.427   0.000  -0.129  -0.000  -0.331   1.293
 -0.000   0.000   0.000  -0.000   0.001   0.000   0.000   0.000   0.044   0.000  -0.000  -0.000  -0.000  -0.022  -0.000   0.000
  0.000   0.000   0.000   0.000   0.001   0.000  -0.000  -0.000   0.007   0.000  -0.000   0.000  -0.000  -0.005   0.000   0.000


------------------------ aborting loop because EDIFF is reached ----------------------------------------


 


 total charge     
 
# of ion       s       p       d       tot
------------------------------------------
    1        0.284   6.340   5.852  12.476
    2        0.284   6.340   5.855  12.479
    3        0.284   6.340   5.862  12.486
    4        0.284   6.340   5.852  12.475
    5        0.284   6.340   5.855  12.478
    6        0.284   6.340   5.865  12.489
    7        0.284   6.340   5.851  12.474
    8        0.284   6.340   5.853  12.477
    9        0.283   6.340   5.854  12.477
   10        0.283   6.340   5.869  12.492
   11        0.283   6.340   5.866  12.489
   12        0.283   6.340   5.857  12.480
   13        1.569   3.415   0.000   4.984
   14        1.569   3.415   0.000   4.983
   15        1.569   3.415   0.000   4.984
   16        1.569   3.416   0.000   4.985
   17        1.569   3.416   0.000   4.985
   18        1.569   3.415   0.000   4.984
   19        1.568   3.403   0.000   4.970
   20        1.568   3.402   0.000   4.970
   21        1.568   3.403   0.000   4.971
   22        1.568   3.403   0.000   4.971
   23        1.568   3.403   0.000   4.971
   24        1.568   3.404   0.000   4.971
   25        1.570   3.416   0.000   4.986
   26        1.570   3.416   0.000   4.985
   27        1.570   3.417   0.000   4.987
   28        1.570   3.418   0.000   4.988
   29        1.570   3.418   0.000   4.987
   30        1.570   3.418   0.000   4.987
--------------------------------------------------
tot         31.638 137.492  70.290 239.421
 


 magnetization (x)
 
# of ion       s       p       d       tot
------------------------------------------
    1        0.024   0.036   3.139   3.199
    2        0.024   0.036   3.136   3.196
    3        0.025   0.036   3.132   3.193
    4        0.025   0.036   3.138   3.199
    5        0.025   0.036   3.138   3.199
    6        0.025   0.036   3.130   3.191
    7        0.024   0.036   3.123   3.183
    8        0.024   0.036   3.120   3.180
    9        0.025   0.036   3.121   3.181
   10        0.025   0.036   3.114   3.175
   11        0.025   0.036   3.117   3.177
   12        0.025   0.036   3.121   3.181
   13        0.020   0.139   0.000   0.159
   14        0.020   0.138   0.000   0.159
   15        0.020   0.139   0.000   0.159
   16        0.020   0.140   0.000   0.160
   17        0.020   0.140   0.000   0.160
   18        0.020   0.139   0.000   0.159
   19        0.021   0.143   0.000   0.164
   20        0.021   0.143   0.000   0.164
   21        0.021   0.144   0.000   0.165
   22        0.021   0.143   0.000   0.165
   23        0.021   0.144   0.000   0.165
   24        0.021   0.144   0.000   0.165
   25        0.020   0.135   0.000   0.156
   26        0.020   0.134   0.000   0.155
   27        0.020   0.136   0.000   0.156
   28        0.020   0.137   0.000   0.158
   29        0.020   0.137   0.000   0.157
   30        0.020   0.136   0.000   0.157
--------------------------------------------------
tot          0.668   2.943  37.528  41.139
 
    CHARGE:  cpu time    0.4419: real time    0.4431
    FORLOC:  cpu time    0.0086: real time    0.0087
    FORNL :  cpu time    3.3354: real time    3.3439
    STRESS:  cpu time    9.9838: real time   10.0094
    FORCOR:  cpu time    0.0877: real time    0.0879
    FORHAR:  cpu time    0.0155: real time    0.0156
    MIXING:  cpu time    0.0049: real time    0.0049
    OFIELD:  cpu time    0.0001: real time    0.0001

  FORCE on cell =-STRESS in cart. coord.  units (eV):
  Direction    XX          YY          ZZ          XY          YZ          ZX
  --------------------------------------------------------------------------------------
  Alpha Z  1362.55286  1362.55286  1362.55286
  Ewald   -8201.75422 -8201.75360 -9109.63806     0.00000     0.00002    -0.00000
  Hartree  3503.96552  3503.96538  2999.93370    -0.00000     0.00001    -0.00000
  E(xc)   -1615.75692 -1615.75698 -1617.32072    -0.00004     0.00000    -0.00000
  Local    -164.41029  -164.41121  1231.52761    -0.00108    -0.00004     0.00000
  n-local  -743.73044  -742.61983  -745.18531    -4.17441     0.49429     0.12137
  augment  1845.02696  1845.02767  1846.90381     0.00089    -0.00000     0.00000
  Kinetic  4006.21034  4008.31304  4024.06173     7.64592    -1.97601    -5.05674
  Fock        0.00000     0.00000     0.00000     0.00000     0.00000     0.00000
  -------------------------------------------------------------------------------------
  Total      -6.28943    -6.28942    -7.16437     0.00000     0.00000     0.00000
  in kB     -33.35925   -33.35924   -37.99998     0.00000     0.00000     0.00000
  external pressure =      -34.91 kB  Pullay stress =        0.00 kB


 VOLUME and BASIS-vectors are now :
 -----------------------------------------------------------------------------
  energy-cutoff  :      580.00
  volume of cell :      302.07
      direct lattice vectors                 reciprocal lattice vectors
     5.035100000  0.000000000  0.000000000     0.198605787  0.114665118  0.000000000
    -2.517550000  4.360524000  0.000000000     0.000000000  0.229330236  0.000000000
     0.000000000  0.000000000 13.758100000     0.000000000  0.000000000  0.072684455

  length of vectors
     5.035100000  5.035099558 13.758100000     0.229330216  0.229330236  0.072684455


 FORCES acting on ions
    electron-ion (+dipol)            ewald-force                    non-local-force                 convergence-correction
 -----------------------------------------------------------------------------------------------
   0.156E-03 0.366E-03 -.126E+03   -.101E-02 0.523E-03 0.128E+03   -.824E-17 0.304E-17 -.289E+01   -.149E-08 0.785E-09 0.773E-05
   -.402E-03 0.579E-03 0.126E+03   0.101E-02 -.523E-03 -.128E+03   0.477E-17 0.390E-17 0.289E+01   0.255E-08 -.157E-08 -.773E-05
   -.134E-03 0.534E-03 -.126E+03   0.314E-02 -.187E-02 0.128E+03   -.564E-17 -.390E-17 -.289E+01   0.532E-07 -.310E-07 0.114E-04
   -.328E-03 0.646E-03 -.126E+03   -.220E-02 0.121E-02 0.128E+03   0.260E-17 -.260E-17 -.289E+01   -.502E-07 0.287E-07 0.126E-04
   0.815E-04 0.300E-03 0.126E+03   0.220E-02 -.121E-02 -.128E+03   0.390E-17 0.130E-17 0.289E+01   0.513E-07 -.295E-07 -.126E-04
   -.112E-03 0.412E-03 0.126E+03   -.314E-02 0.187E-02 -.128E+03   0.143E-16 0.000E+00 0.289E+01   -.521E-07 0.302E-07 -.114E-04
   0.566E-03 -.105E-02 0.126E+03   0.964E-03 -.523E-03 -.128E+03   -.325E-17 -.260E-17 0.289E+01   0.240E-08 -.118E-08 -.773E-05
   0.104E-02 -.127E-02 -.126E+03   -.964E-03 0.523E-03 0.128E+03   -.651E-18 -.347E-17 -.289E+01   -.174E-08 0.101E-08 0.773E-05
   0.105E-02 -.133E-02 0.126E+03   0.215E-02 -.121E-02 -.128E+03   0.889E-17 0.434E-18 0.289E+01   0.509E-07 -.294E-07 -.126E-04
   0.751E-03 -.110E-02 -.126E+03   0.319E-02 -.187E-02 0.128E+03   -.239E-17 -.564E-17 -.289E+01   0.531E-07 -.304E-07 0.114E-04
   0.855E-03 -.121E-02 0.126E+03   -.319E-02 0.187E-02 -.128E+03   0.889E-17 0.477E-17 0.289E+01   -.524E-07 0.303E-07 -.114E-04
   0.556E-03 -.988E-03 -.126E+03   -.215E-02 0.121E-02 0.128E+03   -.651E-18 0.304E-17 -.289E+01   -.503E-07 0.292E-07 0.126E-04
   -.424E+02 -.134E-02 0.214E-03   0.418E+02 0.106E-02 -.470E-03   0.677E+00 -.253E-17 -.249E-17   0.112E-04 0.126E-07 -.101E-08
   0.424E+02 -.863E-04 -.336E-03   -.418E+02 -.106E-02 0.470E-03   -.677E+00 -.179E-17 -.260E-17   -.112E-04 -.130E-07 0.498E-09
   -.424E+02 -.317E-02 -.585E-02   0.418E+02 0.570E-03 -.997E-03   0.677E+00 -.108E-17 -.434E-18   0.112E-04 -.856E-08 -.110E-05
   -.424E+02 0.238E-02 0.545E-02   0.418E+02 -.163E-02 0.147E-02   0.677E+00 0.103E-17 0.607E-17   0.112E-04 -.527E-08 0.110E-05
   0.424E+02 -.380E-02 -.557E-02   -.418E+02 0.163E-02 -.147E-02   -.677E+00 -.182E-17 0.651E-18   -.112E-04 0.489E-08 -.110E-05
   0.424E+02 0.175E-02 0.573E-02   -.418E+02 -.570E-03 0.997E-03   -.677E+00 -.488E-18 0.108E-17   -.112E-04 0.818E-08 0.110E-05
   0.212E+02 -.367E+02 -.307E-03   -.209E+02 0.362E+02 0.438E-03   -.339E+00 0.586E+00 -.867E-18   -.558E-05 0.969E-05 0.478E-09
   -.212E+02 0.367E+02 0.193E-03   0.209E+02 -.362E+02 -.438E-03   0.339E+00 -.586E+00 -.867E-18   0.558E-05 -.969E-05 -.101E-08
   0.212E+02 -.367E+02 -.554E-02   -.209E+02 0.362E+02 -.150E-02   -.339E+00 0.586E+00 -.954E-17   -.561E-05 0.970E-05 -.110E-05
   0.212E+02 -.367E+02 0.576E-02   -.209E+02 0.362E+02 0.964E-03   -.339E+00 0.586E+00 -.173E-17   -.560E-05 0.969E-05 0.110E-05
   -.212E+02 0.367E+02 -.587E-02   0.209E+02 -.362E+02 -.964E-03   0.339E+00 -.586E+00 0.867E-18   0.560E-05 -.968E-05 -.110E-05
   -.212E+02 0.367E+02 0.543E-02   0.209E+02 -.362E+02 0.150E-02   0.339E+00 -.586E+00 -.347E-17   0.561E-05 -.970E-05 0.110E-05
   0.212E+02 0.367E+02 0.945E-04   -.209E+02 -.362E+02 0.322E-04   -.339E+00 -.586E+00 0.520E-17   -.560E-05 -.971E-05 0.522E-09
   -.212E+02 -.367E+02 0.144E-03   0.209E+02 0.362E+02 -.322E-04   0.339E+00 0.586E+00 -.434E-18   0.560E-05 0.971E-05 0.502E-09
   0.212E+02 0.367E+02 -.409E-02   -.209E+02 -.362E+02 -.303E-02   -.339E+00 -.586E+00 0.824E-17   -.558E-05 -.970E-05 -.110E-05
   -.212E+02 -.367E+02 -.404E-02   0.209E+02 0.362E+02 -.310E-02   0.339E+00 0.586E+00 -.390E-17   0.561E-05 0.968E-05 -.110E-05
   0.212E+02 0.367E+02 0.428E-02   -.209E+02 -.362E+02 0.310E-02   -.339E+00 -.586E+00 0.477E-17   -.561E-05 -.968E-05 0.110E-05
   -.212E+02 -.367E+02 0.433E-02   0.209E+02 0.362E+02 0.303E-02   0.339E+00 0.586E+00 0.000E+00   0.558E-05 0.970E-05 0.110E-05
 -----------------------------------------------------------------------------------------------
   0.149E-01 -.165E-01 -.113E-04   -.995E-13 -.995E-13 -.192E-12   0.333E-15 -.222E-15 0.889E-15   0.580E-08 -.261E-08 0.422E-09
 
 
 POSITION                                       TOTAL-FORCE (eV/Angst)
 -----------------------------------------------------------------------------------
      0.00000      0.00000      4.88853        -0.000000     -0.000000     -0.928773
      0.00000      0.00000      8.86957        -0.000000     -0.000000      0.928773
     -0.00000      2.90702      0.30250        -0.000000     -0.000000     -0.928773
      2.51755      1.45351      9.47456        -0.000000     -0.000000     -0.928773
     -0.00000      2.90702      4.28354        -0.000000     -0.000000      0.928773
      2.51755      1.45351     13.45560        -0.000000     -0.000000      0.928773
      0.00000      0.00000      1.99052        -0.000000     -0.000000      0.928773
      0.00000      0.00000     11.76758        -0.000000     -0.000000     -0.928773
     -0.00000      2.90702     11.16259        -0.000000     -0.000000      0.928773
     -0.00000      2.90702      7.18155        -0.000000     -0.000000     -0.928773
      2.51755      1.45351      6.57655        -0.000000     -0.000000      0.928773
      2.51755      1.45351      2.59551        -0.000000     -0.000000     -0.928773
      1.54165      0.00000      3.43953         0.085824     -0.000000      0.000000
      3.49345      0.00000     10.31858        -0.085824     -0.000000      0.000000
      1.54164      2.90702     12.61160         0.085824     -0.000000      0.000000
      4.05920      1.45351      8.02555         0.085824     -0.000000      0.000000
     -1.54165      2.90702      5.73255        -0.085824     -0.000000      0.000000
      0.97591      1.45351      1.14650        -0.085824     -0.000000      0.000000
     -0.77082      1.33511      3.43953        -0.042912      0.074325      0.000000
     -1.74673      3.02542     10.31858         0.042912     -0.074325      0.000000
     -0.77083      4.24212     12.61160        -0.042912      0.074325      0.000000
      1.74673      2.78861      8.02555        -0.042912      0.074325      0.000000
      0.77082      1.57191      5.73255         0.042912     -0.074325      0.000000
      3.28838      0.11840      1.14650         0.042912     -0.074325      0.000000
      1.74673      3.02542      3.43953        -0.042912     -0.074325      0.000000
      0.77082      1.33511     10.31858         0.042912      0.074325      0.000000
     -0.77083      1.57191     12.61160        -0.042912     -0.074325      0.000000
      0.77082      4.24212      5.73255         0.042912      0.074325      0.000000
      1.74673      0.11840      8.02555        -0.042912     -0.074325      0.000000
      3.28838      2.78861      1.14650         0.042912      0.074325      0.000000
 -----------------------------------------------------------------------------------
    total drift:                                0.014943     -0.016506     -0.000011


--------------------------------------------------------------------------------------------------------



  FREE ENERGIE OF THE ION-ELECTRON SYSTEM (eV)
  ---------------------------------------------------
  free  energy   TOTEN  =      -221.38975200 eV

  energy  without entropy=     -221.38975200  energy(sigma->0) =     -221.38975200
 


--------------------------------------------------------------------------------------------------------


    POTLOK:  cpu time    0.0916: real time    0.0923


--------------------------------------------------------------------------------------------------------


     LOOP+:  cpu time  387.4848: real time  388.4967
    4ORBIT:  cpu time    0.0000: real time    0.0000
 


 total charge     
 
# of ion       s       p       d       tot
------------------------------------------
    1        0.284   6.340   5.852  12.476
    2        0.284   6.340   5.855  12.479
    3        0.284   6.340   5.862  12.486
    4        0.284   6.340   5.852  12.475
    5        0.284   6.340   5.855  12.478
    6        0.284   6.340   5.865  12.489
    7        0.284   6.340   5.851  12.474
    8        0.284   6.340   5.853  12.477
    9        0.283   6.340   5.854  12.477
   10        0.283   6.340   5.869  12.492
   11        0.283   6.340   5.866  12.489
   12        0.283   6.340   5.857  12.480
   13        1.569   3.415   0.000   4.984
   14        1.569   3.415   0.000   4.983
   15        1.569   3.415   0.000   4.984
   16        1.569   3.416   0.000   4.985
   17        1.569   3.416   0.000   4.985
   18        1.569   3.415   0.000   4.984
   19        1.568   3.403   0.000   4.970
   20        1.568   3.402   0.000   4.970
   21        1.568   3.403   0.000   4.971
   22        1.568   3.403   0.000   4.971
   23        1.568   3.403   0.000   4.971
   24        1.568   3.404   0.000   4.971
   25        1.570   3.416   0.000   4.986
   26        1.570   3.416   0.000   4.985
   27        1.570   3.417   0.000   4.987
   28        1.570   3.418   0.000   4.988
   29        1.570   3.418   0.000   4.987
   30        1.570   3.418   0.000   4.987
--------------------------------------------------
tot         31.638 137.492  70.290 239.421
 


 magnetization (x)
 
# of ion       s       p       d       tot
------------------------------------------
    1        0.024   0.036   3.139   3.199
    2        0.024   0.036   3.136   3.196
    3        0.025   0.036   3.132   3.193
    4        0.025   0.036   3.138   3.199
    5        0.025   0.036   3.138   3.199
    6        0.025   0.036   3.130   3.191
    7        0.024   0.036   3.123   3.183
    8        0.024   0.036   3.120   3.180
    9        0.025   0.036   3.121   3.181
   10        0.025   0.036   3.114   3.175
   11        0.025   0.036   3.117   3.177
   12        0.025   0.036   3.121   3.181
   13        0.020   0.139   0.000   0.159
   14        0.020   0.138   0.000   0.159
   15        0.020   0.139   0.000   0.159
   16        0.020   0.140   0.000   0.160
   17        0.020   0.140   0.000   0.160
   18        0.020   0.139   0.000   0.159
   19        0.021   0.143   0.000   0.164
   20        0.021   0.143   0.000   0.164
   21        0.021   0.144   0.000   0.165
   22        0.021   0.143   0.000   0.165
   23        0.021   0.144   0.000   0.165
   24        0.021   0.144   0.000   0.165
   25        0.020   0.135   0.000   0.156
   26        0.020   0.134   0.000   0.155
   27        0.020   0.136   0.000   0.156
   28        0.020   0.137   0.000   0.158
   29        0.020   0.137   0.000   0.157
   30        0.020   0.136   0.000   0.157
--------------------------------------------------
tot          0.668   2.943  37.528  41.139
 
 BZINTS: Fermi energy:  6.184239;276.000000 electrons
         Band energy:***********;  BLOECHL correction: -0.033080

 total amount of memory used by VASP MPI-rank0    87655. kBytes
=======================================================================

   base      :      30000. kBytes
   nonlr-proj:       6555. kBytes
   fftplans  :       3520. kBytes
   grid      :       9039. kBytes
   one-center:        248. kBytes
   wavefun   :      38293. kBytes
 
  
  
 General timing and accounting informations for this job:
 ========================================================
  
                  Total CPU time used (sec):      394.633
                            User time (sec):      393.113
                          System time (sec):        1.520
                         Elapsed time (sec):      395.818
  
                   Maximum memory used (kb):      132368.
                   Average memory used (kb):           0.
  
                          Minor page faults:        74129
                          Major page faults:            0
                 Voluntary context switches:          338
