=========================================
SLURM_JOB_ID = 51706459
SLURM_JOB_NODELIST = lnode23
SLURM_GPUS = 
SLURM_CPUS_ON_NODE = 24
SLURM_JOB_PARTITION = lenovo
SLURM_TASK_PID = 432696
CUDA_VISIBLE_DEVICES = 
==========================================
 running on   24 total cores
 distrk:  each k-point on   24 cores,    1 groups
 distr:  one band on    4 cores,    6 groups
 using from now: INCAR     
 vasp.5.4.4.18Apr17-6-g9f103f2a35 (build Apr 28 2018 00:24:27) complex          
  
 POSCAR found type information on POSCAR  Fe O 
 POSCAR found :  2 types and      30 ions
 scaLAPACK will be used
 LDA part: xc-table for Pade appr. of Perdew
 POSCAR, INCAR and KPOINTS ok, starting setup
 FFT: planning ...
 WAVECAR not read
 entering main loop
       N       E                     dE             d eps       ncg     rms          rms(c)
DAV:   1     0.523867528219E+04    0.52387E+04   -0.19419E+05 11472   0.273E+03
DAV:   2     0.696481532278E+03   -0.45422E+04   -0.41660E+04 11424   0.727E+02
DAV:   3    -0.218492237923E+03   -0.91497E+03   -0.78469E+03 11808   0.296E+02
DAV:   4    -0.293601243748E+03   -0.75109E+02   -0.74146E+02 12912   0.810E+01
DAV:   5    -0.294516965458E+03   -0.91572E+00   -0.91255E+00 12732   0.100E+01    0.809E+01
DAV:   6    -0.235265368658E+03    0.59252E+02   -0.25277E+02 14760   0.811E+01    0.912E+01
DAV:   7    -0.212083334114E+03    0.23182E+02   -0.11410E+02 12312   0.637E+01    0.437E+01
DAV:   8    -0.218321243801E+03   -0.62379E+01   -0.21428E+01 12120   0.173E+01    0.265E+01
DAV:   9    -0.222499825537E+03   -0.41786E+01   -0.82065E+00 12612   0.170E+01    0.270E+01
DAV:  10    -0.222169121258E+03    0.33070E+00   -0.24531E+00 12624   0.691E+00    0.186E+01
DAV:  11    -0.221607516812E+03    0.56160E+00   -0.22571E-01 14244   0.281E+00    0.122E+01
DAV:  12    -0.221403513463E+03    0.20400E+00   -0.19713E-01 15240   0.242E+00    0.840E+00
DAV:  13    -0.221403928490E+03   -0.41503E-03   -0.11341E-01 13968   0.225E+00    0.464E+00
DAV:  14    -0.221448580348E+03   -0.44652E-01   -0.15127E-01 14904   0.198E+00    0.180E+00
DAV:  15    -0.221466356547E+03   -0.17776E-01   -0.61559E-02 12732   0.672E-01    0.143E+00
DAV:  16    -0.221461290785E+03    0.50658E-02   -0.89532E-03 14388   0.704E-01    0.368E-01
DAV:  17    -0.221461888243E+03   -0.59746E-03   -0.47748E-03 12396   0.178E-01    0.197E-01
DAV:  18    -0.221462107046E+03   -0.21880E-03   -0.23733E-04 14232   0.856E-02    0.845E-02
DAV:  19    -0.221462165479E+03   -0.58433E-04   -0.10762E-04 13884   0.417E-02    0.189E-02
DAV:  20    -0.221462174096E+03   -0.86170E-05   -0.18592E-05 12360   0.152E-02    0.777E-03
DAV:  21    -0.221462173695E+03    0.40105E-06   -0.24491E-06 12372   0.694E-03    0.106E-02
DAV:  22    -0.221462175067E+03   -0.13723E-05   -0.12907E-06 10980   0.574E-03    0.487E-03
DAV:  23    -0.221462174391E+03    0.67665E-06   -0.21688E-07  9012   0.234E-03    0.124E-03
DAV:  24    -0.221462173572E+03    0.81860E-06   -0.64558E-08  6432   0.723E-04    0.557E-04
DAV:  25    -0.221462173577E+03   -0.51732E-08   -0.73028E-09  6216   0.427E-04
   1 F= -.22146217E+03 E0= -.22146217E+03  d E =0.000000E+00  mag=    42.3378
