 vasp.5.4.4.18Apr17-6-g9f103f2a35 (build Apr 28 2018 00:24:27) complex          
  
 executed on             LinuxIFC date 2021.09.06  03:46:13
 running on   24 total cores
 distrk:  each k-point on   24 cores,    1 groups
 distr:  one band on NCORES_PER_BAND=   4 cores,    6 groups


--------------------------------------------------------------------------------------------------------


 INCAR:
 POTCAR:    PAW_PBE Fe_pv 02Aug2007               
 POTCAR:    PAW_PBE O 08Apr2002                   
 POTCAR:    PAW_PBE Fe_pv 02Aug2007               
   VRHFIN =Fe:  3pd7s1                                                          
   LEXCH  = PE                                                                  
   EATOM  =  2457.4239 eV,  180.6156 Ry                                         
                                                                                
   TITEL  = PAW_PBE Fe_pv 02Aug2007                                             
   LULTRA =        F    use ultrasoft PP ?                                      
   IUNSCR =        1    unscreen: 0-lin 1-nonlin 2-no                           
   RPACOR =    1.750    partial core radius                                     
   POMASS =   55.847; ZVAL   =   14.000    mass and valenz                      
   RCORE  =    2.200    outmost cutoff radius                                   
   RWIGS  =    2.200; RWIGS  =    1.164    wigner-seitz radius (au A)           
   ENMAX  =  293.238; ENMIN  =  219.928 eV                                      
   ICORE  =        3    local potential                                         
   LCOR   =        T    correct aug charges                                     
   LPAW   =        T    paw PP                                                  
   EAUG   =  578.342                                                            
   DEXC   =    0.000                                                            
   RMAX   =    2.249    core radius for proj-oper                               
   RAUG   =    1.300    factor for augmentation sphere                          
   RDEP   =    2.296    radius for radial grids                                 
   RDEPT  =    1.766    core radius for aug-charge                              
                                                                                
   Atomic configuration                                                         
    8 entries                                                                   
     n  l   j            E        occ.                                          
     1  0  0.50     -6993.8440   2.0000                                         
     2  0  0.50      -814.6047   2.0000                                         
     2  1  1.50      -693.3689   6.0000                                         
     3  0  0.50       -89.4732   2.0000                                         
     3  1  1.50       -55.6373   6.0000                                         
     3  2  2.50        -3.8151   7.0000                                         
     4  0  0.50        -4.2551   1.0000                                         
     4  3  2.50        -1.3606   0.0000                                         
   Description                                                                  
     l       E           TYP  RCUT    TYP  RCUT                                 
     1    -55.6372668     23  2.000                                             
     1     -5.4423304     23  2.000                                             
     2     -3.8151096     23  2.200                                             
     2     -5.1756922     23  2.200                                             
     0     -4.2550951     23  2.200                                             
     0     27.2116520     23  2.200                                             
     3     -1.3605826     23  2.200                                             
  local pseudopotential read in
  partial core-charges read in
  partial kinetic energy density read in
  atomic valenz-charges read in
  non local Contribution for L=           1  read in
    real space projection operators read in
  non local Contribution for L=           1  read in
    real space projection operators read in
  non local Contribution for L=           2  read in
    real space projection operators read in
  non local Contribution for L=           2  read in
    real space projection operators read in
  non local Contribution for L=           0  read in
    real space projection operators read in
  non local Contribution for L=           0  read in
    real space projection operators read in
    PAW grid and wavefunctions read in
 
   number of l-projection  operators is LMAX  =           6
   number of lm-projection operators is LMMAX =          18
 
 POTCAR:    PAW_PBE O 08Apr2002                   
   VRHFIN =O: s2p4                                                              
   LEXCH  = PE                                                                  
   EATOM  =   432.3788 eV,   31.7789 Ry                                         
                                                                                
   TITEL  = PAW_PBE O 08Apr2002                                                 
   LULTRA =        F    use ultrasoft PP ?                                      
   IUNSCR =        1    unscreen: 0-lin 1-nonlin 2-no                           
   RPACOR =    1.200    partial core radius                                     
   POMASS =   16.000; ZVAL   =    6.000    mass and valenz                      
   RCORE  =    1.520    outmost cutoff radius                                   
   RWIGS  =    1.550; RWIGS  =    0.820    wigner-seitz radius (au A)           
   ENMAX  =  400.000; ENMIN  =  300.000 eV                                      
   ICORE  =        2    local potential                                         
   LCOR   =        T    correct aug charges                                     
   LPAW   =        T    paw PP                                                  
   EAUG   =  605.392                                                            
   DEXC   =    0.000                                                            
   RMAX   =    1.553    core radius for proj-oper                               
   RAUG   =    1.300    factor for augmentation sphere                          
   RDEP   =    1.550    radius for radial grids                                 
   RDEPT  =    1.329    core radius for aug-charge                              
                                                                                
   Atomic configuration                                                         
    4 entries                                                                   
     n  l   j            E        occ.                                          
     1  0  0.50      -514.6923   2.0000                                         
     2  0  0.50       -23.9615   2.0000                                         
     2  1  0.50        -9.0305   4.0000                                         
     3  2  1.50        -9.5241   0.0000                                         
   Description                                                                  
     l       E           TYP  RCUT    TYP  RCUT                                 
     0    -23.9615318     23  1.200                                             
     0     -9.5240782     23  1.200                                             
     1     -9.0304911     23  1.520                                             
     1      8.1634956     23  1.520                                             
     2     -9.5240782      7  1.500                                             
  local pseudopotential read in
  partial core-charges read in
  partial kinetic energy density read in
  kinetic energy density of atom read in
  atomic valenz-charges read in
  non local Contribution for L=           0  read in
    real space projection operators read in
  non local Contribution for L=           0  read in
    real space projection operators read in
  non local Contribution for L=           1  read in
    real space projection operators read in
  non local Contribution for L=           1  read in
    real space projection operators read in
    PAW grid and wavefunctions read in
 
   number of l-projection  operators is LMAX  =           4
   number of lm-projection operators is LMMAX =           8
 
 Optimization of the real space projectors (new method)

 maximal supplied QI-value         = 17.01
 optimisation between [QCUT,QGAM] = [ 15.65, 31.29] = [ 68.56,274.23] Ry 
 Optimized for a Real-space Cutoff    1.25 Angstroem

   l    n(q)    QCUT    max X(q) W(low)/X(q) W(high)/X(q)  e(spline) 
   1     11    15.647     4.267    0.63E-04    0.21E-03    0.12E-05
   1     11    15.647     5.750    0.96E-04    0.31E-03    0.18E-05
   2     11    15.647    53.656    0.66E-04    0.12E-03    0.24E-06
   2     11    15.647    49.521    0.69E-04    0.12E-03    0.25E-06
   0     12    15.647    31.246    0.29E-04    0.37E-04    0.14E-06
   0     12    15.647    12.201    0.24E-04    0.31E-04    0.11E-06
 Optimization of the real space projectors (new method)

 maximal supplied QI-value         = 24.76
 optimisation between [QCUT,QGAM] = [ 15.60, 31.19] = [ 68.11,272.45] Ry 
 Optimized for a Real-space Cutoff    0.98 Angstroem

   l    n(q)    QCUT    max X(q) W(low)/X(q) W(high)/X(q)  e(spline) 
   0      9    15.596    20.381    0.15E-03    0.70E-04    0.17E-06
   0      9    15.596    15.268    0.16E-03    0.78E-04    0.19E-06
   1      9    15.596     5.964    0.22E-03    0.13E-03    0.14E-06
   1      9    15.596     5.382    0.19E-03    0.11E-03    0.12E-06
  PAW_PBE Fe_pv 02Aug2007               :
 energy of atom  1       EATOM=-2457.4239
 kinetic energy error for atom=    0.0009 (will be added to EATOM!!)
  PAW_PBE O 08Apr2002                   :
 energy of atom  2       EATOM= -432.3788
 kinetic energy error for atom=    0.0024 (will be added to EATOM!!)
 
 
 POSCAR: Fe12 O18                                
  positions in direct lattice
  No initial velocities read in
 exchange correlation table for  LEXCH =        8
   RHO(1)=    0.500       N(1)  =     2000
   RHO(2)=  100.500       N(2)  =     4000
 


--------------------------------------------------------------------------------------------------------


 ion  position               nearest neighbor table
   1  0.000  0.000  0.355-  17 1.94  23 1.94  28 1.94  25 2.12  19 2.12  13 2.12
   2  0.000  0.000  0.645-  16 1.94  22 1.94  29 1.94  26 2.12  20 2.12  14 2.12
   3  0.333  0.667  0.022-  30 1.94  24 1.94  18 1.94  27 2.12  21 2.12  15 2.12
   4  0.667  0.333  0.689-  14 1.94  20 1.94  26 1.94  22 2.12  29 2.12  16 2.12
   5  0.333  0.667  0.311-  13 1.94  19 1.94  25 1.94  23 2.12  28 2.12  17 2.12
   6  0.667  0.333  0.978-  27 1.94  21 1.94  15 1.94  30 2.12  24 2.12  18 2.12
   7  0.000  0.000  0.145-  24 1.94  18 1.94  30 1.94  25 2.12  19 2.12  13 2.12
   8  0.000  0.000  0.855-  21 1.94  15 1.94  27 1.94  26 2.12  20 2.12  14 2.12
   9  0.333  0.667  0.811-  20 1.94  14 1.94  26 1.94  27 2.12  21 2.12  15 2.12
  10  0.333  0.667  0.522-  29 1.94  16 1.94  22 1.94  23 2.12  28 2.12  17 2.12
  11  0.667  0.333  0.478-  28 1.94  17 1.94  23 1.94  22 2.12  29 2.12  16 2.12
  12  0.667  0.333  0.189-  19 1.94  13 1.94  25 1.94  30 2.12  24 2.12  18 2.12
  13  0.306  0.000  0.250-   5 1.94  12 1.94   7 2.12   1 2.12
  14  0.694  0.000  0.750-   4 1.94   9 1.94   8 2.12   2 2.12
  15  0.640  0.667  0.917-   6 1.94   8 1.94   9 2.12   3 2.12
  16  0.973  0.333  0.583-  10 1.94   2 1.94   4 2.12  11 2.12
  17  0.027  0.667  0.417-  11 1.94   1 1.94   5 2.12  10 2.12
  18  0.360  0.333  0.083-   3 1.94   7 1.94  12 2.12   6 2.12
  19  0.000  0.306  0.250-  12 1.94   5 1.94   7 2.12   1 2.12
  20  0.000  0.694  0.750-   9 1.94   4 1.94   8 2.12   2 2.12
  21  0.333  0.973  0.917-   6 1.94   8 1.94   9 2.12   3 2.12
  22  0.667  0.640  0.583-  10 1.94   2 1.94   4 2.12  11 2.12
  23  0.333  0.360  0.417-  11 1.94   1 1.94   5 2.12  10 2.12
  24  0.667  0.027  0.083-   3 1.94   7 1.94  12 2.12   6 2.12
  25  0.694  0.694  0.250-  12 1.94   5 1.94   7 2.12   1 2.12
  26  0.306  0.306  0.750-   9 1.94   4 1.94   8 2.12   2 2.12
  27  0.027  0.360  0.917-   6 1.94   8 1.94   9 2.12   3 2.12
  28  0.640  0.973  0.417-  11 1.94   1 1.94   5 2.12  10 2.12
  29  0.360  0.027  0.583-  10 1.94   2 1.94   4 2.12  11 2.12
  30  0.973  0.640  0.083-   3 1.94   7 1.94  12 2.12   6 2.12
 
  LATTYP: Found a hexagonal cell.
 ALAT       =     5.0350995578
 C/A-ratio  =     2.7324385232
  
  Lattice vectors:
  
 A1 = (   5.0351000000,   0.0000000000,   0.0000000000)
 A2 = (  -2.5175500000,   4.3605240000,   0.0000000000)
 A3 = (   0.0000000000,   0.0000000000,  13.7581000000)


Analysis of symmetry for initial positions (statically):
=====================================================================
 Subroutine PRICEL returns following result:
 
  LATTYP: Found a trigonal (rhomboedric) cell.
 ALAT       =     5.4297801492
 COS(alpha) =     0.5700456062
  
  Lattice vectors:
  
 A1 = (  -2.5175449649,  -1.4535109070,  -4.5860425054)
 A2 = (  -0.0000025175,   2.9070174535,  -4.5860287473)
 A3 = (   2.5175474825,  -1.4535065465,  -4.5860287473)
 
   3 primitive cells build up your supercell.
 

 Routine SETGRP: Setting up the symmetry group for a 
 hexagonal supercell.


 Subroutine GETGRP returns: Found 12 space group operations
 (whereof  6 operations were pure point group operations)
 out of a pool of 24 trial point group operations.


The static configuration has the point symmetry S_6 .
 The point group associated with its full space group is D_3d.


Analysis of symmetry for dynamics (positions and initial velocities):
=====================================================================
 Subroutine PRICEL returns following result:
 
  LATTYP: Found a trigonal (rhomboedric) cell.
 ALAT       =     5.4297801492
 COS(alpha) =     0.5700456062
  
  Lattice vectors:
  
 A1 = (  -2.5175449649,  -1.4535109070,  -4.5860425054)
 A2 = (  -0.0000025175,   2.9070174535,  -4.5860287473)
 A3 = (   2.5175474825,  -1.4535065465,  -4.5860287473)
 
   3 primitive cells build up your supercell.
 

 Routine SETGRP: Setting up the symmetry group for a 
 hexagonal supercell.


 Subroutine GETGRP returns: Found 12 space group operations
 (whereof  6 operations were pure point group operations)
 out of a pool of 24 trial point group operations.


The dynamic configuration has the point symmetry S_6 .
 The point group associated with its full space group is D_3d.


Analysis of structural, dynamic, and magnetic symmetry:
=====================================================================
 Subroutine PRICEL returns following result:
 
  LATTYP: Found a trigonal (rhomboedric) cell.
 ALAT       =     5.4297801492
 COS(alpha) =     0.5700456062
  
  Lattice vectors:
  
 A1 = (  -2.5175449649,  -1.4535109070,  -4.5860425054)
 A2 = (  -0.0000025175,   2.9070174535,  -4.5860287473)
 A3 = (   2.5175474825,  -1.4535065465,  -4.5860287473)
 
   3 primitive cells build up your supercell.
 

 Routine SETGRP: Setting up the symmetry group for a 
 hexagonal supercell.


 Subroutine GETGRP returns: Found 12 space group operations
 (whereof  6 operations were pure point group operations)
 out of a pool of 24 trial point group operations.


The magnetic configuration has the point symmetry S_6 .
 The point group associated with its full space group is D_3d.


 Subroutine INISYM returns: Found 12 space group operations
 (whereof  6 operations are pure point group operations),
 and found     3 'primitive' translations

 
 
 KPOINTS: pymatgen with grid density = 2464 / numb

Automatic generation of k-mesh.
Space group operators:
 irot       det(A)        alpha          n_x          n_y          n_z        tau_x        tau_y        tau_z
    1     1.000000     0.000000     1.000000     0.000000     0.000000     0.000000     0.000000     0.000000
    2    -1.000000     0.000000     1.000000     0.000000     0.000000     0.000000     0.000000     0.000000
    3     1.000000   120.000000     0.000000     0.000000    -1.000000     0.000000     0.000000     0.000000
    4    -1.000000   120.000000     0.000000     0.000000    -1.000000     0.000000     0.000000     0.000000
    5     1.000000   120.000000     0.000000     0.000000     1.000000     0.000000     0.000000     0.000000
    6    -1.000000   120.000000     0.000000     0.000000     1.000000     0.000000     0.000000     0.000000
    7     1.000000   180.000000     1.000000     0.000000     0.000000     0.000001    -0.000000    -0.500000
    8    -1.000000   180.000000     1.000000     0.000000     0.000000     0.000001    -0.000000    -0.500000
    9     1.000000   180.000000     0.500000    -0.866025     0.000000     0.000000     0.000000    -0.500000
   10    -1.000000   180.000000     0.500000    -0.866025     0.000000     0.000000     0.000000    -0.500000
   11     1.000000   180.000000    -0.500000    -0.866025     0.000000     0.000000     0.000000    -0.500000
   12    -1.000000   180.000000    -0.500000    -0.866025     0.000000     0.000000     0.000000    -0.500000
 
 Subroutine IBZKPT returns following result:
 ===========================================
 
 Found     14 irreducible k-points:
 
 Following reciprocal coordinates:
            Coordinates               Weight
  0.000000  0.000000  0.000000      1.000000
  0.166667  0.000000  0.000000      6.000000
  0.333333  0.000000  0.000000      6.000000
  0.500000  0.000000  0.000000      3.000000
  0.166667  0.166667  0.000000      6.000000
  0.333333  0.166667  0.000000     12.000000
  0.333333  0.333333  0.000000      2.000000
  0.000000  0.000000  0.500000      1.000000
  0.166667  0.000000  0.500000      6.000000
  0.333333  0.000000  0.500000      6.000000
  0.500000  0.000000  0.500000      3.000000
  0.166667  0.166667  0.500000      6.000000
  0.333333  0.166667  0.500000     12.000000
  0.333333  0.333333  0.500000      2.000000
 
 Following cartesian coordinates:
            Coordinates               Weight
  0.000000  0.000000  0.000000      1.000000
  0.033101  0.019111  0.000000      6.000000
  0.066202  0.038222  0.000000      6.000000
  0.099303  0.057333  0.000000      3.000000
  0.033101  0.057333  0.000000      6.000000
  0.066202  0.076443  0.000000     12.000000
  0.066202  0.114665  0.000000      2.000000
  0.000000  0.000000  0.036342      1.000000
  0.033101  0.019111  0.036342      6.000000
  0.066202  0.038222  0.036342      6.000000
  0.099303  0.057333  0.036342      3.000000
  0.033101  0.057333  0.036342      6.000000
  0.066202  0.076443  0.036342     12.000000
  0.066202  0.114665  0.036342      2.000000
 
 TETIRR: Found     71 inequivalent tetrahedra from      432


--------------------------------------------------------------------------------------------------------




 Dimension of arrays:
   k-points           NKPTS =     14   k-points in BZ     NKDIM =     14   number of bands    NBANDS=    204
   number of dos      NEDOS =    301   number of ions     NIONS =     30
   non local maximal  LDIM  =      6   non local SUM 2l+1 LMDIM =     18
   total plane-waves  NPLWV = 350000
   max r-space proj   IRMAX =   9451   max aug-charges    IRDMAX=  34512
   dimension x,y,z NGX =    50 NGY =   50 NGZ =  140
   dimension x,y,z NGXF=   100 NGYF=  100 NGZF=  280
   support grid    NGXF=   100 NGYF=  100 NGZF=  280
   ions per type =              12  18
   NGX,Y,Z   is equivalent  to a cutoff of  16.51, 16.51, 16.92 a.u.
   NGXF,Y,Z  is equivalent  to a cutoff of  33.02, 33.02, 33.83 a.u.

 SYSTEM =  unknown system                          
 POSCAR =  Fe12 O18                                

 Startparameter for this run:
   NWRITE =      2    write-flag & timer
   PREC   = accura    normal or accurate (medium, high low for compatibility)
   ISTART =      0    job   : 0-new  1-cont  2-samecut
   ICHARG =      2    charge: 1-file 2-atom 10-const
   ISPIN  =      2    spin polarized calculation?
   LNONCOLLINEAR =      F non collinear calculations
   LSORBIT =      F    spin-orbit coupling
   INIWAV =      1    electr: 0-lowe 1-rand  2-diag
   LASPH  =      F    aspherical Exc in radial PAW
   METAGGA=      F    non-selfconsistent MetaGGA calc.

 Electronic Relaxation 1
   ENCUT  =  940.0 eV  69.09 Ry    8.31 a.u.  12.59 12.59 34.39*2*pi/ulx,y,z
   ENINI  =  940.0     initial cutoff
   ENAUG  =  605.4 eV  augmentation charge cutoff
   NELM   =    100;   NELMIN=  2; NELMDL= -5     # of ELM steps 
   EDIFF  = 0.1E-06   stopping-criterion for ELM
   LREAL  =      T    real-space projection
   NLSPLINE    = F    spline interpolate recip. space projectors
   LCOMPAT=      F    compatible to vasp.4.4
   GGA_COMPAT  = T    GGA compatible to vasp.4.4-vasp.4.6
   LMAXPAW     = -100 max onsite density
   LMAXMIX     =    2 max onsite mixed and CHGCAR
   VOSKOWN=      0    Vosko Wilk Nusair interpolation
   ROPT   =   -0.00025  -0.00025
 Ionic relaxation
   EDIFFG = 0.1E-05   stopping-criterion for IOM
   NSW    =      0    number of steps for IOM
   NBLOCK =      1;   KBLOCK =      1    inner block; outer block 
   IBRION =     -1    ionic relax: 0-MD 1-quasi-New 2-CG
   NFREE  =      0    steps in history (QN), initial steepest desc. (CG)
   ISIF   =      3    stress and relaxation
   IWAVPR =     10    prediction:  0-non 1-charg 2-wave 3-comb
   ISYM   =      2    0-nonsym 1-usesym 2-fastsym
   LCORR  =      T    Harris-Foulkes like correction to forces

   POTIM  = 0.5000    time-step for ionic-motion
   TEIN   =    0.0    initial temperature
   TEBEG  =    0.0;   TEEND  =   0.0 temperature during run
   SMASS  =  -3.00    Nose mass-parameter (am)
   estimated Nose-frequenzy (Omega)   =  0.10E-29 period in steps =****** mass=  -0.579E-27a.u.
   SCALEE = 1.0000    scale energy and forces
   NPACO  =    256;   APACO  = 16.0  distance and # of slots for P.C.
   PSTRESS=    0.0 pullay stress

  Mass of Ions in am
   POMASS =  55.85 16.00
  Ionic Valenz
   ZVAL   =  14.00  6.00
  Atomic Wigner-Seitz radii
   RWIGS  =  -1.00 -1.00
  virtual crystal weights 
   VCA    =   1.00  1.00
   NELECT =     276.0000    total number of electrons
   NUPDOWN=      -1.0000    fix difference up-down

 DOS related values:
   EMIN   =  10.00;   EMAX   =-10.00  energy-range for DOS
   EFERMI =   0.00
   ISMEAR =    -5;   SIGMA  =   0.05  broadening in eV -4-tet -1-fermi 0-gaus

 Electronic relaxation 2 (details)
   IALGO  =     38    algorithm
   LDIAG  =      T    sub-space diagonalisation (order eigenvalues)
   LSUBROT=      F    optimize rotation matrix (better conditioning)
   TURBO    =      0    0=normal 1=particle mesh
   IRESTART =      0    0=no restart 2=restart with 2 vectors
   NREBOOT  =      0    no. of reboots
   NMIN     =      0    reboot dimension
   EREF     =   0.00    reference energy to select bands
   IMIX   =      4    mixing-type and parameters
     AMIX     =   0.40;   BMIX     =  1.00
     AMIX_MAG =   1.60;   BMIX_MAG =  1.00
     AMIN     =   0.10
     WC   =   100.;   INIMIX=   1;  MIXPRE=   1;  MAXMIX= -45

 Intra band minimization:
   WEIMIN = 0.0000     energy-eigenvalue tresh-hold
   EBREAK =  0.12E-09  absolut break condition
   DEPER  =   0.30     relativ break condition  

   TIME   =   0.40     timestep for ELM

  volume/ion in A,a.u.               =      10.07        67.95
  Fermi-wavevector in a.u.,A,eV,Ry     =   1.588581  3.001983 34.335534  2.523591
  Thomas-Fermi vector in A             =   2.687563
 
 Write flags
   LWAVE        =      F    write WAVECAR
   LDOWNSAMPLE  =      F    k-point downsampling of WAVECAR
   LCHARG       =      F    write CHGCAR
   LVTOT        =      F    write LOCPOT, total local potential
   LVHAR        =      F    write LOCPOT, Hartree potential only
   LELF         =      F    write electronic localiz. function (ELF)
   LORBIT       =     11    0 simple, 1 ext, 2 COOP (PROOUT), +10 PAW based schemes


 Dipole corrections
   LMONO  =      F    monopole corrections only (constant potential shift)
   LDIPOL =      F    correct potential (dipole corrections)
   IDIPOL =      0    1-x, 2-y, 3-z, 4-all directions 
   EPSILON=  1.0000000 bulk dielectric constant

 Exchange correlation treatment:
   GGA     =    --    GGA type
   LEXCH   =     8    internal setting for exchange type
   VOSKOWN=      0    Vosko Wilk Nusair interpolation
   LHFCALC =     F    Hartree Fock is set to
   LHFONE  =     F    Hartree Fock one center treatment
   AEXX    =    0.0000 exact exchange contribution

 Linear response parameters
   LEPSILON=     F    determine dielectric tensor
   LRPA    =     F    only Hartree local field effects (RPA)
   LNABLA  =     F    use nabla operator in PAW spheres
   LVEL    =     F    velocity operator in full k-point grid
   LINTERFAST=   F  fast interpolation
   KINTER  =     0    interpolate to denser k-point grid
   CSHIFT  =0.1000    complex shift for real part using Kramers Kronig
   OMEGAMAX=  -1.0    maximum frequency
   DEG_THRESHOLD= 0.2000000E-02 threshold for treating states as degnerate
   RTIME   =   -0.100 relaxation time in fs
  (WPLASMAI=    0.000 imaginary part of plasma frequency in eV, 0.658/RTIME)
   DFIELD  = 0.0000000 0.0000000 0.0000000 field for delta impulse in time
 
 Orbital magnetization related:
   ORBITALMAG=     F  switch on orbital magnetization
   LCHIMAG   =     F  perturbation theory with respect to B field
   DQ        =  0.001000  dq finite difference perturbation B field
   LLRAUG    =     F  two centre corrections for induced B field



--------------------------------------------------------------------------------------------------------


 Static calculation
 charge density and potential will be updated during run
 spin polarized calculation
 Variant of blocked Davidson
 Davidson routine will perform the subspace rotation
 perform sub-space diagonalisation
    after iterative eigenvector-optimisation
 modified Broyden-mixing scheme, WC =      100.0
 initial mixing is a Kerker type mixing with AMIX =  0.4000 and BMIX =      1.0000
 Hartree-type preconditioning will be used
 using additional bands           66
 real space projection scheme for non local part
 use partial core corrections
 calculate Harris-corrections to forces 
   (improved forces if not selfconsistent)
 use gradient corrections 
 use of overlap-Matrix (Vanderbilt PP)
 Fermi weights with tetrahedron method with Bloechl corrections


--------------------------------------------------------------------------------------------------------


  energy-cutoff  :      940.00
  volume of cell :      302.07
      direct lattice vectors                 reciprocal lattice vectors
     5.035100000  0.000000000  0.000000000     0.198605787  0.114665118  0.000000000
    -2.517550000  4.360524000  0.000000000     0.000000000  0.229330236  0.000000000
     0.000000000  0.000000000 13.758100000     0.000000000  0.000000000  0.072684455

  length of vectors
     5.035100000  5.035099558 13.758100000     0.229330216  0.229330236  0.072684455


 
 k-points in units of 2pi/SCALE and weight: pymatgen with grid density = 2464 / numb
   0.00000000  0.00000000  0.00000000       0.014
   0.03310096  0.01911085  0.00000000       0.083
   0.06620193  0.03822171  0.00000000       0.083
   0.09930289  0.05733256  0.00000000       0.042
   0.03310096  0.05733256  0.00000000       0.083
   0.06620193  0.07644341  0.00000000       0.167
   0.06620193  0.11466512  0.00000000       0.028
   0.00000000  0.00000000  0.03634223       0.014
   0.03310096  0.01911085  0.03634223       0.083
   0.06620193  0.03822171  0.03634223       0.083
   0.09930289  0.05733256  0.03634223       0.042
   0.03310096  0.05733256  0.03634223       0.083
   0.06620193  0.07644341  0.03634223       0.167
   0.06620193  0.11466512  0.03634223       0.028
 
 k-points in reciprocal lattice and weights: pymatgen with grid density = 2464 / numb
   0.00000000  0.00000000  0.00000000       0.014
   0.16666667  0.00000000  0.00000000       0.083
   0.33333333  0.00000000  0.00000000       0.083
   0.50000000  0.00000000  0.00000000       0.042
   0.16666667  0.16666667  0.00000000       0.083
   0.33333333  0.16666667  0.00000000       0.167
   0.33333333  0.33333333  0.00000000       0.028
   0.00000000  0.00000000  0.50000000       0.014
   0.16666667  0.00000000  0.50000000       0.083
   0.33333333  0.00000000  0.50000000       0.083
   0.50000000  0.00000000  0.50000000       0.042
   0.16666667  0.16666667  0.50000000       0.083
   0.33333333  0.16666667  0.50000000       0.167
   0.33333333  0.33333333  0.50000000       0.028
 
 position of ions in fractional coordinates (direct lattice) 
   0.00000000  0.00000000  0.35532000
   0.00000000  0.00000000  0.64468000
   0.33333300  0.66666700  0.02198700
   0.66666700  0.33333300  0.68865300
   0.33333300  0.66666700  0.31134700
   0.66666700  0.33333300  0.97801300
   0.00000000  0.00000000  0.14468000
   0.00000000  0.00000000  0.85532000
   0.33333300  0.66666700  0.81134700
   0.33333300  0.66666700  0.52198700
   0.66666700  0.33333300  0.47801300
   0.66666700  0.33333300  0.18865300
   0.30618000  0.00000000  0.25000000
   0.69382000  0.00000000  0.75000000
   0.63951300  0.66666700  0.91666700
   0.97284700  0.33333300  0.58333300
   0.02715300  0.66666700  0.41666700
   0.36048700  0.33333300  0.08333300
   0.00000000  0.30618000  0.25000000
   0.00000000  0.69382000  0.75000000
   0.33333300  0.97284700  0.91666700
   0.66666700  0.63951300  0.58333300
   0.33333300  0.36048700  0.41666700
   0.66666700  0.02715300  0.08333300
   0.69382000  0.69382000  0.25000000
   0.30618000  0.30618000  0.75000000
   0.02715300  0.36048700  0.91666700
   0.63951300  0.97284700  0.41666700
   0.36048700  0.02715300  0.58333300
   0.97284700  0.63951300  0.08333300
 
 position of ions in cartesian coordinates  (Angst):
   0.00000000  0.00000000  4.88852809
   0.00000000  0.00000000  8.86957191
  -0.00000252  2.90701745  0.30249934
   2.51755252  1.45350655  9.47455684
  -0.00000252  2.90701745  4.28354316
   2.51755252  1.45350655 13.45560066
   0.00000000  0.00000000  1.99052191
   0.00000000  0.00000000 11.76757809
  -0.00000252  2.90701745 11.16259316
  -0.00000252  2.90701745  7.18154934
   2.51755252  1.45350655  6.57655066
   2.51755252  1.45350655  2.59550684
   1.54164692  0.00000000  3.43952500
   3.49345308  0.00000000 10.31857500
   1.54164440  2.90701745 12.61159625
   4.05919944  1.45350655  8.02555375
  -1.54164944  2.90701745  5.73254625
   0.97590560  1.45350655  1.14650375
  -0.77082346  1.33510524  3.43952500
  -1.74672654  3.02541876 10.31857500
  -0.77082598  4.24212269 12.61159625
   1.74672906  2.78861178  8.02555375
   0.77082094  1.57191222  5.73254625
   3.28837598  0.11840131  1.14650375
   1.74672654  3.02541876  3.43952500
   0.77082346  1.33510524 10.31857500
  -0.77082598  1.57191222 12.61159625
   0.77082094  4.24212269  5.73254625
   1.74672906  0.11840131  8.02555375
   3.28837598  2.78861178  1.14650375
 


--------------------------------------------------------------------------------------------------------


 k-point  1 :   0.0000 0.0000 0.0000  plane waves:   19785
 k-point  2 :   0.1667 0.0000 0.0000  plane waves:   19810
 k-point  3 :   0.3333 0.0000 0.0000  plane waves:   19754
 k-point  4 :   0.5000 0.0000 0.0000  plane waves:   19738
 k-point  5 :   0.1667 0.1667 0.0000  plane waves:   19783
 k-point  6 :   0.3333 0.1667 0.0000  plane waves:   19741
 k-point  7 :   0.3333 0.3333 0.0000  plane waves:   19752
 k-point  8 :   0.0000 0.0000 0.5000  plane waves:   19868
 k-point  9 :   0.1667 0.0000 0.5000  plane waves:   19780
 k-point 10 :   0.3333 0.0000 0.5000  plane waves:   19766
 k-point 11 :   0.5000 0.0000 0.5000  plane waves:   19740
 k-point 12 :   0.1667 0.1667 0.5000  plane waves:   19774
 k-point 13 :   0.3333 0.1667 0.5000  plane waves:   19766
 k-point 14 :   0.3333 0.3333 0.5000  plane waves:   19788

 maximum and minimum number of plane-waves per node :      5011     4892

 maximum number of plane-waves:     19868
 maximum index in each direction: 
   IXMAX=   12   IYMAX=   12   IZMAX=   34
   IXMIN=  -13   IYMIN=  -12   IZMIN=  -34


 real space projection operators:
  total allocation   :      20477.06 KBytes
  max/ min on nodes  :       5331.50       4903.75


 parallel 3D FFT for wavefunctions:
    minimum data exchange during FFTs selected (reduces bandwidth)
 parallel 3D FFT for charge:
    minimum data exchange during FFTs selected (reduces bandwidth)


 total amount of memory used by VASP MPI-rank0   144297. kBytes
=======================================================================

   base      :      30000. kBytes
   nonlr-proj:      11376. kBytes
   fftplans  :       7249. kBytes
   grid      :      18564. kBytes
   one-center:        248. kBytes
   wavefun   :      76860. kBytes
 
     INWAV:  cpu time    0.0000: real time    0.0001
 Broyden mixing: mesh for mixing (old mesh)
   NGX = 25   NGY = 25   NGZ = 69
  (NGX  =100   NGY  =100   NGZ  =280)
  gives a total of  43125 points

 initial charge density was supplied:
 charge density of overlapping atoms calculated
 number of electron     276.0000000 magnetization      70.8000000
 keeping initial charge density in first step


--------------------------------------------------------------------------------------------------------


 Maximum index for non-local projection operator         2527
 Maximum index for augmentation-charges         2258 (set IRDMAX)


--------------------------------------------------------------------------------------------------------


 First call to EWALD:  gamma=   0.264
 Maximum number of real-space cells 4x 4x 2
 Maximum number of reciprocal cells 2x 2x 5

    FEWALD:  cpu time    0.0020: real time    0.0020


--------------------------------------- Iteration      1(   1)  ---------------------------------------


    POTLOK:  cpu time    0.1885: real time    0.1909
    SETDIJ:  cpu time    0.0202: real time    0.0203
     EDDAV:  cpu time   26.2950: real time   26.3716
 BZINTS: Fermi energy: 34.074391;276.000000 electrons
         Band energy:2222.001638;  BLOECHL correction: -0.078115
       DOS:  cpu time    0.0457: real time    0.0458
    --------------------------------------------
      LOOP:  cpu time   26.5495: real time   26.6287

 eigenvalue-minimisations  : 11472
 total energy-change (2. order) : 0.5238675E+04  (-0.1941875E+05)
 number of electron     276.0000000 magnetization      70.8000000
 augmentation part      276.0000000 magnetization      70.8000000

 Free energy of the ion-electron system (eV)
  ---------------------------------------------------
  alpha Z        PSCENC =      1362.55286497
  Ewald energy   TEWEN  =    -25513.06237826
  -Hartree energ DENC   =    -10371.14386019
  -exchange      EXHF   =         0.00000000
  -V(xc)+E(xc)   XCENC  =      1375.27777967
  PAW double counting   =     30224.59406688   -31333.39571732
  entropy T*S    EENTRO =         0.00000000
  eigenvalues    EBANDS =      2222.00163764
  atomic energy  EATOM  =     37271.85088881
  Solvation  Ediel_sol  =         0.00000000
  ---------------------------------------------------
  free energy    TOTEN  =      5238.67528219 eV

  energy without entropy =     5238.67528219  energy(sigma->0) =     5238.67528219


--------------------------------------------------------------------------------------------------------




--------------------------------------- Iteration      1(   2)  ---------------------------------------


     EDDAV:  cpu time   25.9038: real time   25.9730
 BZINTS: Fermi energy: 12.457012;276.000000 electrons
         Band energy:***********;  BLOECHL correction: -0.052775
       DOS:  cpu time    0.0488: real time    0.0489
    --------------------------------------------
      LOOP:  cpu time   25.9525: real time   26.0219

 eigenvalue-minimisations  : 11424
 total energy-change (2. order) :-0.4542194E+04  (-0.4165964E+04)
 number of electron     276.0000000 magnetization      70.8000000
 augmentation part      276.0000000 magnetization      70.8000000

 Free energy of the ion-electron system (eV)
  ---------------------------------------------------
  alpha Z        PSCENC =      1362.55286497
  Ewald energy   TEWEN  =    -25513.06237826
  -Hartree energ DENC   =    -10371.14386019
  -exchange      EXHF   =         0.00000000
  -V(xc)+E(xc)   XCENC  =      1375.27777967
  PAW double counting   =     30224.59406688   -31333.39571732
  entropy T*S    EENTRO =         0.00000000
  eigenvalues    EBANDS =     -2320.19211227
  atomic energy  EATOM  =     37271.85088881
  Solvation  Ediel_sol  =         0.00000000
  ---------------------------------------------------
  free energy    TOTEN  =       696.48153228 eV

  energy without entropy =      696.48153228  energy(sigma->0) =      696.48153228


--------------------------------------------------------------------------------------------------------




--------------------------------------- Iteration      1(   3)  ---------------------------------------


     EDDAV:  cpu time   24.9352: real time   24.9987
 BZINTS: Fermi energy:  8.745247;276.000000 electrons
         Band energy:***********;  BLOECHL correction:  0.000000
       DOS:  cpu time    0.0059: real time    0.0059
    --------------------------------------------
      LOOP:  cpu time   24.9411: real time   25.0046

 eigenvalue-minimisations  : 11808
 total energy-change (2. order) :-0.9149738E+03  (-0.7846911E+03)
 number of electron     276.0000000 magnetization      70.8000000
 augmentation part      276.0000000 magnetization      70.8000000

 Free energy of the ion-electron system (eV)
  ---------------------------------------------------
  alpha Z        PSCENC =      1362.55286497
  Ewald energy   TEWEN  =    -25513.06237826
  -Hartree energ DENC   =    -10371.14386019
  -exchange      EXHF   =         0.00000000
  -V(xc)+E(xc)   XCENC  =      1375.27777967
  PAW double counting   =     30224.59406688   -31333.39571732
  entropy T*S    EENTRO =         0.00000000
  eigenvalues    EBANDS =     -3235.16588247
  atomic energy  EATOM  =     37271.85088881
  Solvation  Ediel_sol  =         0.00000000
  ---------------------------------------------------
  free energy    TOTEN  =      -218.49223792 eV

  energy without entropy =     -218.49223792  energy(sigma->0) =     -218.49223792


--------------------------------------------------------------------------------------------------------




--------------------------------------- Iteration      1(   4)  ---------------------------------------


     EDDAV:  cpu time   26.9705: real time   27.0399
 BZINTS: Fermi energy:  8.310394;276.000000 electrons
         Band energy:***********;  BLOECHL correction:  0.000000
       DOS:  cpu time    0.0071: real time    0.0071
    --------------------------------------------
      LOOP:  cpu time   26.9777: real time   27.0471

 eigenvalue-minimisations  : 12912
 total energy-change (2. order) :-0.7510901E+02  (-0.7414597E+02)
 number of electron     276.0000000 magnetization      70.8000000
 augmentation part      276.0000000 magnetization      70.8000000

 Free energy of the ion-electron system (eV)
  ---------------------------------------------------
  alpha Z        PSCENC =      1362.55286497
  Ewald energy   TEWEN  =    -25513.06237826
  -Hartree energ DENC   =    -10371.14386019
  -exchange      EXHF   =         0.00000000
  -V(xc)+E(xc)   XCENC  =      1375.27777967
  PAW double counting   =     30224.59406688   -31333.39571732
  entropy T*S    EENTRO =         0.00000000
  eigenvalues    EBANDS =     -3310.27488830
  atomic energy  EATOM  =     37271.85088881
  Solvation  Ediel_sol  =         0.00000000
  ---------------------------------------------------
  free energy    TOTEN  =      -293.60124375 eV

  energy without entropy =     -293.60124375  energy(sigma->0) =     -293.60124375


--------------------------------------------------------------------------------------------------------




--------------------------------------- Iteration      1(   5)  ---------------------------------------


     EDDAV:  cpu time   25.6994: real time   25.7651
 BZINTS: Fermi energy:  8.337442;276.000000 electrons
         Band energy:***********;  BLOECHL correction:  0.000000
       DOS:  cpu time    0.0071: real time    0.0071
    CHARGE:  cpu time    1.0067: real time    1.0093
    MIXING:  cpu time    0.0034: real time    0.0034
    --------------------------------------------
      LOOP:  cpu time   26.7166: real time   26.7849

 eigenvalue-minimisations  : 12732
 total energy-change (2. order) :-0.9157217E+00  (-0.9125509E+00)
 number of electron     275.9999998 magnetization      67.8179405
 augmentation part      108.0135328 magnetization      47.0439505

 Broyden mixing:
  rms(total) = 0.80928E+01    rms(broyden)= 0.80928E+01
  rms(prec ) = 0.88388E+01
  weight for this iteration     100.00

 Free energy of the ion-electron system (eV)
  ---------------------------------------------------
  alpha Z        PSCENC =      1362.55286497
  Ewald energy   TEWEN  =    -25513.06237826
  -Hartree energ DENC   =    -10371.14386019
  -exchange      EXHF   =         0.00000000
  -V(xc)+E(xc)   XCENC  =      1375.27777967
  PAW double counting   =     30224.59406688   -31333.39571732
  entropy T*S    EENTRO =         0.00000000
  eigenvalues    EBANDS =     -3311.19061001
  atomic energy  EATOM  =     37271.85088881
  Solvation  Ediel_sol  =         0.00000000
  ---------------------------------------------------
  free energy    TOTEN  =      -294.51696546 eV

  energy without entropy =     -294.51696546  energy(sigma->0) =     -294.51696546


--------------------------------------------------------------------------------------------------------




--------------------------------------- Iteration      1(   6)  ---------------------------------------


    POTLOK:  cpu time    0.1663: real time    0.1674
    SETDIJ:  cpu time    0.0170: real time    0.0170
     EDDAV:  cpu time   29.5395: real time   29.6151
 BZINTS: Fermi energy:  5.534943;276.000000 electrons
         Band energy:***********;  BLOECHL correction: -0.054638
       DOS:  cpu time    0.0501: real time    0.0503
    CHARGE:  cpu time    1.1025: real time    1.1053
    MIXING:  cpu time    0.0038: real time    0.0038
    --------------------------------------------
      LOOP:  cpu time   30.8793: real time   30.9590

 eigenvalue-minimisations  : 14760
 total energy-change (2. order) : 0.5925160E+02  (-0.2527659E+02)
 number of electron     275.9999997 magnetization      62.9804914
 augmentation part      120.7055300 magnetization      54.4125766

 Broyden mixing:
  rms(total) = 0.91185E+01    rms(broyden)= 0.91185E+01
  rms(prec ) = 0.97669E+01
  weight for this iteration     100.00

 eigenvalues of (default mixing * dielectric matrix)
  average eigenvalue GAMMA=   0.3187
  0.3187

 Free energy of the ion-electron system (eV)
  ---------------------------------------------------
  alpha Z        PSCENC =      1362.55286497
  Ewald energy   TEWEN  =    -25513.06237826
  -Hartree energ DENC   =     -9965.67341010
  -exchange      EXHF   =         0.00000000
  -V(xc)+E(xc)   XCENC  =      1376.63557262
  PAW double counting   =     31435.55996871   -32502.45636812
  entropy T*S    EENTRO =         0.00000000
  eigenvalues    EBANDS =     -3700.67250727
  atomic energy  EATOM  =     37271.85088881
  Solvation  Ediel_sol  =         0.00000000
  ---------------------------------------------------
  free energy    TOTEN  =      -235.26536866 eV

  energy without entropy =     -235.26536866  energy(sigma->0) =     -235.26536866


--------------------------------------------------------------------------------------------------------




--------------------------------------- Iteration      1(   7)  ---------------------------------------


    POTLOK:  cpu time    0.1769: real time    0.1800
    SETDIJ:  cpu time    0.0182: real time    0.0182
     EDDAV:  cpu time   26.3775: real time   26.4443
 BZINTS: Fermi energy:  7.078990;276.000000 electrons
         Band energy:***********;  BLOECHL correction: -0.036402
       DOS:  cpu time    0.0510: real time    0.0511
    CHARGE:  cpu time    1.0936: real time    1.0964
    MIXING:  cpu time    0.0035: real time    0.0035
    --------------------------------------------
      LOOP:  cpu time   27.7207: real time   27.7935

 eigenvalue-minimisations  : 12312
 total energy-change (2. order) : 0.2318203E+02  (-0.1141048E+02)
 number of electron     275.9999997 magnetization      58.7853672
 augmentation part      109.3448451 magnetization      40.3317871

 Broyden mixing:
  rms(total) = 0.43689E+01    rms(broyden)= 0.43689E+01
  rms(prec ) = 0.45287E+01
  weight for this iteration     100.00

 eigenvalues of (default mixing * dielectric matrix)
  average eigenvalue GAMMA=   0.6787
  1.0271  0.3304

 Free energy of the ion-electron system (eV)
  ---------------------------------------------------
  alpha Z        PSCENC =      1362.55286497
  Ewald energy   TEWEN  =    -25513.06237826
  -Hartree energ DENC   =    -10207.53317275
  -exchange      EXHF   =         0.00000000
  -V(xc)+E(xc)   XCENC  =      1372.38812168
  PAW double counting   =     32867.88560037   -33996.32158082
  entropy T*S    EENTRO =         0.00000000
  eigenvalues    EBANDS =     -3369.84367811
  atomic energy  EATOM  =     37271.85088881
  Solvation  Ediel_sol  =         0.00000000
  ---------------------------------------------------
  free energy    TOTEN  =      -212.08333411 eV

  energy without entropy =     -212.08333411  energy(sigma->0) =     -212.08333411


--------------------------------------------------------------------------------------------------------




--------------------------------------- Iteration      1(   8)  ---------------------------------------


    POTLOK:  cpu time    0.1756: real time    0.1762
    SETDIJ:  cpu time    0.0181: real time    0.0181
     EDDAV:  cpu time   25.9283: real time   25.9938
 BZINTS: Fermi energy:  6.445404;276.000000 electrons
         Band energy:***********;  BLOECHL correction: -0.034159
       DOS:  cpu time    0.0489: real time    0.0491
    CHARGE:  cpu time    1.0813: real time    1.0840
    MIXING:  cpu time    0.0035: real time    0.0035
    --------------------------------------------
      LOOP:  cpu time   27.2557: real time   27.3246

 eigenvalue-minimisations  : 12120
 total energy-change (2. order) :-0.6237910E+01  (-0.2142849E+01)
 number of electron     275.9999997 magnetization      51.9545706
 augmentation part      111.2657974 magnetization      35.0341778

 Broyden mixing:
  rms(total) = 0.26527E+01    rms(broyden)= 0.26527E+01
  rms(prec ) = 0.27130E+01
  weight for this iteration     100.00

 eigenvalues of (default mixing * dielectric matrix)
  average eigenvalue GAMMA=   1.0715
  2.2514  0.5794  0.3837

 Free energy of the ion-electron system (eV)
  ---------------------------------------------------
  alpha Z        PSCENC =      1362.55286497
  Ewald energy   TEWEN  =    -25513.06237826
  -Hartree energ DENC   =    -10072.31454195
  -exchange      EXHF   =         0.00000000
  -V(xc)+E(xc)   XCENC  =      1366.37216427
  PAW double counting   =     34224.85979508   -35365.02073573
  entropy T*S    EENTRO =         0.00000000
  eigenvalues    EBANDS =     -3493.55930099
  atomic energy  EATOM  =     37271.85088881
  Solvation  Ediel_sol  =         0.00000000
  ---------------------------------------------------
  free energy    TOTEN  =      -218.32124380 eV

  energy without entropy =     -218.32124380  energy(sigma->0) =     -218.32124380


--------------------------------------------------------------------------------------------------------




--------------------------------------- Iteration      1(   9)  ---------------------------------------


    POTLOK:  cpu time    0.1720: real time    0.1740
    SETDIJ:  cpu time    0.0179: real time    0.0180
     EDDAV:  cpu time   27.1268: real time   27.2000
 BZINTS: Fermi energy:  5.881903;276.000000 electrons
         Band energy:***********;  BLOECHL correction: -0.038304
       DOS:  cpu time    0.0494: real time    0.0495
    CHARGE:  cpu time    1.0277: real time    1.0303
    MIXING:  cpu time    0.0036: real time    0.0036
    --------------------------------------------
      LOOP:  cpu time   28.3974: real time   28.4754

 eigenvalue-minimisations  : 12612
 total energy-change (2. order) :-0.4178582E+01  (-0.8206519E+00)
 number of electron     275.9999997 magnetization      50.9231340
 augmentation part      114.1232960 magnetization      37.7883047

 Broyden mixing:
  rms(total) = 0.27028E+01    rms(broyden)= 0.27028E+01
  rms(prec ) = 0.28320E+01
  weight for this iteration     100.00

 eigenvalues of (default mixing * dielectric matrix)
  average eigenvalue GAMMA=   1.1014
  2.8499  0.8033  0.3763  0.3763

 Free energy of the ion-electron system (eV)
  ---------------------------------------------------
  alpha Z        PSCENC =      1362.55286497
  Ewald energy   TEWEN  =    -25513.06237826
  -Hartree energ DENC   =     -9933.78001882
  -exchange      EXHF   =         0.00000000
  -V(xc)+E(xc)   XCENC  =      1362.37233160
  PAW double counting   =     36506.17700258   -37675.12894950
  entropy T*S    EENTRO =         0.00000000
  eigenvalues    EBANDS =     -3603.48156692
  atomic energy  EATOM  =     37271.85088881
  Solvation  Ediel_sol  =         0.00000000
  ---------------------------------------------------
  free energy    TOTEN  =      -222.49982554 eV

  energy without entropy =     -222.49982554  energy(sigma->0) =     -222.49982554


--------------------------------------------------------------------------------------------------------




--------------------------------------- Iteration      1(  10)  ---------------------------------------


    POTLOK:  cpu time    0.1664: real time    0.1670
    SETDIJ:  cpu time    0.0169: real time    0.0170
     EDDAV:  cpu time   25.3295: real time   25.3933
 BZINTS: Fermi energy:  5.958930;276.000000 electrons
         Band energy:***********;  BLOECHL correction: -0.037095
       DOS:  cpu time    0.0493: real time    0.0494
    CHARGE:  cpu time    1.0281: real time    1.0307
    MIXING:  cpu time    0.0036: real time    0.0036
    --------------------------------------------
      LOOP:  cpu time   26.5938: real time   26.6611

 eigenvalue-minimisations  : 12624
 total energy-change (2. order) : 0.3307043E+00  (-0.2453092E+00)
 number of electron     275.9999997 magnetization      50.6190514
 augmentation part      113.4149174 magnetization      37.3057361

 Broyden mixing:
  rms(total) = 0.18569E+01    rms(broyden)= 0.18569E+01
  rms(prec ) = 0.19673E+01
  weight for this iteration     100.00

 eigenvalues of (default mixing * dielectric matrix)
  average eigenvalue GAMMA=   1.0181
  2.6178  0.3742  0.7703  0.6640  0.6640

 Free energy of the ion-electron system (eV)
  ---------------------------------------------------
  alpha Z        PSCENC =      1362.55286497
  Ewald energy   TEWEN  =    -25513.06237826
  -Hartree energ DENC   =     -9949.22724705
  -exchange      EXHF   =         0.00000000
  -V(xc)+E(xc)   XCENC  =      1360.92114690
  PAW double counting   =     36544.86934247   -37717.20451959
  entropy T*S    EENTRO =         0.00000000
  eigenvalues    EBANDS =     -3582.86921951
  atomic energy  EATOM  =     37271.85088881
  Solvation  Ediel_sol  =         0.00000000
  ---------------------------------------------------
  free energy    TOTEN  =      -222.16912126 eV

  energy without entropy =     -222.16912126  energy(sigma->0) =     -222.16912126


--------------------------------------------------------------------------------------------------------




--------------------------------------- Iteration      1(  11)  ---------------------------------------


    POTLOK:  cpu time    0.1652: real time    0.1659
    SETDIJ:  cpu time    0.0168: real time    0.0168
     EDDAV:  cpu time   28.9476: real time   29.0208
 BZINTS: Fermi energy:  6.019849;276.000000 electrons
         Band energy:***********;  BLOECHL correction: -0.034003
       DOS:  cpu time    0.0513: real time    0.0514
    CHARGE:  cpu time    1.0816: real time    1.0843
    MIXING:  cpu time    0.0039: real time    0.0039
    --------------------------------------------
      LOOP:  cpu time   30.2664: real time   30.3432

 eigenvalue-minimisations  : 14244
 total energy-change (2. order) : 0.5616044E+00  (-0.2257095E-01)
 number of electron     275.9999997 magnetization      49.3024879
 augmentation part      112.9973675 magnetization      35.6052882

 Broyden mixing:
  rms(total) = 0.12175E+01    rms(broyden)= 0.12175E+01
  rms(prec ) = 0.12908E+01
  weight for this iteration     100.00

 eigenvalues of (default mixing * dielectric matrix)
  average eigenvalue GAMMA=   1.0462
  2.5823  0.9735  0.9735  0.3793  0.8007  0.5678

 Free energy of the ion-electron system (eV)
  ---------------------------------------------------
  alpha Z        PSCENC =      1362.55286497
  Ewald energy   TEWEN  =    -25513.06237826
  -Hartree energ DENC   =     -9960.28501061
  -exchange      EXHF   =         0.00000000
  -V(xc)+E(xc)   XCENC  =      1360.24979843
  PAW double counting   =     36376.29507973   -37546.63679212
  entropy T*S    EENTRO =         0.00000000
  eigenvalues    EBANDS =     -3572.57196775
  atomic energy  EATOM  =     37271.85088881
  Solvation  Ediel_sol  =         0.00000000
  ---------------------------------------------------
  free energy    TOTEN  =      -221.60751681 eV

  energy without entropy =     -221.60751681  energy(sigma->0) =     -221.60751681


--------------------------------------------------------------------------------------------------------




--------------------------------------- Iteration      1(  12)  ---------------------------------------


    POTLOK:  cpu time    0.1740: real time    0.1769
    SETDIJ:  cpu time    0.0179: real time    0.0180
     EDDAV:  cpu time   30.1912: real time   30.2687
 BZINTS: Fermi energy:  6.079921;276.000000 electrons
         Band energy:***********;  BLOECHL correction: -0.033270
       DOS:  cpu time    0.0471: real time    0.0472
    CHARGE:  cpu time    1.0338: real time    1.0365
    MIXING:  cpu time    0.0038: real time    0.0038
    --------------------------------------------
      LOOP:  cpu time   31.4678: real time   31.5510

 eigenvalue-minimisations  : 15240
 total energy-change (2. order) : 0.2040033E+00  (-0.1971337E-01)
 number of electron     275.9999997 magnetization      46.8582756
 augmentation part      112.6747116 magnetization      33.0573025

 Broyden mixing:
  rms(total) = 0.84001E+00    rms(broyden)= 0.84001E+00
  rms(prec ) = 0.88069E+00
  weight for this iteration     100.00

 eigenvalues of (default mixing * dielectric matrix)
  average eigenvalue GAMMA=   1.0985
  2.1276  1.7227  1.4375  0.3779  0.7512  0.6364  0.6364

 Free energy of the ion-electron system (eV)
  ---------------------------------------------------
  alpha Z        PSCENC =      1362.55286497
  Ewald energy   TEWEN  =    -25513.06237826
  -Hartree energ DENC   =     -9973.33996903
  -exchange      EXHF   =         0.00000000
  -V(xc)+E(xc)   XCENC  =      1359.59877260
  PAW double counting   =     36260.65761722   -37429.94091647
  entropy T*S    EENTRO =         0.00000000
  eigenvalues    EBANDS =     -3559.72039331
  atomic energy  EATOM  =     37271.85088881
  Solvation  Ediel_sol  =         0.00000000
  ---------------------------------------------------
  free energy    TOTEN  =      -221.40351346 eV

  energy without entropy =     -221.40351346  energy(sigma->0) =     -221.40351346


--------------------------------------------------------------------------------------------------------




--------------------------------------- Iteration      1(  13)  ---------------------------------------


    POTLOK:  cpu time    0.1649: real time    0.1680
    SETDIJ:  cpu time    0.0166: real time    0.0167
     EDDAV:  cpu time   29.5576: real time   29.6327
 BZINTS: Fermi energy:  6.139048;276.000000 electrons
         Band energy:***********;  BLOECHL correction: -0.034419
       DOS:  cpu time    0.0528: real time    0.0529
    CHARGE:  cpu time    1.1072: real time    1.1100
    MIXING:  cpu time    0.0045: real time    0.0045
    --------------------------------------------
      LOOP:  cpu time   30.9036: real time   30.9847

 eigenvalue-minimisations  : 13968
 total energy-change (2. order) :-0.4150270E-03  (-0.1134112E-01)
 number of electron     275.9999997 magnetization      43.9813077
 augmentation part      112.4051519 magnetization      30.4300894

 Broyden mixing:
  rms(total) = 0.46437E+00    rms(broyden)= 0.46437E+00
  rms(prec ) = 0.48742E+00
  weight for this iteration     100.00

 eigenvalues of (default mixing * dielectric matrix)
  average eigenvalue GAMMA=   1.3965
  3.4450  3.4450  0.3782  0.9274  0.9274  0.7248  0.7248  0.5991

 Free energy of the ion-electron system (eV)
  ---------------------------------------------------
  alpha Z        PSCENC =      1362.55286497
  Ewald energy   TEWEN  =    -25513.06237826
  -Hartree energ DENC   =     -9991.30332567
  -exchange      EXHF   =         0.00000000
  -V(xc)+E(xc)   XCENC  =      1358.77498319
  PAW double counting   =     36032.35401444   -37198.59582926
  entropy T*S    EENTRO =         0.00000000
  eigenvalues    EBANDS =     -3543.97514671
  atomic energy  EATOM  =     37271.85088881
  Solvation  Ediel_sol  =         0.00000000
  ---------------------------------------------------
  free energy    TOTEN  =      -221.40392849 eV

  energy without entropy =     -221.40392849  energy(sigma->0) =     -221.40392849


--------------------------------------------------------------------------------------------------------




--------------------------------------- Iteration      1(  14)  ---------------------------------------


    POTLOK:  cpu time    0.1810: real time    0.1828
    SETDIJ:  cpu time    0.0185: real time    0.0186
     EDDAV:  cpu time   31.4359: real time   31.5152
 BZINTS: Fermi energy:  6.171060;276.000000 electrons
         Band energy:***********;  BLOECHL correction: -0.032759
       DOS:  cpu time    0.0519: real time    0.0521
    CHARGE:  cpu time    1.1071: real time    1.1098
    MIXING:  cpu time    0.0047: real time    0.0047
    --------------------------------------------
      LOOP:  cpu time   32.7991: real time   32.8831

 eigenvalue-minimisations  : 14904
 total energy-change (2. order) :-0.4465186E-01  (-0.1512728E-01)
 number of electron     275.9999997 magnetization      43.0669520
 augmentation part      112.2241999 magnetization      29.8996544

 Broyden mixing:
  rms(total) = 0.18045E+00    rms(broyden)= 0.18045E+00
  rms(prec ) = 0.18810E+00
  weight for this iteration     100.00

 eigenvalues of (default mixing * dielectric matrix)
  average eigenvalue GAMMA=   1.5055
  5.3555  2.7854  1.2160  0.3782  0.8387  0.8387  0.8864  0.6252  0.6252

 Free energy of the ion-electron system (eV)
  ---------------------------------------------------
  alpha Z        PSCENC =      1362.55286497
  Ewald energy   TEWEN  =    -25513.06237826
  -Hartree energ DENC   =    -10003.88306296
  -exchange      EXHF   =         0.00000000
  -V(xc)+E(xc)   XCENC  =      1357.69129922
  PAW double counting   =     35832.82762750   -36996.04551154
  entropy T*S    EENTRO =         0.00000000
  eigenvalues    EBANDS =     -3533.38030809
  atomic energy  EATOM  =     37271.85088881
  Solvation  Ediel_sol  =         0.00000000
  ---------------------------------------------------
  free energy    TOTEN  =      -221.44858035 eV

  energy without entropy =     -221.44858035  energy(sigma->0) =     -221.44858035


--------------------------------------------------------------------------------------------------------




--------------------------------------- Iteration      1(  15)  ---------------------------------------


    POTLOK:  cpu time    0.1791: real time    0.1810
    SETDIJ:  cpu time    0.0184: real time    0.0184
     EDDAV:  cpu time   27.7317: real time   27.8050
 BZINTS: Fermi energy:  6.157297;276.000000 electrons
         Band energy:***********;  BLOECHL correction: -0.032965
       DOS:  cpu time    0.0514: real time    0.0515
    CHARGE:  cpu time    1.1042: real time    1.1070
    MIXING:  cpu time    0.0048: real time    0.0048
    --------------------------------------------
      LOOP:  cpu time   29.0896: real time   29.1678

 eigenvalue-minimisations  : 12732
 total energy-change (2. order) :-0.1777620E-01  (-0.6155902E-02)
 number of electron     275.9999997 magnetization      42.6253820
 augmentation part      112.2741093 magnetization      29.6321115

 Broyden mixing:
  rms(total) = 0.14258E+00    rms(broyden)= 0.14258E+00
  rms(prec ) = 0.15104E+00
  weight for this iteration     100.00

 eigenvalues of (default mixing * dielectric matrix)
  average eigenvalue GAMMA=   1.5488
  6.1562  2.8512  1.3408  1.0785  0.3782  0.8496  0.8496  0.6941  0.6941  0.5956

 Free energy of the ion-electron system (eV)
  ---------------------------------------------------
  alpha Z        PSCENC =      1362.55286497
  Ewald energy   TEWEN  =    -25513.06237826
  -Hartree energ DENC   =    -10002.65349911
  -exchange      EXHF   =         0.00000000
  -V(xc)+E(xc)   XCENC  =      1357.19904680
  PAW double counting   =     35818.61372086   -36981.45620878
  entropy T*S    EENTRO =         0.00000000
  eigenvalues    EBANDS =     -3534.51079183
  atomic energy  EATOM  =     37271.85088881
  Solvation  Ediel_sol  =         0.00000000
  ---------------------------------------------------
  free energy    TOTEN  =      -221.46635655 eV

  energy without entropy =     -221.46635655  energy(sigma->0) =     -221.46635655


--------------------------------------------------------------------------------------------------------




--------------------------------------- Iteration      1(  16)  ---------------------------------------


    POTLOK:  cpu time    0.1787: real time    0.1800
    SETDIJ:  cpu time    0.0182: real time    0.0182
     EDDAV:  cpu time   30.5357: real time   30.6127
 BZINTS: Fermi energy:  6.178496;276.000000 electrons
         Band energy:***********;  BLOECHL correction: -0.032842
       DOS:  cpu time    0.0512: real time    0.0513
    CHARGE:  cpu time    1.1045: real time    1.1072
    MIXING:  cpu time    0.0049: real time    0.0049
    --------------------------------------------
      LOOP:  cpu time   31.8930: real time   31.9744

 eigenvalue-minimisations  : 14388
 total energy-change (2. order) : 0.5065762E-02  (-0.8953153E-03)
 number of electron     275.9999997 magnetization      42.4946137
 augmentation part      112.1838939 magnetization      29.5022358

 Broyden mixing:
  rms(total) = 0.36837E-01    rms(broyden)= 0.36837E-01
  rms(prec ) = 0.38555E-01
  weight for this iteration     100.00

 eigenvalues of (default mixing * dielectric matrix)
  average eigenvalue GAMMA=   1.5380
  6.3236  2.7808  1.3056  1.3056  1.1395  0.3782  0.8076  0.8076  0.7386  0.7228
  0.6087

 Free energy of the ion-electron system (eV)
  ---------------------------------------------------
  alpha Z        PSCENC =      1362.55286497
  Ewald energy   TEWEN  =    -25513.06237826
  -Hartree energ DENC   =    -10007.27437824
  -exchange      EXHF   =         0.00000000
  -V(xc)+E(xc)   XCENC  =      1357.08583462
  PAW double counting   =     35776.70519815   -36939.44599025
  entropy T*S    EENTRO =         0.00000000
  eigenvalues    EBANDS =     -3529.87333059
  atomic energy  EATOM  =     37271.85088881
  Solvation  Ediel_sol  =         0.00000000
  ---------------------------------------------------
  free energy    TOTEN  =      -221.46129078 eV

  energy without entropy =     -221.46129078  energy(sigma->0) =     -221.46129078


--------------------------------------------------------------------------------------------------------




--------------------------------------- Iteration      1(  17)  ---------------------------------------


    POTLOK:  cpu time    0.1759: real time    0.1780
    SETDIJ:  cpu time    0.0182: real time    0.0183
     EDDAV:  cpu time   26.9088: real time   26.9771
 BZINTS: Fermi energy:  6.179354;276.000000 electrons
         Band energy:***********;  BLOECHL correction: -0.032789
       DOS:  cpu time    0.0512: real time    0.0513
    CHARGE:  cpu time    1.0993: real time    1.1021
    MIXING:  cpu time    0.0053: real time    0.0054
    --------------------------------------------
      LOOP:  cpu time   28.2588: real time   28.3321

 eigenvalue-minimisations  : 12396
 total energy-change (2. order) :-0.5974577E-03  (-0.4774829E-03)
 number of electron     275.9999997 magnetization      42.3970562
 augmentation part      112.1802028 magnetization      29.4169435

 Broyden mixing:
  rms(total) = 0.19730E-01    rms(broyden)= 0.19730E-01
  rms(prec ) = 0.20360E-01
  weight for this iteration     100.00

 eigenvalues of (default mixing * dielectric matrix)
  average eigenvalue GAMMA=   1.5608
  6.5232  2.7620  2.4465  0.3782  1.0666  1.0666  0.8943  0.8943  0.7203  0.7203
  0.6041  0.6528

 Free energy of the ion-electron system (eV)
  ---------------------------------------------------
  alpha Z        PSCENC =      1362.55286497
  Ewald energy   TEWEN  =    -25513.06237826
  -Hartree energ DENC   =    -10006.88540157
  -exchange      EXHF   =         0.00000000
  -V(xc)+E(xc)   XCENC  =      1357.01930955
  PAW double counting   =     35797.87439353   -36961.19577512
  entropy T*S    EENTRO =         0.00000000
  eigenvalues    EBANDS =     -3529.61579016
  atomic energy  EATOM  =     37271.85088881
  Solvation  Ediel_sol  =         0.00000000
  ---------------------------------------------------
  free energy    TOTEN  =      -221.46188824 eV

  energy without entropy =     -221.46188824  energy(sigma->0) =     -221.46188824


--------------------------------------------------------------------------------------------------------




--------------------------------------- Iteration      1(  18)  ---------------------------------------


    POTLOK:  cpu time    0.1784: real time    0.1793
    SETDIJ:  cpu time    0.0182: real time    0.0183
     EDDAV:  cpu time   30.0341: real time   30.1099
 BZINTS: Fermi energy:  6.180060;276.000000 electrons
         Band energy:***********;  BLOECHL correction: -0.032905
       DOS:  cpu time    0.0501: real time    0.0503
    CHARGE:  cpu time    1.1039: real time    1.1067
    MIXING:  cpu time    0.0053: real time    0.0053
    --------------------------------------------
      LOOP:  cpu time   31.3900: real time   31.4698

 eigenvalue-minimisations  : 14232
 total energy-change (2. order) :-0.2188036E-03  (-0.2373338E-04)
 number of electron     275.9999997 magnetization      42.3469879
 augmentation part      112.1743510 magnetization      29.3839470

 Broyden mixing:
  rms(total) = 0.84515E-02    rms(broyden)= 0.84515E-02
  rms(prec ) = 0.87911E-02
  weight for this iteration     100.00

 eigenvalues of (default mixing * dielectric matrix)
  average eigenvalue GAMMA=   1.5317
  6.6511  2.8331  2.4496  1.1476  1.1476  0.9574  0.9574  0.3782  0.7398  0.7398
  0.6887  0.6111  0.6111

 Free energy of the ion-electron system (eV)
  ---------------------------------------------------
  alpha Z        PSCENC =      1362.55286497
  Ewald energy   TEWEN  =    -25513.06237826
  -Hartree energ DENC   =    -10007.23080067
  -exchange      EXHF   =         0.00000000
  -V(xc)+E(xc)   XCENC  =      1356.97258365
  PAW double counting   =     35795.36329459   -36958.72696813
  entropy T*S    EENTRO =         0.00000000
  eigenvalues    EBANDS =     -3529.18159200
  atomic energy  EATOM  =     37271.85088881
  Solvation  Ediel_sol  =         0.00000000
  ---------------------------------------------------
  free energy    TOTEN  =      -221.46210705 eV

  energy without entropy =     -221.46210705  energy(sigma->0) =     -221.46210705


--------------------------------------------------------------------------------------------------------




--------------------------------------- Iteration      1(  19)  ---------------------------------------


    POTLOK:  cpu time    0.1778: real time    0.1800
    SETDIJ:  cpu time    0.0177: real time    0.0178
     EDDAV:  cpu time   29.5082: real time   29.5829
 BZINTS: Fermi energy:  6.180985;276.000000 electrons
         Band energy:***********;  BLOECHL correction: -0.032963
       DOS:  cpu time    0.0514: real time    0.0516
    CHARGE:  cpu time    1.1234: real time    1.1263
    MIXING:  cpu time    0.0057: real time    0.0057
    --------------------------------------------
      LOOP:  cpu time   30.8842: real time   30.9641

 eigenvalue-minimisations  : 13884
 total energy-change (2. order) :-0.5843292E-04  (-0.1076192E-04)
 number of electron     275.9999997 magnetization      42.3366873
 augmentation part      112.1704918 magnetization      29.3820136

 Broyden mixing:
  rms(total) = 0.18950E-02    rms(broyden)= 0.18949E-02
  rms(prec ) = 0.20194E-02
  weight for this iteration     100.00

 eigenvalues of (default mixing * dielectric matrix)
  average eigenvalue GAMMA=   1.5173
  6.7220  2.8674  2.4090  1.2989  1.2989  0.9941  0.9941  0.3782  0.7799  0.7799
  0.7475  0.7475  0.6123  0.6123

 Free energy of the ion-electron system (eV)
  ---------------------------------------------------
  alpha Z        PSCENC =      1362.55286497
  Ewald energy   TEWEN  =    -25513.06237826
  -Hartree energ DENC   =    -10007.56722734
  -exchange      EXHF   =         0.00000000
  -V(xc)+E(xc)   XCENC  =      1356.95320298
  PAW double counting   =     35791.13593344   -36954.44875212
  entropy T*S    EENTRO =         0.00000000
  eigenvalues    EBANDS =     -3528.87669796
  atomic energy  EATOM  =     37271.85088881
  Solvation  Ediel_sol  =         0.00000000
  ---------------------------------------------------
  free energy    TOTEN  =      -221.46216548 eV

  energy without entropy =     -221.46216548  energy(sigma->0) =     -221.46216548


--------------------------------------------------------------------------------------------------------




--------------------------------------- Iteration      1(  20)  ---------------------------------------


    POTLOK:  cpu time    0.1760: real time    0.1772
    SETDIJ:  cpu time    0.0180: real time    0.0180
     EDDAV:  cpu time   26.8570: real time   26.9249
 BZINTS: Fermi energy:  6.181442;276.000000 electrons
         Band energy:***********;  BLOECHL correction: -0.032971
       DOS:  cpu time    0.0486: real time    0.0488
    CHARGE:  cpu time    1.0728: real time    1.0755
    MIXING:  cpu time    0.0055: real time    0.0056
    --------------------------------------------
      LOOP:  cpu time   28.1779: real time   28.2499

 eigenvalue-minimisations  : 12360
 total energy-change (2. order) :-0.8616975E-05  (-0.1859166E-05)
 number of electron     275.9999997 magnetization      42.3331102
 augmentation part      112.1692483 magnetization      29.3800385

 Broyden mixing:
  rms(total) = 0.77700E-03    rms(broyden)= 0.77698E-03
  rms(prec ) = 0.79654E-03
  weight for this iteration     100.00

 eigenvalues of (default mixing * dielectric matrix)
  average eigenvalue GAMMA=   1.5154
  6.7534  2.9632  2.3760  1.8950  1.0859  1.0859  1.0093  1.0093  0.3782  0.7432
  0.7432  0.7188  0.7188  0.6065  0.6438

 Free energy of the ion-electron system (eV)
  ---------------------------------------------------
  alpha Z        PSCENC =      1362.55286497
  Ewald energy   TEWEN  =    -25513.06237826
  -Hartree energ DENC   =    -10007.67788649
  -exchange      EXHF   =         0.00000000
  -V(xc)+E(xc)   XCENC  =      1356.94973397
  PAW double counting   =     35790.66836031   -36953.98463546
  entropy T*S    EENTRO =         0.00000000
  eigenvalues    EBANDS =     -3528.75912195
  atomic energy  EATOM  =     37271.85088881
  Solvation  Ediel_sol  =         0.00000000
  ---------------------------------------------------
  free energy    TOTEN  =      -221.46217410 eV

  energy without entropy =     -221.46217410  energy(sigma->0) =     -221.46217410


--------------------------------------------------------------------------------------------------------




--------------------------------------- Iteration      1(  21)  ---------------------------------------


    POTLOK:  cpu time    0.1737: real time    0.1744
    SETDIJ:  cpu time    0.0179: real time    0.0180
     EDDAV:  cpu time   27.5180: real time   27.5910
 BZINTS: Fermi energy:  6.181706;276.000000 electrons
         Band energy:***********;  BLOECHL correction: -0.032970
       DOS:  cpu time    0.0489: real time    0.0490
    CHARGE:  cpu time    1.0777: real time    1.0809
    MIXING:  cpu time    0.0059: real time    0.0060
    --------------------------------------------
      LOOP:  cpu time   28.8422: real time   28.9192

 eigenvalue-minimisations  : 12372
 total energy-change (2. order) : 0.4010508E-06  (-0.2449135E-06)
 number of electron     275.9999997 magnetization      42.3350581
 augmentation part      112.1683551 magnetization      29.3819209

 Broyden mixing:
  rms(total) = 0.10577E-02    rms(broyden)= 0.10577E-02
  rms(prec ) = 0.11221E-02
  weight for this iteration     100.00

 eigenvalues of (default mixing * dielectric matrix)
  average eigenvalue GAMMA=   1.5052
  6.7542  3.0000  2.4272  2.2062  1.1914  1.1914  0.9985  0.9985  0.3782  0.7859
  0.7859  0.7333  0.7333  0.6748  0.6118  0.6118

 Free energy of the ion-electron system (eV)
  ---------------------------------------------------
  alpha Z        PSCENC =      1362.55286497
  Ewald energy   TEWEN  =    -25513.06237826
  -Hartree energ DENC   =    -10007.73075303
  -exchange      EXHF   =         0.00000000
  -V(xc)+E(xc)   XCENC  =      1356.94950588
  PAW double counting   =     35790.40662625   -36953.73059872
  entropy T*S    EENTRO =         0.00000000
  eigenvalues    EBANDS =     -3528.69832959
  atomic energy  EATOM  =     37271.85088881
  Solvation  Ediel_sol  =         0.00000000
  ---------------------------------------------------
  free energy    TOTEN  =      -221.46217370 eV

  energy without entropy =     -221.46217370  energy(sigma->0) =     -221.46217370


--------------------------------------------------------------------------------------------------------




--------------------------------------- Iteration      1(  22)  ---------------------------------------


    POTLOK:  cpu time    0.1729: real time    0.1740
    SETDIJ:  cpu time    0.0181: real time    0.0183
     EDDAV:  cpu time   24.6225: real time   24.6856
 BZINTS: Fermi energy:  6.181546;276.000000 electrons
         Band energy:***********;  BLOECHL correction: -0.032971
       DOS:  cpu time    0.0518: real time    0.0519
    CHARGE:  cpu time    1.0878: real time    1.0906
    MIXING:  cpu time    0.0062: real time    0.0062
    --------------------------------------------
      LOOP:  cpu time   25.9593: real time   26.0266

 eigenvalue-minimisations  : 10980
 total energy-change (2. order) :-0.1372282E-05  (-0.1290702E-06)
 number of electron     275.9999997 magnetization      42.3370460
 augmentation part      112.1690748 magnetization      29.3840598

 Broyden mixing:
  rms(total) = 0.48736E-03    rms(broyden)= 0.48736E-03
  rms(prec ) = 0.50825E-03
  weight for this iteration     100.00

 eigenvalues of (default mixing * dielectric matrix)
  average eigenvalue GAMMA=   1.4880
  6.7402  2.9966  2.6264  2.1967  1.2355  1.2355  1.0244  1.0244  0.3782  0.8744
  0.8744  0.7346  0.7346  0.7417  0.6099  0.6341  0.6341

 Free energy of the ion-electron system (eV)
  ---------------------------------------------------
  alpha Z        PSCENC =      1362.55286497
  Ewald energy   TEWEN  =    -25513.06237826
  -Hartree energ DENC   =    -10007.69527302
  -exchange      EXHF   =         0.00000000
  -V(xc)+E(xc)   XCENC  =      1356.94957712
  PAW double counting   =     35790.68018486   -36954.00647537
  entropy T*S    EENTRO =         0.00000000
  eigenvalues    EBANDS =     -3528.73156417
  atomic energy  EATOM  =     37271.85088881
  Solvation  Ediel_sol  =         0.00000000
  ---------------------------------------------------
  free energy    TOTEN  =      -221.46217507 eV

  energy without entropy =     -221.46217507  energy(sigma->0) =     -221.46217507


--------------------------------------------------------------------------------------------------------




--------------------------------------- Iteration      1(  23)  ---------------------------------------


    POTLOK:  cpu time    0.1773: real time    0.2000
    SETDIJ:  cpu time    0.0183: real time    0.0184
     EDDAV:  cpu time   21.6922: real time   21.7469
 BZINTS: Fermi energy:  6.181497;276.000000 electrons
         Band energy:***********;  BLOECHL correction: -0.032971
       DOS:  cpu time    0.0521: real time    0.0522
    CHARGE:  cpu time    1.0802: real time    1.0829
    MIXING:  cpu time    0.0064: real time    0.0064
    --------------------------------------------
      LOOP:  cpu time   23.0265: real time   23.1068

 eigenvalue-minimisations  :  9012
 total energy-change (2. order) : 0.6766495E-06  (-0.2168839E-07)
 number of electron     275.9999997 magnetization      42.3377258
 augmentation part      112.1693238 magnetization      29.3845360

 Broyden mixing:
  rms(total) = 0.12385E-03    rms(broyden)= 0.12385E-03
  rms(prec ) = 0.12803E-03
  weight for this iteration     100.00

 eigenvalues of (default mixing * dielectric matrix)
  average eigenvalue GAMMA=   1.4856
  6.7355  3.0101  2.7052  2.2598  1.4049  1.4049  0.3782  1.0339  1.0339  0.9556
  0.9556  0.7409  0.7409  0.7843  0.6837  0.6837  0.6147  0.6147

 Free energy of the ion-electron system (eV)
  ---------------------------------------------------
  alpha Z        PSCENC =      1362.55286497
  Ewald energy   TEWEN  =    -25513.06237826
  -Hartree energ DENC   =    -10007.67991477
  -exchange      EXHF   =         0.00000000
  -V(xc)+E(xc)   XCENC  =      1356.95043190
  PAW double counting   =     35790.87771242   -36954.20734119
  entropy T*S    EENTRO =         0.00000000
  eigenvalues    EBANDS =     -3528.74443827
  atomic energy  EATOM  =     37271.85088881
  Solvation  Ediel_sol  =         0.00000000
  ---------------------------------------------------
  free energy    TOTEN  =      -221.46217439 eV

  energy without entropy =     -221.46217439  energy(sigma->0) =     -221.46217439


--------------------------------------------------------------------------------------------------------




--------------------------------------- Iteration      1(  24)  ---------------------------------------


    POTLOK:  cpu time    0.1743: real time    0.1750
    SETDIJ:  cpu time    0.0183: real time    0.0184
     EDDAV:  cpu time   17.2949: real time   17.3385
 BZINTS: Fermi energy:  6.181502;276.000000 electrons
         Band energy:***********;  BLOECHL correction: -0.032970
       DOS:  cpu time    0.0524: real time    0.0526
    CHARGE:  cpu time    1.1142: real time    1.1170
    MIXING:  cpu time    0.0067: real time    0.0067
    --------------------------------------------
      LOOP:  cpu time   18.6608: real time   18.7081

 eigenvalue-minimisations  :  6432
 total energy-change (2. order) : 0.8186034E-06  (-0.6455751E-08)
 number of electron     275.9999997 magnetization      42.3379157
 augmentation part      112.1693114 magnetization      29.3845950

 Broyden mixing:
  rms(total) = 0.55666E-04    rms(broyden)= 0.55665E-04
  rms(prec ) = 0.59468E-04
  weight for this iteration     100.00

 eigenvalues of (default mixing * dielectric matrix)
[...]
  0.000  -0.002  -0.000  -0.000  -0.001   0.000  -0.000   0.000  -0.006  -0.000   0.000   0.000  -0.000   0.009   0.000  -0.000
 total augmentation occupancy for first ion, spin component:           2
 -0.003   0.000  -0.000  -0.010  -0.000   0.000   0.002   0.001  -0.000   0.000   0.000  -0.003  -0.002   0.000  -0.000  -0.000
 -0.000  -0.003   0.000  -0.000  -0.010   0.000  -0.000   0.000  -0.001  -0.000   0.000   0.000   0.000   0.002  -0.000  -0.000
  0.000   0.000  -0.003  -0.000   0.000  -0.010   0.000  -0.000   0.000   0.001  -0.002  -0.000   0.000  -0.000  -0.002   0.003
 -0.010   0.000  -0.000   0.021   0.000   0.000  -0.085  -0.050  -0.000   0.002   0.013   0.049   0.032   0.000  -0.001  -0.008
 -0.000  -0.010  -0.000  -0.000   0.017  -0.000   0.000   0.000   0.076  -0.000  -0.000   0.000  -0.000  -0.043   0.000   0.000
  0.000  -0.000  -0.010   0.000   0.000   0.021   0.013  -0.002  -0.000  -0.050   0.085  -0.008   0.001   0.000   0.032  -0.049
  0.002  -0.000   0.000  -0.085   0.000   0.013   4.295   0.577  -0.000  -0.179   0.000  -2.428  -0.471  -0.000   0.166   0.002
  0.001   0.000  -0.000  -0.050   0.000  -0.002   0.577   5.022   0.000   0.000  -0.179  -0.469  -3.026  -0.000   0.003   0.166
 -0.000  -0.001   0.000  -0.000   0.076  -0.000  -0.000   0.000   4.387   0.000  -0.000   0.000  -0.000  -2.383  -0.000   0.000
  0.000  -0.000   0.001   0.002   0.000  -0.050  -0.179  -0.000   0.000   5.022  -0.577   0.166  -0.003  -0.000  -3.026   0.469
  0.000   0.000  -0.002   0.013  -0.000   0.085  -0.000  -0.179  -0.000  -0.577   4.295  -0.002   0.166   0.000   0.471  -2.428
 -0.003   0.000  -0.000   0.049  -0.000  -0.008  -2.428  -0.469   0.000   0.166  -0.002   1.294   0.332  -0.000  -0.129   0.000
 -0.002   0.000   0.000   0.032  -0.000   0.001  -0.471  -3.026  -0.000  -0.003   0.166   0.332   1.751   0.000   0.000  -0.129
  0.000   0.002  -0.000   0.000  -0.043   0.000  -0.000  -0.000  -2.383  -0.000   0.000   0.000   0.000   1.231   0.000  -0.000
 -0.000  -0.000  -0.002  -0.001   0.000   0.032   0.166   0.003  -0.000  -3.026   0.471  -0.129  -0.000   0.000   1.751  -0.332
 -0.000  -0.000   0.003  -0.008   0.000  -0.049   0.002   0.166   0.000   0.469  -2.428   0.000  -0.129  -0.000  -0.332   1.294
  0.000   0.000  -0.000  -0.000   0.001  -0.000  -0.000  -0.000   0.044  -0.000  -0.000  -0.000   0.000  -0.022  -0.000   0.000
 -0.000   0.000  -0.000   0.000   0.001  -0.000   0.000   0.000   0.007   0.000  -0.000   0.000  -0.000  -0.005  -0.000   0.000


------------------------ aborting loop because EDIFF is reached ----------------------------------------


 


 total charge     
 
# of ion       s       p       d       tot
------------------------------------------
    1        0.284   6.340   5.852  12.476
    2        0.284   6.340   5.854  12.478
    3        0.284   6.340   5.862  12.486
    4        0.284   6.340   5.852  12.475
    5        0.283   6.340   5.854  12.478
    6        0.284   6.340   5.865  12.489
    7        0.284   6.340   5.851  12.474
    8        0.284   6.340   5.853  12.477
    9        0.283   6.340   5.854  12.477
   10        0.283   6.340   5.868  12.492
   11        0.283   6.340   5.865  12.489
   12        0.283   6.340   5.857  12.480
   13        1.567   3.416   0.000   4.983
   14        1.567   3.415   0.000   4.983
   15        1.567   3.416   0.000   4.983
   16        1.567   3.417   0.000   4.984
   17        1.567   3.417   0.000   4.984
   18        1.567   3.416   0.000   4.983
   19        1.566   3.403   0.000   4.970
   20        1.566   3.403   0.000   4.969
   21        1.566   3.404   0.000   4.970
   22        1.566   3.404   0.000   4.970
   23        1.566   3.404   0.000   4.970
   24        1.566   3.404   0.000   4.970
   25        1.568   3.417   0.000   4.985
   26        1.568   3.416   0.000   4.984
   27        1.568   3.418   0.000   4.986
   28        1.568   3.419   0.000   4.987
   29        1.568   3.419   0.000   4.987
   30        1.568   3.418   0.000   4.986
--------------------------------------------------
tot         31.610 137.505  70.288 239.403
 


 magnetization (x)
 
# of ion       s       p       d       tot
------------------------------------------
    1        0.024   0.036   3.141   3.201
    2        0.024   0.036   3.138   3.198
    3        0.025   0.036   3.135   3.195
    4        0.025   0.036   3.140   3.201
    5        0.025   0.036   3.140   3.201
    6        0.025   0.036   3.132   3.193
    7        0.024   0.036   3.125   3.185
    8        0.024   0.036   3.122   3.183
    9        0.025   0.036   3.123   3.183
   10        0.025   0.036   3.117   3.177
   11        0.025   0.036   3.119   3.180
   12        0.025   0.036   3.123   3.183
   13        0.020   0.139   0.000   0.160
   14        0.020   0.139   0.000   0.159
   15        0.020   0.139   0.000   0.159
   16        0.020   0.140   0.000   0.160
   17        0.020   0.140   0.000   0.161
   18        0.020   0.139   0.000   0.160
   19        0.021   0.143   0.000   0.165
   20        0.021   0.143   0.000   0.164
   21        0.021   0.144   0.000   0.165
   22        0.021   0.144   0.000   0.165
   23        0.021   0.144   0.000   0.165
   24        0.021   0.144   0.000   0.166
   25        0.020   0.135   0.000   0.156
   26        0.020   0.135   0.000   0.155
   27        0.020   0.136   0.000   0.157
   28        0.020   0.137   0.000   0.158
   29        0.020   0.137   0.000   0.157
   30        0.020   0.137   0.000   0.157
--------------------------------------------------
tot          0.668   2.948  37.554  41.170
 
    CHARGE:  cpu time    1.0949: real time    1.0976
    FORLOC:  cpu time    0.0182: real time    0.0182
    FORNL :  cpu time    7.7097: real time    7.7292
    STRESS:  cpu time   23.0869: real time   23.1452
    FORCOR:  cpu time    0.1862: real time    0.1866
    FORHAR:  cpu time    0.0328: real time    0.0329
    MIXING:  cpu time    0.0070: real time    0.0070
    OFIELD:  cpu time    0.0001: real time    0.0001

  FORCE on cell =-STRESS in cart. coord.  units (eV):
  Direction    XX          YY          ZZ          XY          YZ          ZX
  --------------------------------------------------------------------------------------
  Alpha Z  1362.55286  1362.55286  1362.55286
  Ewald   -8201.75422 -8201.75360 -9109.63806     0.00000     0.00002    -0.00000
  Hartree  3503.89325  3503.89311  2999.88889    -0.00000     0.00001    -0.00000
  E(xc)   -1615.80749 -1615.80752 -1617.37150    -0.00002     0.00000    -0.00000
  Local    -165.05724  -165.05722  1230.78106    -0.00026    -0.00003     0.00000
  n-local  -743.14849  -742.03979  -744.62764    -4.16526     0.49368     0.11410
  augment  1844.62888  1844.62882  1846.55166     0.00022     0.00000    -0.00000
  Kinetic  4007.28841  4009.38424  4025.14654     7.65522    -1.99082    -5.04380
  Fock        0.00000     0.00000     0.00000     0.00000     0.00000     0.00000
  -------------------------------------------------------------------------------------
  Total      -5.80157    -5.80156    -6.71618     0.00000     0.00000     0.00000
  in kB     -30.77163   -30.77162   -35.62278     0.00000     0.00000     0.00000
  external pressure =      -32.39 kB  Pullay stress =        0.00 kB


 VOLUME and BASIS-vectors are now :
 -----------------------------------------------------------------------------
  energy-cutoff  :      940.00
  volume of cell :      302.07
      direct lattice vectors                 reciprocal lattice vectors
     5.035100000  0.000000000  0.000000000     0.198605787  0.114665118  0.000000000
    -2.517550000  4.360524000  0.000000000     0.000000000  0.229330236  0.000000000
     0.000000000  0.000000000 13.758100000     0.000000000  0.000000000  0.072684455

  length of vectors
     5.035100000  5.035099558 13.758100000     0.229330216  0.229330236  0.072684455


 FORCES acting on ions
    electron-ion (+dipol)            ewald-force                    non-local-force                 convergence-correction
 -----------------------------------------------------------------------------------------------
   0.156E-03 0.366E-03 -.126E+03   -.101E-02 0.523E-03 0.128E+03   0.434E-18 0.130E-17 -.289E+01   -.692E-08 0.448E-08 -.163E-04
   -.402E-03 0.580E-03 0.126E+03   0.101E-02 -.523E-03 -.128E+03   -.347E-17 0.434E-18 0.289E+01   0.887E-08 -.450E-08 0.163E-04
   -.135E-03 0.533E-03 -.126E+03   0.314E-02 -.187E-02 0.128E+03   -.434E-18 -.130E-17 -.289E+01   0.166E-06 -.960E-07 -.864E-05
   -.327E-03 0.645E-03 -.126E+03   -.220E-02 0.121E-02 0.128E+03   0.867E-18 -.173E-17 -.289E+01   -.156E-06 0.902E-07 -.604E-05
   0.815E-04 0.301E-03 0.126E+03   0.220E-02 -.121E-02 -.128E+03   0.000E+00 -.260E-17 0.289E+01   0.158E-06 -.902E-07 0.604E-05
   -.111E-03 0.412E-03 0.126E+03   -.314E-02 0.187E-02 -.128E+03   -.260E-17 0.217E-17 0.289E+01   -.164E-06 0.959E-07 0.864E-05
   0.566E-03 -.105E-02 0.126E+03   0.964E-03 -.523E-03 -.128E+03   -.217E-18 -.173E-17 0.289E+01   0.106E-07 -.713E-08 0.163E-04
   0.104E-02 -.127E-02 -.126E+03   -.964E-03 0.523E-03 0.128E+03   0.325E-17 0.173E-17 -.289E+01   -.537E-08 0.160E-08 -.163E-04
   0.105E-02 -.133E-02 0.126E+03   0.215E-02 -.121E-02 -.128E+03   -.867E-18 0.173E-17 0.289E+01   0.160E-06 -.937E-07 0.604E-05
   0.750E-03 -.110E-02 -.126E+03   0.319E-02 -.187E-02 0.128E+03   0.347E-17 -.217E-17 -.289E+01   0.168E-06 -.979E-07 -.864E-05
   0.857E-03 -.122E-02 0.126E+03   -.319E-02 0.187E-02 -.128E+03   0.542E-17 0.173E-17 0.289E+01   -.163E-06 0.923E-07 0.864E-05
   0.558E-03 -.988E-03 -.126E+03   -.215E-02 0.121E-02 0.128E+03   0.195E-17 0.217E-17 -.289E+01   -.154E-06 0.882E-07 -.604E-05
   -.424E+02 -.134E-02 0.216E-03   0.418E+02 0.106E-02 -.470E-03   0.678E+00 -.217E-17 -.314E-17   -.288E-04 0.384E-07 -.353E-08
   0.424E+02 -.869E-04 -.337E-03   -.418E+02 -.106E-02 0.470E-03   -.678E+00 0.163E-17 0.293E-17   0.288E-04 -.419E-07 0.159E-08
   -.424E+02 -.319E-02 -.583E-02   0.418E+02 0.570E-03 -.997E-03   0.678E+00 -.813E-18 -.412E-17   -.288E-04 -.358E-07 -.230E-05
   -.424E+02 0.239E-02 0.543E-02   0.418E+02 -.163E-02 0.147E-02   0.678E+00 -.206E-17 -.282E-17   -.287E-04 -.761E-08 0.231E-05
   0.424E+02 -.382E-02 -.555E-02   -.418E+02 0.163E-02 -.147E-02   -.678E+00 -.108E-18 -.542E-17   0.287E-04 0.413E-08 -.231E-05
   0.424E+02 0.176E-02 0.571E-02   -.418E+02 -.570E-03 0.997E-03   -.678E+00 -.244E-17 0.206E-17   0.288E-04 0.323E-07 0.230E-05
   0.212E+02 -.367E+02 -.308E-03   -.209E+02 0.362E+02 0.438E-03   -.339E+00 0.587E+00 0.434E-17   0.144E-04 -.249E-04 0.160E-08
   -.212E+02 0.367E+02 0.195E-03   0.209E+02 -.362E+02 -.438E-03   0.339E+00 -.587E+00 0.434E-17   -.144E-04 0.249E-04 -.344E-08
   0.212E+02 -.367E+02 -.552E-02   -.209E+02 0.362E+02 -.150E-02   -.339E+00 0.587E+00 0.347E-17   0.144E-04 -.249E-04 -.231E-05
   0.212E+02 -.367E+02 0.574E-02   -.209E+02 0.362E+02 0.964E-03   -.339E+00 0.587E+00 0.434E-17   0.144E-04 -.249E-04 0.230E-05
   -.212E+02 0.367E+02 -.585E-02   0.209E+02 -.362E+02 -.964E-03   0.339E+00 -.587E+00 0.104E-16   -.144E-04 0.249E-04 -.230E-05
   -.212E+02 0.367E+02 0.541E-02   0.209E+02 -.362E+02 0.150E-02   0.339E+00 -.587E+00 0.434E-17   -.144E-04 0.249E-04 0.231E-05
   0.212E+02 0.367E+02 0.937E-04   -.209E+02 -.362E+02 0.322E-04   -.339E+00 -.587E+00 -.694E-17   0.144E-04 0.249E-04 0.188E-08
   -.212E+02 -.367E+02 0.144E-03   0.209E+02 0.362E+02 -.322E-04   0.339E+00 0.587E+00 -.130E-17   -.144E-04 -.249E-04 0.179E-08
   0.212E+02 0.367E+02 -.407E-02   -.209E+02 -.362E+02 -.303E-02   -.339E+00 -.587E+00 -.434E-18   0.144E-04 0.249E-04 -.231E-05
   -.212E+02 -.367E+02 -.402E-02   0.209E+02 0.362E+02 -.310E-02   0.339E+00 0.587E+00 -.130E-17   -.143E-04 -.250E-04 -.231E-05
   0.212E+02 0.367E+02 0.426E-02   -.209E+02 -.362E+02 0.310E-02   -.339E+00 -.587E+00 -.434E-18   0.143E-04 0.250E-04 0.231E-05
   -.212E+02 -.367E+02 0.431E-02   0.209E+02 0.362E+02 0.303E-02   0.339E+00 0.587E+00 -.434E-17   -.144E-04 -.249E-04 0.231E-05
 -----------------------------------------------------------------------------------------------
   0.150E-01 -.165E-01 -.111E-04   -.995E-13 -.995E-13 -.192E-12   0.555E-15 0.000E+00 -.882E-15   0.392E-07 -.347E-07 -.324E-09
 
 
 POSITION                                       TOTAL-FORCE (eV/Angst)
 -----------------------------------------------------------------------------------
      0.00000      0.00000      4.88853         0.000000      0.000000     -0.926969
      0.00000      0.00000      8.86957         0.000000      0.000000      0.926969
     -0.00000      2.90702      0.30250         0.000000      0.000000     -0.926969
      2.51755      1.45351      9.47456         0.000000      0.000000     -0.926969
     -0.00000      2.90702      4.28354         0.000000      0.000000      0.926969
      2.51755      1.45351     13.45560         0.000000      0.000000      0.926969
      0.00000      0.00000      1.99052         0.000000      0.000000      0.926969
      0.00000      0.00000     11.76758         0.000000      0.000000     -0.926969
     -0.00000      2.90702     11.16259         0.000000      0.000000      0.926969
     -0.00000      2.90702      7.18155         0.000000      0.000000     -0.926969
      2.51755      1.45351      6.57655         0.000000      0.000000      0.926969
      2.51755      1.45351      2.59551         0.000000      0.000000     -0.926969
      1.54165      0.00000      3.43953         0.086239      0.000000     -0.000000
      3.49345      0.00000     10.31858        -0.086239      0.000000     -0.000000
      1.54164      2.90702     12.61160         0.086239      0.000000     -0.000000
      4.05920      1.45351      8.02555         0.086239      0.000000     -0.000000
     -1.54165      2.90702      5.73255        -0.086239      0.000000     -0.000000
      0.97591      1.45351      1.14650        -0.086239      0.000000     -0.000000
     -0.77082      1.33511      3.43953        -0.043119      0.074685     -0.000000
     -1.74673      3.02542     10.31858         0.043119     -0.074685     -0.000000
     -0.77083      4.24212     12.61160        -0.043119      0.074685     -0.000000
      1.74673      2.78861      8.02555        -0.043119      0.074685     -0.000000
      0.77082      1.57191      5.73255         0.043119     -0.074685     -0.000000
      3.28838      0.11840      1.14650         0.043119     -0.074685     -0.000000
      1.74673      3.02542      3.43953        -0.043119     -0.074685     -0.000000
      0.77082      1.33511     10.31858         0.043119      0.074685     -0.000000
     -0.77083      1.57191     12.61160        -0.043119     -0.074685     -0.000000
      0.77082      4.24212      5.73255         0.043119      0.074685     -0.000000
      1.74673      0.11840      8.02555        -0.043119     -0.074685     -0.000000
      3.28838      2.78861      1.14650         0.043119      0.074685     -0.000000
 -----------------------------------------------------------------------------------
    total drift:                                0.015003     -0.016540     -0.000011


--------------------------------------------------------------------------------------------------------



  FREE ENERGIE OF THE ION-ELECTRON SYSTEM (eV)
  ---------------------------------------------------
  free  energy   TOTEN  =      -221.46217358 eV

  energy  without entropy=     -221.46217358  energy(sigma->0) =     -221.46217358
 


--------------------------------------------------------------------------------------------------------


    POTLOK:  cpu time    0.1948: real time    0.1954


--------------------------------------------------------------------------------------------------------


     LOOP+:  cpu time  722.9716: real time  724.8758
    4ORBIT:  cpu time    0.0000: real time    0.0000
 


 total charge     
 
# of ion       s       p       d       tot
------------------------------------------
    1        0.284   6.340   5.852  12.476
    2        0.284   6.340   5.854  12.478
    3        0.284   6.340   5.862  12.486
    4        0.284   6.340   5.852  12.475
    5        0.283   6.340   5.854  12.478
    6        0.284   6.340   5.865  12.489
    7        0.284   6.340   5.851  12.474
    8        0.284   6.340   5.853  12.477
    9        0.283   6.340   5.854  12.477
   10        0.283   6.340   5.868  12.492
   11        0.283   6.340   5.865  12.489
   12        0.283   6.340   5.857  12.480
   13        1.567   3.416   0.000   4.983
   14        1.567   3.415   0.000   4.983
   15        1.567   3.416   0.000   4.983
   16        1.567   3.417   0.000   4.984
   17        1.567   3.417   0.000   4.984
   18        1.567   3.416   0.000   4.983
   19        1.566   3.403   0.000   4.970
   20        1.566   3.403   0.000   4.969
   21        1.566   3.404   0.000   4.970
   22        1.566   3.404   0.000   4.970
   23        1.566   3.404   0.000   4.970
   24        1.566   3.404   0.000   4.970
   25        1.568   3.417   0.000   4.985
   26        1.568   3.416   0.000   4.984
   27        1.568   3.418   0.000   4.986
   28        1.568   3.419   0.000   4.987
   29        1.568   3.419   0.000   4.987
   30        1.568   3.418   0.000   4.986
--------------------------------------------------
tot         31.610 137.505  70.288 239.403
 


 magnetization (x)
 
# of ion       s       p       d       tot
------------------------------------------
    1        0.024   0.036   3.141   3.201
    2        0.024   0.036   3.138   3.198
    3        0.025   0.036   3.135   3.195
    4        0.025   0.036   3.140   3.201
    5        0.025   0.036   3.140   3.201
    6        0.025   0.036   3.132   3.193
    7        0.024   0.036   3.125   3.185
    8        0.024   0.036   3.122   3.183
    9        0.025   0.036   3.123   3.183
   10        0.025   0.036   3.117   3.177
   11        0.025   0.036   3.119   3.180
   12        0.025   0.036   3.123   3.183
   13        0.020   0.139   0.000   0.160
   14        0.020   0.139   0.000   0.159
   15        0.020   0.139   0.000   0.159
   16        0.020   0.140   0.000   0.160
   17        0.020   0.140   0.000   0.161
   18        0.020   0.139   0.000   0.160
   19        0.021   0.143   0.000   0.165
   20        0.021   0.143   0.000   0.164
   21        0.021   0.144   0.000   0.165
   22        0.021   0.144   0.000   0.165
   23        0.021   0.144   0.000   0.165
   24        0.021   0.144   0.000   0.166
   25        0.020   0.135   0.000   0.156
   26        0.020   0.135   0.000   0.155
   27        0.020   0.136   0.000   0.157
   28        0.020   0.137   0.000   0.158
   29        0.020   0.137   0.000   0.157
   30        0.020   0.137   0.000   0.157
--------------------------------------------------
tot          0.668   2.948  37.554  41.170
 
 BZINTS: Fermi energy:  6.181492;276.000000 electrons
         Band energy:***********;  BLOECHL correction: -0.032970

 total amount of memory used by VASP MPI-rank0   144297. kBytes
=======================================================================

   base      :      30000. kBytes
   nonlr-proj:      11376. kBytes
   fftplans  :       7249. kBytes
   grid      :      18564. kBytes
   one-center:        248. kBytes
   wavefun   :      76860. kBytes
 
  
  
 General timing and accounting informations for this job:
 ========================================================
  
                  Total CPU time used (sec):      735.178
                            User time (sec):      733.334
                          System time (sec):        1.843
                         Elapsed time (sec):      737.208
  
                   Maximum memory used (kb):      191308.
                   Average memory used (kb):           0.
  
                          Minor page faults:        75374
                          Major page faults:            0
                 Voluntary context switches:          315
