 vasp.5.4.4.18Apr17-6-g9f103f2a35 (build Apr 28 2018 00:24:27) complex          
  
 executed on             LinuxIFC date 2021.03.31  13:54:36
 running on    8 total cores
 distrk:  each k-point on    8 cores,    1 groups
 distr:  one band on NCORES_PER_BAND=   4 cores,    2 groups


--------------------------------------------------------------------------------------------------------


 INCAR:
 POTCAR:    PAW_PBE Eu 23Dec2003                  
 POTCAR:    PAW_PBE O 08Apr2002                   
 POTCAR:    PAW_PBE Eu 23Dec2003                  
   VRHFIN =Eu : [core=Kr4d]                                                     
   LEXCH  = PE                                                                  
   EATOM  =  2619.8085 eV,  192.5505 Ry                                         
                                                                                
   TITEL  = PAW_PBE Eu 23Dec2003                                                
   LULTRA =        F    use ultrasoft PP ?                                      
   IUNSCR =        1    unscreen: 0-lin 1-nonlin 2-no                           
   RPACOR =    2.300    partial core radius                                     
   POMASS =  151.965; ZVAL   =   17.000    mass and valenz                      
   RCORE  =    2.800    outmost cutoff radius                                   
   RWIGS  =    2.800; RWIGS  =    1.482    wigner-seitz radius (au A)           
   ENMAX  =  249.668; ENMIN  =  187.251 eV                                      
   RCLOC  =    2.308    cutoff for local pot                                    
   LCOR   =        T    correct aug charges                                     
   LPAW   =        T    paw PP                                                  
   EAUG   =  549.628                                                            
   DEXC   =    0.000                                                            
   RMAX   =    2.870    core radius for proj-oper                               
   RAUG   =    1.300    factor for augmentation sphere                          
   RDEP   =    2.887    radius for radial grids                                 
   RDEPT  =    2.221    core radius for aug-charge                              
                                                                                
   Atomic configuration                                                         
   14 entries                                                                   
     n  l   j            E        occ.                                          
     1  0  0.50    -48354.7667   2.0000                                         
     2  0  0.50     -7939.6472   2.0000                                         
     2  1  1.50     -7072.6637   6.0000                                         
     3  0  0.50     -1747.1875   2.0000                                         
     3  1  1.50     -1477.5221   6.0000                                         
     3  2  2.50     -1117.4686  10.0000                                         
     4  0  0.50      -346.8682   2.0000                                         
     4  1  1.50      -258.1962   6.0000                                         
     4  2  2.50      -134.7724  10.0000                                         
     5  0  0.50       -44.6510   2.0000                                         
     6  0  0.50        -3.6227   2.0000                                         
     5  1  1.50       -23.7639   6.0000                                         
     5  2  2.50        -1.3130   0.0000                                         
     4  3  2.50        -2.7310   7.0000                                         
   Description                                                                  
     l       E           TYP  RCUT    TYP  RCUT                                 
     0    -44.6510453     23  2.400                                             
     0     -3.6226685     23  2.400                                             
     1    -23.7638687     23  2.400                                             
     1     27.2116520     23  2.400                                             
     2     -1.3129622     23  2.500                                             
     2     13.6058260     23  2.500                                             
     3     -2.7309948     23  2.800                                             
     3     -3.4014565     23  2.800                                             
  local pseudopotential read in
  partial core-charges read in
  partial kinetic energy density read in
  atomic valenz-charges read in
  non local Contribution for L=           0  read in
    real space projection operators read in
  non local Contribution for L=           0  read in
    real space projection operators read in
  non local Contribution for L=           1  read in
    real space projection operators read in
  non local Contribution for L=           1  read in
    real space projection operators read in
  non local Contribution for L=           2  read in
    real space projection operators read in
  non local Contribution for L=           2  read in
    real space projection operators read in
  non local Contribution for L=           3  read in
    real space projection operators read in
  non local Contribution for L=           3  read in
    real space projection operators read in
    PAW grid and wavefunctions read in
 
   number of l-projection  operators is LMAX  =           8
   number of lm-projection operators is LMMAX =          32
 
 POTCAR:    PAW_PBE O 08Apr2002                   
   VRHFIN =O: s2p4                                                              
   LEXCH  = PE                                                                  
   EATOM  =   432.3788 eV,   31.7789 Ry                                         
                                                                                
   TITEL  = PAW_PBE O 08Apr2002                                                 
   LULTRA =        F    use ultrasoft PP ?                                      
   IUNSCR =        1    unscreen: 0-lin 1-nonlin 2-no                           
   RPACOR =    1.200    partial core radius                                     
   POMASS =   16.000; ZVAL   =    6.000    mass and valenz                      
   RCORE  =    1.520    outmost cutoff radius                                   
   RWIGS  =    1.550; RWIGS  =    0.820    wigner-seitz radius (au A)           
   ENMAX  =  400.000; ENMIN  =  300.000 eV                                      
   ICORE  =        2    local potential                                         
   LCOR   =        T    correct aug charges                                     
   LPAW   =        T    paw PP                                                  
   EAUG   =  605.392                                                            
   DEXC   =    0.000                                                            
   RMAX   =    1.553    core radius for proj-oper                               
   RAUG   =    1.300    factor for augmentation sphere                          
   RDEP   =    1.550    radius for radial grids                                 
   RDEPT  =    1.329    core radius for aug-charge                              
                                                                                
   Atomic configuration                                                         
    4 entries                                                                   
     n  l   j            E        occ.                                          
     1  0  0.50      -514.6923   2.0000                                         
     2  0  0.50       -23.9615   2.0000                                         
     2  1  0.50        -9.0305   4.0000                                         
     3  2  1.50        -9.5241   0.0000                                         
   Description                                                                  
     l       E           TYP  RCUT    TYP  RCUT                                 
     0    -23.9615318     23  1.200                                             
     0     -9.5240782     23  1.200                                             
     1     -9.0304911     23  1.520                                             
     1      8.1634956     23  1.520                                             
     2     -9.5240782      7  1.500                                             
  local pseudopotential read in
  partial core-charges read in
  partial kinetic energy density read in
  kinetic energy density of atom read in
  atomic valenz-charges read in
  non local Contribution for L=           0  read in
    real space projection operators read in
  non local Contribution for L=           0  read in
    real space projection operators read in
  non local Contribution for L=           1  read in
    real space projection operators read in
  non local Contribution for L=           1  read in
    real space projection operators read in
    PAW grid and wavefunctions read in
 
   number of l-projection  operators is LMAX  =           4
   number of lm-projection operators is LMMAX =           8
 

 ----------------------------------------------------------------------------- 
|                                                                             |
|  ADVICE TO THIS USER RUNNING 'VASP/VAMP'   (HEAR YOUR MASTER'S VOICE ...):  |
|                                                                             |
|      You have a (more or less) 'small supercell' and for smaller cells      |
|      it is recommended  to use the reciprocal-space projection scheme!      |
|      The real space optimization is not  efficient for small cells and it   |
|      is also less accurate ...                                              |
|      Therefore set LREAL=.FALSE. in the  INCAR file                         |
|                                                                             |
 ----------------------------------------------------------------------------- 

 Optimization of the real space projectors (new method)

 maximal supplied QI-value         = 13.42
 optimisation between [QCUT,QGAM] = [ 11.67, 23.35] = [ 38.16,152.62] Ry 
 Optimized for a Real-space Cutoff    1.63 Angstroem

   l    n(q)    QCUT    max X(q) W(low)/X(q) W(high)/X(q)  e(spline) 
   0     11    11.673    10.400    0.14E-04    0.18E-05    0.24E-07
   0     11    11.673    10.768    0.21E-04    0.32E-05    0.49E-07
   1     11    11.673     4.094    0.40E-05    0.13E-04    0.93E-07
   1     11    11.673     4.009    0.11E-04    0.46E-04    0.33E-06
   2     10    11.673    29.030    0.79E-04    0.60E-04    0.70E-06
   2     10    11.673    19.941    0.80E-04    0.60E-04    0.71E-06
   3     10    11.673    88.889    0.23E-03    0.29E-03    0.30E-06
   3     10    11.673    76.102    0.23E-03    0.30E-03    0.30E-06
 Optimization of the real space projectors (new method)

 maximal supplied QI-value         = 24.76
 optimisation between [QCUT,QGAM] = [ 11.64, 23.27] = [ 37.91,151.63] Ry 
 Optimized for a Real-space Cutoff    1.14 Angstroem

   l    n(q)    QCUT    max X(q) W(low)/X(q) W(high)/X(q)  e(spline) 
   0      8    11.635    20.381    0.10E-03    0.33E-03    0.24E-06
   0      8    11.635    15.268    0.11E-03    0.35E-03    0.26E-06
   1      7    11.635     5.964    0.24E-03    0.31E-03    0.30E-06
   1      7    11.635     5.382    0.22E-03    0.25E-03    0.26E-06
  PAW_PBE Eu 23Dec2003                  :
 energy of atom  1       EATOM=-2619.8085
 kinetic energy error for atom=    0.0015 (will be added to EATOM!!)
  PAW_PBE O 08Apr2002                   :
 energy of atom  2       EATOM= -432.3788
 kinetic energy error for atom=    0.0208 (will be added to EATOM!!)
 
 
 POSCAR: Eu4 O4                                  
  positions in direct lattice
  velocities in cartesian coordinates
 exchange correlation table for  LEXCH =        8
   RHO(1)=    0.500       N(1)  =     2000
   RHO(2)=  100.500       N(2)  =     4000
 


--------------------------------------------------------------------------------------------------------


 ion  position               nearest neighbor table
   1  1.000  0.502  0.000-   6 2.53   6 2.53   5 2.54   5 2.54   8 2.55   8 2.55
   2  0.500  0.748  0.500-   5 2.53   5 2.53   6 2.54   6 2.54   7 2.55   7 2.55
   3  0.000  0.002  1.000-   8 2.53   8 2.53   7 2.54   7 2.54   6 2.55   6 2.55
   4  0.500  0.248  0.500-   7 2.53   7 2.53   8 2.54   8 2.54   5 2.55   5 2.55
   5  1.000  0.500  0.500-   2 2.53   2 2.53   1 2.54   1 2.54   4 2.55   4 2.55
   6  0.500  0.750  1.000-   1 2.53   1 2.53   2 2.54   2 2.54   3 2.55   3 2.55
   7  1.000  1.000  0.500-   4 2.53   4 2.53   3 2.54   3 2.54   2 2.55   2 2.55
   8  0.500  0.250  0.000-   3 2.53   3 2.53   4 2.54   4 2.54   1 2.55   1 2.55
 
  LATTYP: Found a triclinic cell.
 ALAT       =     8.0509678403
 B/A-ratio  =     0.4451654076
 C/A-ratio  =     0.6304763885
 COS(alpha) =     0.0000004082
 COS(beta)  =     0.0000041938
 COS(gamma) =     0.4451663389
  
  Lattice vectors:
  
 A1 = (   7.2092278191,  -2.0693069258,   2.9262751520)
 A2 = (   0.0000056234,  -2.0692191217,   2.9263419087)
 A3 = (  -0.0000548713,  -4.1445044452,  -2.9305804616)


Analysis of symmetry for initial positions (statically):
=====================================================================
 Subroutine PRICEL returns:
 Original cell was already a primitive cell.
 

 Routine SETGRP: Setting up the symmetry group for a 
 triclinic supercell.


 Subroutine GETGRP returns: Found  2 space group operations
 (whereof  1 operations were pure point group operations)
 out of a pool of  2 trial point group operations.


The static configuration has the point symmetry C_1 .
 The point group associated with its full space group is S_2 .


Analysis of symmetry for dynamics (positions and initial velocities):
=====================================================================
 Subroutine PRICEL returns:
 Original cell was already a primitive cell.
 

 Routine SETGRP: Setting up the symmetry group for a 
 triclinic supercell.


 Subroutine GETGRP returns: Found  2 space group operations
 (whereof  1 operations were pure point group operations)
 out of a pool of  2 trial point group operations.


The dynamic configuration has the point symmetry C_1 .
 The point group associated with its full space group is S_2 .


Analysis of structural, dynamic, and magnetic symmetry:
=====================================================================
 Subroutine PRICEL returns:
 Original cell was already a primitive cell.
 

 Routine SETGRP: Setting up the symmetry group for a 
 triclinic supercell.


 Subroutine GETGRP returns: Found  2 space group operations
 (whereof  1 operations were pure point group operations)
 out of a pool of  2 trial point group operations.


The magnetic configuration has the point symmetry C_1 .
 The point group associated with its full space group is S_2 .


 Subroutine INISYM returns: Found  2 space group operations
 (whereof  1 operations are pure point group operations),
 and found     1 'primitive' translations

 
 
 KPOINTS: pymatgen v2019.10.16 with grid density =

Automatic generation of k-mesh.
Space group operators:
 irot       det(A)        alpha          n_x          n_y          n_z        tau_x        tau_y        tau_z
    1     1.000000     0.000000     1.000000     0.000000     0.000000     0.000000     0.000000     0.000000
    2    -1.000000     0.000000     1.000000     0.000000     0.000000     0.500000     0.250000    -0.500000
 
 Subroutine IBZKPT returns following result:
 ===========================================
 
 Found    221 irreducible k-points:
 
 Following reciprocal coordinates:
            Coordinates               Weight
  0.000000  0.000000  0.000000      1.000000
  0.090909 -0.000000  0.000000      2.000000
  0.181818 -0.000000  0.000000      2.000000
  0.272727 -0.000000 -0.000000      2.000000
  0.363636 -0.000000  0.000000      2.000000
  0.454545 -0.000000  0.000000      2.000000
 -0.000000  0.200000  0.000000      2.000000
  0.090909  0.200000  0.000000      2.000000
  0.181818  0.200000  0.000000      2.000000
  0.272727  0.200000  0.000000      2.000000
  0.363636  0.200000  0.000000      2.000000
  0.454545  0.200000  0.000000      2.000000
 -0.454545  0.200000  0.000000      2.000000
 -0.363636  0.200000  0.000000      2.000000
 -0.272727  0.200000  0.000000      2.000000
 -0.181818  0.200000  0.000000      2.000000
 -0.090909  0.200000 -0.000000      2.000000
 -0.000000  0.400000  0.000000      2.000000
  0.090909  0.400000  0.000000      2.000000
  0.181818  0.400000  0.000000      2.000000
  0.272727  0.400000  0.000000      2.000000
  0.363636  0.400000  0.000000      2.000000
  0.454545  0.400000 -0.000000      2.000000
 -0.454545  0.400000  0.000000      2.000000
 -0.363636  0.400000  0.000000      2.000000
 -0.272727  0.400000  0.000000      2.000000
 -0.181818  0.400000 -0.000000      2.000000
 -0.090909  0.400000  0.000000      2.000000
  0.000000  0.000000  0.125000      2.000000
  0.090909 -0.000000  0.125000      2.000000
  0.181818 -0.000000  0.125000      2.000000
  0.272727  0.000000  0.125000      2.000000
  0.363636 -0.000000  0.125000      2.000000
  0.454545 -0.000000  0.125000      2.000000
 -0.454545  0.000000  0.125000      2.000000
 -0.363636  0.000000  0.125000      2.000000
 -0.272727  0.000000  0.125000      2.000000
 -0.181818  0.000000  0.125000      2.000000
 -0.090909  0.000000  0.125000      2.000000
  0.000000  0.200000  0.125000      2.000000
  0.090909  0.200000  0.125000      2.000000
  0.181818  0.200000  0.125000      2.000000
  0.272727  0.200000  0.125000      2.000000
  0.363636  0.200000  0.125000      2.000000
  0.454545  0.200000  0.125000      2.000000
 -0.454545  0.200000  0.125000      2.000000
 -0.363636  0.200000  0.125000      2.000000
 -0.272727  0.200000  0.125000      2.000000
 -0.181818  0.200000  0.125000      2.000000
 -0.090909  0.200000  0.125000      2.000000
  0.000000  0.400000  0.125000      2.000000
  0.090909  0.400000  0.125000      2.000000
  0.181818  0.400000  0.125000      2.000000
  0.272727  0.400000  0.125000      2.000000
  0.363636  0.400000  0.125000      2.000000
  0.454545  0.400000  0.125000      2.000000
 -0.454545  0.400000  0.125000      2.000000
 -0.363636  0.400000  0.125000      2.000000
 -0.272727  0.400000  0.125000      2.000000
 -0.181818  0.400000  0.125000      2.000000
 -0.090909  0.400000  0.125000      2.000000
  0.000000 -0.400000  0.125000      2.000000
  0.090909 -0.400000  0.125000      2.000000
  0.181818 -0.400000  0.125000      2.000000
  0.272727 -0.400000  0.125000      2.000000
  0.363636 -0.400000  0.125000      2.000000
  0.454545 -0.400000  0.125000      2.000000
 -0.454545 -0.400000  0.125000      2.000000
 -0.363636 -0.400000  0.125000      2.000000
 -0.272727 -0.400000  0.125000      2.000000
 -0.181818 -0.400000  0.125000      2.000000
 -0.090909 -0.400000  0.125000      2.000000
  0.000000 -0.200000  0.125000      2.000000
  0.090909 -0.200000  0.125000      2.000000
  0.181818 -0.200000  0.125000      2.000000
  0.272727 -0.200000  0.125000      2.000000
  0.363636 -0.200000  0.125000      2.000000
  0.454545 -0.200000  0.125000      2.000000
 -0.454545 -0.200000  0.125000      2.000000
 -0.363636 -0.200000  0.125000      2.000000
 -0.272727 -0.200000  0.125000      2.000000
 -0.181818 -0.200000  0.125000      2.000000
 -0.090909 -0.200000  0.125000      2.000000
  0.000000  0.000000  0.250000      2.000000
  0.090909  0.000000  0.250000      2.000000
  0.181818 -0.000000  0.250000      2.000000
  0.272727 -0.000000  0.250000      2.000000
  0.363636 -0.000000  0.250000      2.000000
  0.454545 -0.000000  0.250000      2.000000
 -0.454545  0.000000  0.250000      2.000000
 -0.363636  0.000000  0.250000      2.000000
 -0.272727  0.000000  0.250000      2.000000
 -0.181818  0.000000  0.250000      2.000000
 -0.090909  0.000000  0.250000      2.000000
  0.000000  0.200000  0.250000      2.000000
  0.090909  0.200000  0.250000      2.000000
  0.181818  0.200000  0.250000      2.000000
  0.272727  0.200000  0.250000      2.000000
  0.363636  0.200000  0.250000      2.000000
  0.454545  0.200000  0.250000      2.000000
 -0.454545  0.200000  0.250000      2.000000
 -0.363636  0.200000  0.250000      2.000000
 -0.272727  0.200000  0.250000      2.000000
 -0.181818  0.200000  0.250000      2.000000
 -0.090909  0.200000  0.250000      2.000000
  0.000000  0.400000  0.250000      2.000000
  0.090909  0.400000  0.250000      2.000000
  0.181818  0.400000  0.250000      2.000000
  0.272727  0.400000  0.250000      2.000000
  0.363636  0.400000  0.250000      2.000000
  0.454545  0.400000  0.250000      2.000000
 -0.454545  0.400000  0.250000      2.000000
 -0.363636  0.400000  0.250000      2.000000
 -0.272727  0.400000  0.250000      2.000000
 -0.181818  0.400000  0.250000      2.000000
 -0.090909  0.400000  0.250000      2.000000
  0.000000 -0.400000  0.250000      2.000000
  0.090909 -0.400000  0.250000      2.000000
  0.181818 -0.400000  0.250000      2.000000
  0.272727 -0.400000  0.250000      2.000000
  0.363636 -0.400000  0.250000      2.000000
  0.454545 -0.400000  0.250000      2.000000
 -0.454545 -0.400000  0.250000      2.000000
 -0.363636 -0.400000  0.250000      2.000000
 -0.272727 -0.400000  0.250000      2.000000
 -0.181818 -0.400000  0.250000      2.000000
 -0.090909 -0.400000  0.250000      2.000000
  0.000000 -0.200000  0.250000      2.000000
  0.090909 -0.200000  0.250000      2.000000
  0.181818 -0.200000  0.250000      2.000000
  0.272727 -0.200000  0.250000      2.000000
  0.363636 -0.200000  0.250000      2.000000
  0.454545 -0.200000  0.250000      2.000000
 -0.454545 -0.200000  0.250000      2.000000
 -0.363636 -0.200000  0.250000      2.000000
 -0.272727 -0.200000  0.250000      2.000000
 -0.181818 -0.200000  0.250000      2.000000
 -0.090909 -0.200000  0.250000      2.000000
  0.000000  0.000000  0.375000      2.000000
  0.090909  0.000000  0.375000      2.000000
  0.181818  0.000000  0.375000      2.000000
  0.272727 -0.000000  0.375000      2.000000
  0.363636 -0.000000  0.375000      2.000000
  0.454545 -0.000000  0.375000      2.000000
 -0.454545  0.000000  0.375000      2.000000
 -0.363636  0.000000  0.375000      2.000000
 -0.272727  0.000000  0.375000      2.000000
 -0.181818  0.000000  0.375000      2.000000
 -0.090909  0.000000  0.375000      2.000000
  0.000000  0.200000  0.375000      2.000000
  0.090909  0.200000  0.375000      2.000000
  0.181818  0.200000  0.375000      2.000000
  0.272727  0.200000  0.375000      2.000000
  0.363636  0.200000  0.375000      2.000000
  0.454545  0.200000  0.375000      2.000000
 -0.454545  0.200000  0.375000      2.000000
 -0.363636  0.200000  0.375000      2.000000
 -0.272727  0.200000  0.375000      2.000000
 -0.181818  0.200000  0.375000      2.000000
 -0.090909  0.200000  0.375000      2.000000
  0.000000  0.400000  0.375000      2.000000
  0.090909  0.400000  0.375000      2.000000
  0.181818  0.400000  0.375000      2.000000
  0.272727  0.400000  0.375000      2.000000
  0.363636  0.400000  0.375000      2.000000
  0.454545  0.400000  0.375000      2.000000
 -0.454545  0.400000  0.375000      2.000000
 -0.363636  0.400000  0.375000      2.000000
 -0.272727  0.400000  0.375000      2.000000
 -0.181818  0.400000  0.375000      2.000000
 -0.090909  0.400000  0.375000      2.000000
  0.000000 -0.400000  0.375000      2.000000
  0.090909 -0.400000  0.375000      2.000000
  0.181818 -0.400000  0.375000      2.000000
  0.272727 -0.400000  0.375000      2.000000
  0.363636 -0.400000  0.375000      2.000000
  0.454545 -0.400000  0.375000      2.000000
 -0.454545 -0.400000  0.375000      2.000000
 -0.363636 -0.400000  0.375000      2.000000
 -0.272727 -0.400000  0.375000      2.000000
 -0.181818 -0.400000  0.375000      2.000000
 -0.090909 -0.400000  0.375000      2.000000
  0.000000 -0.200000  0.375000      2.000000
  0.090909 -0.200000  0.375000      2.000000
  0.181818 -0.200000  0.375000      2.000000
  0.272727 -0.200000  0.375000      2.000000
  0.363636 -0.200000  0.375000      2.000000
  0.454545 -0.200000  0.375000      2.000000
 -0.454545 -0.200000  0.375000      2.000000
 -0.363636 -0.200000  0.375000      2.000000
 -0.272727 -0.200000  0.375000      2.000000
 -0.181818 -0.200000  0.375000      2.000000
 -0.090909 -0.200000  0.375000      2.000000
  0.000000  0.000000  0.500000      1.000000
  0.090909  0.000000  0.500000      2.000000
  0.181818  0.000000  0.500000      2.000000
  0.272727  0.000000  0.500000      2.000000
  0.363636 -0.000000  0.500000      2.000000
  0.454545 -0.000000  0.500000      2.000000
  0.000000  0.200000  0.500000      2.000000
  0.090909  0.200000  0.500000      2.000000
  0.181818  0.200000  0.500000      2.000000
  0.272727  0.200000  0.500000      2.000000
  0.363636  0.200000  0.500000      2.000000
  0.454545  0.200000  0.500000      2.000000
 -0.454545  0.200000  0.500000      2.000000
 -0.363636  0.200000  0.500000      2.000000
 -0.272727  0.200000  0.500000      2.000000
 -0.181818  0.200000  0.500000      2.000000
 -0.090909  0.200000  0.500000      2.000000
  0.000000  0.400000  0.500000      2.000000
  0.090909  0.400000  0.500000      2.000000
  0.181818  0.400000  0.500000      2.000000
  0.272727  0.400000  0.500000      2.000000
  0.363636  0.400000  0.500000      2.000000
  0.454545  0.400000  0.500000      2.000000
 -0.454545  0.400000  0.500000      2.000000
 -0.363636  0.400000  0.500000      2.000000
 -0.272727  0.400000  0.500000      2.000000
 -0.181818  0.400000  0.500000      2.000000
 -0.090909  0.400000  0.500000      2.000000
 
 Following cartesian coordinates:
            Coordinates               Weight
  0.000000  0.000000  0.000000      1.000000
  0.000000 -0.014644  0.020711      2.000000
  0.000000 -0.029289  0.041421      2.000000
  0.000000 -0.043933  0.062132      2.000000
  0.000000 -0.058578  0.082843      2.000000
  0.000000 -0.073222  0.103553      2.000000
  0.027742 -0.000000 -0.000000      2.000000
  0.027742 -0.014645  0.020710      2.000000
  0.027742 -0.029289  0.041421      2.000000
  0.027742 -0.043934  0.062132      2.000000
  0.027742 -0.058578  0.082842      2.000000
  0.027742 -0.073223  0.103553      2.000000
  0.027742  0.073222 -0.103553      2.000000
  0.027742  0.058578 -0.082843      2.000000
  0.027742  0.043933 -0.062132      2.000000
  0.027742  0.029289 -0.041421      2.000000
  0.027742  0.014644 -0.020711      2.000000
  0.055484 -0.000000 -0.000000      2.000000
  0.055485 -0.014645  0.020710      2.000000
  0.055485 -0.029289  0.041421      2.000000
  0.055485 -0.043934  0.062132      2.000000
  0.055485 -0.058578  0.082842      2.000000
  0.055485 -0.073223  0.103553      2.000000
  0.055484  0.073222 -0.103554      2.000000
  0.055484  0.058578 -0.082843      2.000000
  0.055484  0.043933 -0.062132      2.000000
  0.055484  0.029289 -0.041422      2.000000
  0.055484  0.014644 -0.020711      2.000000
  0.000000  0.020107  0.014218      2.000000
  0.000000  0.005463  0.034928      2.000000
  0.000000 -0.009182  0.055639      2.000000
  0.000000 -0.023826  0.076350      2.000000
  0.000000 -0.038471  0.097060      2.000000
  0.000000 -0.053115  0.117771      2.000000
  0.000000  0.093330 -0.089335      2.000000
  0.000000  0.078685 -0.068625      2.000000
  0.000000  0.064041 -0.047914      2.000000
  0.000000  0.049396 -0.027204      2.000000
  0.000000  0.034752 -0.006493      2.000000
  0.027743  0.020107  0.014218      2.000000
  0.027743  0.005462  0.034928      2.000000
  0.027743 -0.009182  0.055639      2.000000
  0.027743 -0.023827  0.076349      2.000000
  0.027743 -0.038471  0.097060      2.000000
  0.027743 -0.053116  0.117771      2.000000
  0.027743  0.093329 -0.089336      2.000000
  0.027743  0.078685 -0.068625      2.000000
  0.027743  0.064040 -0.047914      2.000000
  0.027743  0.049396 -0.027204      2.000000
  0.027743  0.034751 -0.006493      2.000000
  0.055485  0.020107  0.014217      2.000000
  0.055485  0.005462  0.034928      2.000000
  0.055485 -0.009182  0.055639      2.000000
  0.055485 -0.023827  0.076349      2.000000
  0.055485 -0.038471  0.097060      2.000000
  0.055485 -0.053116  0.117771      2.000000
  0.055485  0.093329 -0.089336      2.000000
  0.055485  0.078685 -0.068625      2.000000
  0.055485  0.064040 -0.047915      2.000000
  0.055485  0.049396 -0.027204      2.000000
  0.055485  0.034751 -0.006493      2.000000
 -0.055484  0.020108  0.014218      2.000000
 -0.055484  0.005463  0.034929      2.000000
 -0.055484 -0.009181  0.055639      2.000000
 -0.055484 -0.023826  0.076350      2.000000
 -0.055484 -0.038470  0.097061      2.000000
 -0.055484 -0.053115  0.117771      2.000000
 -0.055484  0.093330 -0.089335      2.000000
 -0.055484  0.078686 -0.068624      2.000000
 -0.055484  0.064041 -0.047914      2.000000
 -0.055484  0.049397 -0.027203      2.000000
 -0.055484  0.034752 -0.006492      2.000000
 -0.027742  0.020107  0.014218      2.000000
 -0.027742  0.005463  0.034929      2.000000
 -0.027742 -0.009182  0.055639      2.000000
 -0.027742 -0.023826  0.076350      2.000000
 -0.027742 -0.038471  0.097060      2.000000
 -0.027742 -0.053115  0.117771      2.000000
 -0.027742  0.093330 -0.089335      2.000000
 -0.027742  0.078685 -0.068625      2.000000
 -0.027742  0.064041 -0.047914      2.000000
 -0.027742  0.049396 -0.027203      2.000000
 -0.027742  0.034752 -0.006493      2.000000
  0.000001  0.040214  0.028435      2.000000
  0.000001  0.025570  0.049146      2.000000
  0.000001  0.010925  0.069857      2.000000
  0.000001 -0.003719  0.090567      2.000000
  0.000001 -0.018364  0.111278      2.000000
  0.000001 -0.033008  0.131989      2.000000
  0.000001  0.113437 -0.075118      2.000000
  0.000001  0.098792 -0.054407      2.000000
  0.000001  0.084148 -0.033696      2.000000
  0.000001  0.069503 -0.012986      2.000000
  0.000001  0.054859  0.007725      2.000000
  0.027743  0.040214  0.028435      2.000000
  0.027743  0.025569  0.049146      2.000000
  0.027743  0.010925  0.069857      2.000000
  0.027743 -0.003720  0.090567      2.000000
  0.027743 -0.018364  0.111278      2.000000
  0.027743 -0.033009  0.131988      2.000000
  0.027743  0.113436 -0.075118      2.000000
  0.027743  0.098792 -0.054407      2.000000
  0.027743  0.084147 -0.033697      2.000000
  0.027743  0.069503 -0.012986      2.000000
  0.027743  0.054858  0.007725      2.000000
  0.055485  0.040214  0.028435      2.000000
  0.055485  0.025569  0.049146      2.000000
  0.055485  0.010925  0.069856      2.000000
  0.055485 -0.003720  0.090567      2.000000
  0.055485 -0.018364  0.111278      2.000000
  0.055485 -0.033009  0.131988      2.000000
  0.055485  0.113436 -0.075118      2.000000
  0.055485  0.098792 -0.054408      2.000000
  0.055485  0.084147 -0.033697      2.000000
  0.055485  0.069503 -0.012986      2.000000
  0.055485  0.054858  0.007724      2.000000
 -0.055484  0.040215  0.028436      2.000000
 -0.055484  0.025570  0.049147      2.000000
 -0.055484  0.010926  0.069857      2.000000
 -0.055484 -0.003719  0.090568      2.000000
 -0.055484 -0.018363  0.111278      2.000000
 -0.055484 -0.033008  0.131989      2.000000
 -0.055484  0.113437 -0.075117      2.000000
 -0.055484  0.098793 -0.054407      2.000000
 -0.055484  0.084148 -0.033696      2.000000
 -0.055484  0.069504 -0.012985      2.000000
 -0.055484  0.054859  0.007725      2.000000
 -0.027741  0.040214  0.028436      2.000000
 -0.027741  0.025570  0.049146      2.000000
 -0.027741  0.010925  0.069857      2.000000
 -0.027741 -0.003719  0.090568      2.000000
 -0.027741 -0.018364  0.111278      2.000000
 -0.027741 -0.033008  0.131989      2.000000
 -0.027742  0.113437 -0.075118      2.000000
 -0.027742  0.098792 -0.054407      2.000000
 -0.027742  0.084148 -0.033696      2.000000
 -0.027742  0.069503 -0.012986      2.000000
 -0.027742  0.054859  0.007725      2.000000
  0.000001  0.060321  0.042653      2.000000
  0.000001  0.045677  0.063364      2.000000
  0.000001  0.031032  0.084074      2.000000
  0.000001  0.016388  0.104785      2.000000
  0.000001  0.001743  0.125496      2.000000
  0.000001 -0.012901  0.146206      2.000000
  0.000001  0.133544 -0.060900      2.000000
  0.000001  0.118899 -0.040189      2.000000
  0.000001  0.104255 -0.019479      2.000000
  0.000001  0.089610  0.001232      2.000000
  0.000001  0.074966  0.021943      2.000000
  0.027743  0.060321  0.042653      2.000000
  0.027743  0.045676  0.063364      2.000000
  0.027743  0.031032  0.084074      2.000000
  0.027743  0.016387  0.104785      2.000000
  0.027743  0.001743  0.125496      2.000000
  0.027743 -0.012902  0.146206      2.000000
  0.027743  0.133543 -0.060900      2.000000
  0.027743  0.118899 -0.040190      2.000000
  0.027743  0.104254 -0.019479      2.000000
  0.027743  0.089610  0.001232      2.000000
  0.027743  0.074965  0.021942      2.000000
  0.055486  0.060321  0.042653      2.000000
  0.055486  0.045676  0.063363      2.000000
  0.055486  0.031032  0.084074      2.000000
  0.055486  0.016387  0.104785      2.000000
  0.055486  0.001743  0.125495      2.000000
  0.055486 -0.012902  0.146206      2.000000
  0.055486  0.133543 -0.060900      2.000000
  0.055486  0.118899 -0.040190      2.000000
  0.055486  0.104254 -0.019479      2.000000
  0.055486  0.089610  0.001231      2.000000
  0.055486  0.074965  0.021942      2.000000
 -0.055483  0.060322  0.042654      2.000000
 -0.055483  0.045677  0.063364      2.000000
 -0.055483  0.031033  0.084075      2.000000
 -0.055483  0.016388  0.104786      2.000000
 -0.055483  0.001744  0.125496      2.000000
 -0.055483 -0.012901  0.146207      2.000000
 -0.055483  0.133544 -0.060900      2.000000
 -0.055483  0.118900 -0.040189      2.000000
 -0.055483  0.104255 -0.019478      2.000000
 -0.055483  0.089611  0.001232      2.000000
 -0.055483  0.074966  0.021943      2.000000
 -0.027741  0.060321  0.042653      2.000000
 -0.027741  0.045677  0.063364      2.000000
 -0.027741  0.031032  0.084075      2.000000
 -0.027741  0.016388  0.104785      2.000000
 -0.027741  0.001743  0.125496      2.000000
 -0.027741 -0.012901  0.146207      2.000000
 -0.027741  0.133544 -0.060900      2.000000
 -0.027741  0.118899 -0.040189      2.000000
 -0.027741  0.104255 -0.019479      2.000000
 -0.027741  0.089610  0.001232      2.000000
 -0.027741  0.074966  0.021943      2.000000
  0.000002  0.080428  0.056871      1.000000
  0.000002  0.065784  0.077582      2.000000
  0.000002  0.051139  0.098292      2.000000
  0.000002  0.036495  0.119003      2.000000
  0.000002  0.021850  0.139713      2.000000
  0.000002  0.007206  0.160424      2.000000
  0.027744  0.080428  0.056871      2.000000
  0.027744  0.065784  0.077581      2.000000
  0.027744  0.051139  0.098292      2.000000
  0.027744  0.036495  0.119003      2.000000
  0.027744  0.021850  0.139713      2.000000
  0.027744  0.007206  0.160424      2.000000
  0.027744  0.153651 -0.046683      2.000000
  0.027744  0.139006 -0.025972      2.000000
  0.027744  0.124362 -0.005261      2.000000
  0.027744  0.109717  0.015449      2.000000
  0.027744  0.095073  0.036160      2.000000
  0.055486  0.080428  0.056870      2.000000
  0.055486  0.065783  0.077581      2.000000
  0.055486  0.051139  0.098292      2.000000
  0.055486  0.036494  0.119002      2.000000
  0.055486  0.021850  0.139713      2.000000
  0.055486  0.007205  0.160424      2.000000
  0.055486  0.153650 -0.046683      2.000000
  0.055486  0.139006 -0.025972      2.000000
  0.055486  0.124361 -0.005261      2.000000
  0.055486  0.109717  0.015449      2.000000
  0.055486  0.095072  0.036160      2.000000
 
 TETIRR: Found   1318 inequivalent tetrahedra from     2640


--------------------------------------------------------------------------------------------------------




 Dimension of arrays:
   k-points           NKPTS =    221   k-points in BZ     NKDIM =    221   number of bands    NBANDS=     56
   number of dos      NEDOS =    301   number of ions     NIONS =      8
   non local maximal  LDIM  =      8   non local SUM 2l+1 LMDIM =     32
   total plane-waves  NPLWV =  60480
   max r-space proj   IRMAX =   8372   max aug-charges    IRDMAX=  26559
   dimension x,y,z NGX =    28 NGY =   54 NGZ =   40
   dimension x,y,z NGXF=    56 NGYF=  108 NGZF=   80
   support grid    NGXF=    56 NGYF=  108 NGZF=   80
   ions per type =               4   4
   NGX,Y,Z   is equivalent  to a cutoff of  12.99, 12.45, 13.10 a.u.
   NGXF,Y,Z  is equivalent  to a cutoff of  25.98, 24.90, 26.20 a.u.

 SYSTEM =  unknown system                          
 POSCAR =  Eu4 O4                                  

 Startparameter for this run:
   NWRITE =      2    write-flag & timer
   PREC   = accura    normal or accurate (medium, high low for compatibility)
   ISTART =      0    job   : 0-new  1-cont  2-samecut
   ICHARG =      2    charge: 1-file 2-atom 10-const
   ISPIN  =      2    spin polarized calculation?
   LNONCOLLINEAR =      F non collinear calculations
   LSORBIT =      F    spin-orbit coupling
   INIWAV =      1    electr: 0-lowe 1-rand  2-diag
   LASPH  =      T    aspherical Exc in radial PAW
   METAGGA=      F    non-selfconsistent MetaGGA calc.

 Electronic Relaxation 1
   ENCUT  =  520.0 eV  38.22 Ry    6.18 a.u.   6.66 13.40  9.44*2*pi/ulx,y,z
   ENINI  =  520.0     initial cutoff
   ENAUG  =  605.4 eV  augmentation charge cutoff
   NELM   =    120;   NELMIN=  2; NELMDL=  0     # of ELM steps 
   EDIFF  = 0.1E-05   stopping-criterion for ELM
   LREAL  =      T    real-space projection
   NLSPLINE    = F    spline interpolate recip. space projectors
   LCOMPAT=      F    compatible to vasp.4.4
   GGA_COMPAT  = T    GGA compatible to vasp.4.4-vasp.4.6
   LMAXPAW     = -100 max onsite density
   LMAXMIX     =    4 max onsite mixed and CHGCAR
   VOSKOWN=      0    Vosko Wilk Nusair interpolation
   ROPT   =   -0.00025  -0.00025
 Ionic relaxation
   EDIFFG = 0.1E-04   stopping-criterion for IOM
   NSW    =      0    number of steps for IOM
   NBLOCK =      1;   KBLOCK =      1    inner block; outer block 
   IBRION =     -1    ionic relax: 0-MD 1-quasi-New 2-CG
   NFREE  =      0    steps in history (QN), initial steepest desc. (CG)
   ISIF   =      3    stress and relaxation
   IWAVPR =     10    prediction:  0-non 1-charg 2-wave 3-comb
   ISYM   =      2    0-nonsym 1-usesym 2-fastsym
   LCORR  =      T    Harris-Foulkes like correction to forces

   POTIM  = 0.5000    time-step for ionic-motion
   TEIN   =    0.0    initial temperature
   TEBEG  =    0.0;   TEEND  =   0.0 temperature during run
   SMASS  =  -3.00    Nose mass-parameter (am)
   estimated Nose-frequenzy (Omega)   =  0.10E-29 period in steps =****** mass=  -0.294E-27a.u.
   SCALEE = 1.0000    scale energy and forces
   NPACO  =    256;   APACO  = 16.0  distance and # of slots for P.C.
   PSTRESS=    0.0 pullay stress

  Mass of Ions in am
   POMASS = 151.97 16.00
  Ionic Valenz
   ZVAL   =  17.00  6.00
  Atomic Wigner-Seitz radii
   RWIGS  =  -1.00 -1.00
  virtual crystal weights 
   VCA    =   1.00  1.00
   NELECT =      92.0000    total number of electrons
   NUPDOWN=      -1.0000    fix difference up-down

 DOS related values:
   EMIN   =  10.00;   EMAX   =-10.00  energy-range for DOS
   EFERMI =   0.00
   ISMEAR =    -5;   SIGMA  =   0.05  broadening in eV -4-tet -1-fermi 0-gaus

 Electronic relaxation 2 (details)
   IALGO  =     38    algorithm
   LDIAG  =      T    sub-space diagonalisation (order eigenvalues)
   LSUBROT=      F    optimize rotation matrix (better conditioning)
   TURBO    =      0    0=normal 1=particle mesh
   IRESTART =      0    0=no restart 2=restart with 2 vectors
   NREBOOT  =      0    no. of reboots
   NMIN     =      0    reboot dimension
   EREF     =   0.00    reference energy to select bands
   IMIX   =      4    mixing-type and parameters
     AMIX     =   0.40;   BMIX     =  1.00
     AMIX_MAG =   1.60;   BMIX_MAG =  1.00
     AMIN     =   0.10
     WC   =   100.;   INIMIX=   1;  MIXPRE=   1;  MAXMIX= -45

 Intra band minimization:
   WEIMIN = 0.0000     energy-eigenvalue tresh-hold
   EBREAK =  0.45E-08  absolut break condition
   DEPER  =   0.30     relativ break condition  

   TIME   =   0.40     timestep for ELM

  volume/ion in A,a.u.               =      16.39       110.63
  Fermi-wavevector in a.u.,A,eV,Ry     =   1.454608  2.748810 28.788337  2.115883
  Thomas-Fermi vector in A             =   2.571739
 
 Write flags
   LWAVE        =      F    write WAVECAR
   LDOWNSAMPLE  =      F    k-point downsampling of WAVECAR
   LCHARG       =      F    write CHGCAR
   LVTOT        =      F    write LOCPOT, total local potential
   LVHAR        =      F    write LOCPOT, Hartree potential only
   LELF         =      F    write electronic localiz. function (ELF)
   LORBIT       =     11    0 simple, 1 ext, 2 COOP (PROOUT), +10 PAW based schemes


 Dipole corrections
   LMONO  =      F    monopole corrections only (constant potential shift)
   LDIPOL =      F    correct potential (dipole corrections)
   IDIPOL =      0    1-x, 2-y, 3-z, 4-all directions 
   EPSILON=  1.0000000 bulk dielectric constant

 Exchange correlation treatment:
   GGA     =    --    GGA type
   LEXCH   =     8    internal setting for exchange type
   VOSKOWN=      0    Vosko Wilk Nusair interpolation
   LHFCALC =     F    Hartree Fock is set to
   LHFONE  =     F    Hartree Fock one center treatment
   AEXX    =    0.0000 exact exchange contribution

 Linear response parameters
   LEPSILON=     F    determine dielectric tensor
   LRPA    =     F    only Hartree local field effects (RPA)
   LNABLA  =     F    use nabla operator in PAW spheres
   LVEL    =     F    velocity operator in full k-point grid
   LINTERFAST=   F  fast interpolation
   KINTER  =     0    interpolate to denser k-point grid
   CSHIFT  =0.1000    complex shift for real part using Kramers Kronig
   OMEGAMAX=  -1.0    maximum frequency
   DEG_THRESHOLD= 0.2000000E-02 threshold for treating states as degnerate
   RTIME   =   -0.100 relaxation time in fs
  (WPLASMAI=    0.000 imaginary part of plasma frequency in eV, 0.658/RTIME)
   DFIELD  = 0.0000000 0.0000000 0.0000000 field for delta impulse in time
 
 Orbital magnetization related:
   ORBITALMAG=     F  switch on orbital magnetization
   LCHIMAG   =     F  perturbation theory with respect to B field
   DQ        =  0.001000  dq finite difference perturbation B field
   LLRAUG    =     F  two centre corrections for induced B field



--------------------------------------------------------------------------------------------------------


 Static calculation
 charge density and potential will be updated during run
 spin polarized calculation
 Variant of blocked Davidson
 Davidson routine will perform the subspace rotation
 perform sub-space diagonalisation
    after iterative eigenvector-optimisation
 modified Broyden-mixing scheme, WC =      100.0
 initial mixing is a Kerker type mixing with AMIX =  0.4000 and BMIX =      1.0000
 Hartree-type preconditioning will be used
 using additional bands           10
 real space projection scheme for non local part
 use partial core corrections
 calculate Harris-corrections to forces 
   (improved forces if not selfconsistent)
 use gradient corrections 
 use of overlap-Matrix (Vanderbilt PP)
 Fermi weights with tetrahedron method with Bloechl corrections


--------------------------------------------------------------------------------------------------------


  energy-cutoff  :      520.00
  volume of cell :      131.15
      direct lattice vectors                 reciprocal lattice vectors
     0.000005623 -2.069219122  2.926341909     0.000000148 -0.161089499  0.227817032
     7.209222196 -0.000087804 -0.000066757     0.138711219 -0.000001099 -0.000001043
     0.000054871  4.144504445  2.930580462     0.000003012  0.160856512  0.113741791

  length of vectors
     3.584012380  7.209222196  5.075945128     0.279016893  0.138711219  0.197007646


 
 k-points in units of 2pi/SCALE and weight: pymatgen v2019.10.16 with grid density =
   0.00000000  0.00000000  0.00000000       0.002
   0.00000001 -0.01464450  0.02071064       0.005
   0.00000003 -0.02928900  0.04142128       0.005
   0.00000004 -0.04393350  0.06213192       0.005
   0.00000005 -0.05857800  0.08284256       0.005
   0.00000007 -0.07322250  0.10355320       0.005
   0.02774224 -0.00000022 -0.00000021       0.005
   0.02774226 -0.01464472  0.02071043       0.005
   0.02774227 -0.02928922  0.04142107       0.005
   0.02774228 -0.04393372  0.06213171       0.005
   0.02774230 -0.05857822  0.08284235       0.005
   0.02774231 -0.07322272  0.10355299       0.005
   0.02774218  0.07322228 -0.10355341       0.005
   0.02774219  0.05857778 -0.08284277       0.005
   0.02774220  0.04393328 -0.06213213       0.005
   0.02774222  0.02928878 -0.04142149       0.005
   0.02774223  0.01464428 -0.02071085       0.005
   0.05548449 -0.00000044 -0.00000042       0.005
   0.05548450 -0.01464494  0.02071022       0.005
   0.05548451 -0.02928944  0.04142086       0.005
   0.05548453 -0.04393394  0.06213150       0.005
   0.05548454 -0.05857844  0.08284214       0.005
   0.05548455 -0.07322294  0.10355278       0.005
   0.05548442  0.07322206 -0.10355361       0.005
   0.05548443  0.05857756 -0.08284297       0.005
   0.05548445  0.04393306 -0.06213234       0.005
   0.05548446  0.02928856 -0.04142170       0.005
   0.05548447  0.01464406 -0.02071106       0.005
   0.00000038  0.02010706  0.01421772       0.005
   0.00000039  0.00546256  0.03492836       0.005
   0.00000040 -0.00918194  0.05563900       0.005
   0.00000042 -0.02382644  0.07634964       0.005
   0.00000043 -0.03847094  0.09706028       0.005
   0.00000044 -0.05311544  0.11777092       0.005
   0.00000031  0.09332956 -0.08933547       0.005
   0.00000032  0.07868506 -0.06862483       0.005
   0.00000034  0.06404056 -0.04791419       0.005
   0.00000035  0.04939606 -0.02720355       0.005
   0.00000036  0.03475156 -0.00649292       0.005
   0.02774262  0.02010684  0.01421752       0.005
   0.02774263  0.00546234  0.03492815       0.005
   0.02774265 -0.00918216  0.05563879       0.005
   0.02774266 -0.02382666  0.07634943       0.005
   0.02774267 -0.03847116  0.09706007       0.005
   0.02774269 -0.05311566  0.11777071       0.005
   0.02774255  0.09332934 -0.08933568       0.005
   0.02774257  0.07868484 -0.06862504       0.005
   0.02774258  0.06404034 -0.04791440       0.005
   0.02774259  0.04939584 -0.02720376       0.005
   0.02774261  0.03475134 -0.00649312       0.005
   0.05548486  0.02010662  0.01421731       0.005
   0.05548488  0.00546212  0.03492795       0.005
   0.05548489 -0.00918238  0.05563859       0.005
   0.05548490 -0.02382688  0.07634922       0.005
   0.05548492 -0.03847138  0.09705986       0.005
   0.05548493 -0.05311587  0.11777050       0.005
   0.05548480  0.09332912 -0.08933589       0.005
   0.05548481  0.07868462 -0.06862525       0.005
   0.05548482  0.06404012 -0.04791461       0.005
   0.05548484  0.04939562 -0.02720397       0.005
   0.05548485  0.03475112 -0.00649333       0.005
  -0.05548411  0.02010750  0.01421814       0.005
  -0.05548410  0.00546300  0.03492878       0.005
  -0.05548408 -0.00918150  0.05563942       0.005
  -0.05548407 -0.02382600  0.07635006       0.005
  -0.05548406 -0.03847050  0.09706070       0.005
  -0.05548404 -0.05311500  0.11777134       0.005
  -0.05548418  0.09333000 -0.08933506       0.005
  -0.05548416  0.07868550 -0.06862442       0.005
  -0.05548415  0.06404100 -0.04791378       0.005
  -0.05548414  0.04939650 -0.02720314       0.005
  -0.05548412  0.03475200 -0.00649250       0.005
  -0.02774187  0.02010728  0.01421793       0.005
  -0.02774185  0.00546278  0.03492857       0.005
  -0.02774184 -0.00918172  0.05563921       0.005
  -0.02774183 -0.02382622  0.07634985       0.005
  -0.02774181 -0.03847072  0.09706049       0.005
  -0.02774180 -0.05311522  0.11777113       0.005
  -0.02774193  0.09332978 -0.08933526       0.005
  -0.02774192  0.07868528 -0.06862462       0.005
  -0.02774191  0.06404078 -0.04791399       0.005
  -0.02774189  0.04939628 -0.02720335       0.005
  -0.02774188  0.03475178 -0.00649271       0.005
   0.00000075  0.04021413  0.02843545       0.005
   0.00000077  0.02556963  0.04914609       0.005
   0.00000078  0.01092513  0.06985673       0.005
   0.00000079 -0.00371937  0.09056737       0.005
   0.00000081 -0.01836387  0.11127800       0.005
   0.00000082 -0.03300837  0.13198864       0.005
   0.00000069  0.11343663 -0.07511775       0.005
   0.00000070  0.09879213 -0.05440711       0.005
   0.00000071  0.08414763 -0.03369647       0.005
   0.00000073  0.06950313 -0.01298583       0.005
   0.00000074  0.05485863  0.00772481       0.005
   0.02774300  0.04021391  0.02843524       0.005
   0.02774301  0.02556941  0.04914588       0.005
   0.02774302  0.01092491  0.06985652       0.005
   0.02774304 -0.00371959  0.09056716       0.005
   0.02774305 -0.01836409  0.11127780       0.005
   0.02774306 -0.03300859  0.13198844       0.005
   0.02774293  0.11343641 -0.07511796       0.005
   0.02774294  0.09879191 -0.05440732       0.005
   0.02774296  0.08414741 -0.03369668       0.005
   0.02774297  0.06950291 -0.01298604       0.005
   0.02774298  0.05485841  0.00772460       0.005
   0.05548524  0.04021369  0.02843503       0.005
   0.05548525  0.02556919  0.04914567       0.005
   0.05548527  0.01092469  0.06985631       0.005
   0.05548528 -0.00371981  0.09056695       0.005
   0.05548529 -0.01836431  0.11127759       0.005
   0.05548531 -0.03300881  0.13198823       0.005
   0.05548517  0.11343619 -0.07511817       0.005
   0.05548519  0.09879169 -0.05440753       0.005
   0.05548520  0.08414719 -0.03369689       0.005
   0.05548521  0.06950269 -0.01298625       0.005
   0.05548523  0.05485819  0.00772439       0.005
  -0.05548373  0.04021457  0.02843587       0.005
  -0.05548372  0.02557007  0.04914650       0.005
  -0.05548371  0.01092557  0.06985714       0.005
  -0.05548369 -0.00371893  0.09056778       0.005
  -0.05548368 -0.01836343  0.11127842       0.005
  -0.05548367 -0.03300793  0.13198906       0.005
  -0.05548380  0.11343707 -0.07511733       0.005
  -0.05548379  0.09879257 -0.05440669       0.005
  -0.05548377  0.08414807 -0.03369605       0.005
  -0.05548376  0.06950357 -0.01298541       0.005
  -0.05548375  0.05485907  0.00772523       0.005
  -0.02774149  0.04021435  0.02843566       0.005
  -0.02774148  0.02556985  0.04914630       0.005
  -0.02774146  0.01092535  0.06985694       0.005
  -0.02774145 -0.00371915  0.09056757       0.005
  -0.02774144 -0.01836365  0.11127821       0.005
  -0.02774142 -0.03300815  0.13198885       0.005
  -0.02774156  0.11343685 -0.07511754       0.005
  -0.02774154  0.09879235 -0.05440690       0.005
  -0.02774153  0.08414785 -0.03369626       0.005
  -0.02774152  0.06950335 -0.01298562       0.005
  -0.02774150  0.05485885  0.00772502       0.005
   0.00000113  0.06032119  0.04265317       0.005
   0.00000114  0.04567669  0.06336381       0.005
   0.00000116  0.03103219  0.08407445       0.005
   0.00000117  0.01638769  0.10478509       0.005
   0.00000118  0.00174319  0.12549573       0.005
   0.00000120 -0.01290131  0.14620637       0.005
   0.00000106  0.13354369 -0.06090002       0.005
   0.00000108  0.11889919 -0.04018939       0.005
   0.00000109  0.10425469 -0.01947875       0.005
   0.00000110  0.08961019  0.00123189       0.005
   0.00000112  0.07496569  0.02194253       0.005
   0.02774337  0.06032097  0.04265296       0.005
   0.02774339  0.04567647  0.06336360       0.005
   0.02774340  0.03103197  0.08407424       0.005
   0.02774341  0.01638747  0.10478488       0.005
   0.02774343  0.00174297  0.12549552       0.005
   0.02774344 -0.01290153  0.14620616       0.005
   0.02774331  0.13354347 -0.06090023       0.005
   0.02774332  0.11889897 -0.04018959       0.005
   0.02774333  0.10425447 -0.01947895       0.005
   0.02774335  0.08960997  0.00123168       0.005
   0.02774336  0.07496547  0.02194232       0.005
   0.05548562  0.06032075  0.04265275       0.005
   0.05548563  0.04567625  0.06336339       0.005
   0.05548564  0.03103175  0.08407403       0.005
   0.05548566  0.01638725  0.10478467       0.005
   0.05548567  0.00174275  0.12549531       0.005
   0.05548568 -0.01290175  0.14620595       0.005
   0.05548555  0.13354325 -0.06090044       0.005
   0.05548556  0.11889875 -0.04018980       0.005
   0.05548558  0.10425425 -0.01947916       0.005
   0.05548559  0.08960975  0.00123148       0.005
   0.05548560  0.07496525  0.02194212       0.005
  -0.05548336  0.06032163  0.04265359       0.005
  -0.05548334  0.04567713  0.06336423       0.005
  -0.05548333  0.03103263  0.08407487       0.005
  -0.05548332  0.01638813  0.10478551       0.005
  -0.05548330  0.00174363  0.12549615       0.005
  -0.05548329 -0.01290087  0.14620679       0.005
  -0.05548343  0.13354413 -0.06089961       0.005
  -0.05548341  0.11889963 -0.04018897       0.005
  -0.05548340  0.10425513 -0.01947833       0.005
  -0.05548338  0.08961063  0.00123231       0.005
  -0.05548337  0.07496613  0.02194295       0.005
  -0.02774111  0.06032141  0.04265338       0.005
  -0.02774110  0.04567691  0.06336402       0.005
  -0.02774109  0.03103241  0.08407466       0.005
  -0.02774107  0.01638791  0.10478530       0.005
  -0.02774106  0.00174341  0.12549594       0.005
  -0.02774105 -0.01290109  0.14620658       0.005
  -0.02774118  0.13354391 -0.06089982       0.005
  -0.02774117  0.11889941 -0.04018918       0.005
  -0.02774115  0.10425491 -0.01947854       0.005
  -0.02774114  0.08961041  0.00123210       0.005
  -0.02774113  0.07496591  0.02194274       0.005
   0.00000151  0.08042826  0.05687090       0.002
   0.00000152  0.06578376  0.07758153       0.005
   0.00000153  0.05113926  0.09829217       0.005
   0.00000155  0.03649476  0.11900281       0.005
   0.00000156  0.02185026  0.13971345       0.005
   0.00000157  0.00720576  0.16042409       0.005
   0.02774375  0.08042804  0.05687069       0.005
   0.02774376  0.06578354  0.07758133       0.005
   0.02774378  0.05113904  0.09829197       0.005
   0.02774379  0.03649454  0.11900260       0.005
   0.02774380  0.02185004  0.13971324       0.005
   0.02774382  0.00720554  0.16042388       0.005
   0.02774368  0.15365054 -0.04668251       0.005
   0.02774370  0.13900604 -0.02597187       0.005
   0.02774371  0.12436154 -0.00526123       0.005
   0.02774372  0.10971704  0.01544941       0.005
   0.02774374  0.09507254  0.03616005       0.005
   0.05548599  0.08042782  0.05687048       0.005
   0.05548601  0.06578332  0.07758112       0.005
   0.05548602  0.05113882  0.09829176       0.005
   0.05548603  0.03649432  0.11900240       0.005
   0.05548605  0.02184982  0.13971304       0.005
   0.05548606  0.00720532  0.16042367       0.005
   0.05548593  0.15365032 -0.04668272       0.005
   0.05548594  0.13900582 -0.02597208       0.005
   0.05548595  0.12436132 -0.00526144       0.005
   0.05548597  0.10971682  0.01544920       0.005
   0.05548598  0.09507232  0.03615984       0.005
 
 k-points in reciprocal lattice and weights: pymatgen v2019.10.16 with grid density =
   0.00000000  0.00000000  0.00000000       0.002
   0.09090909 -0.00000000  0.00000000       0.005
   0.18181818 -0.00000000  0.00000000       0.005
   0.27272727 -0.00000000 -0.00000000       0.005
   0.36363636 -0.00000000  0.00000000       0.005
   0.45454545 -0.00000000  0.00000000       0.005
  -0.00000000  0.20000000  0.00000000       0.005
   0.09090909  0.20000000  0.00000000       0.005
   0.18181818  0.20000000  0.00000000       0.005
   0.27272727  0.20000000  0.00000000       0.005
   0.36363636  0.20000000  0.00000000       0.005
   0.45454545  0.20000000  0.00000000       0.005
  -0.45454545  0.20000000  0.00000000       0.005
  -0.36363636  0.20000000  0.00000000       0.005
  -0.27272727  0.20000000  0.00000000       0.005
  -0.18181818  0.20000000  0.00000000       0.005
  -0.09090909  0.20000000 -0.00000000       0.005
  -0.00000000  0.40000000  0.00000000       0.005
   0.09090909  0.40000000  0.00000000       0.005
   0.18181818  0.40000000  0.00000000       0.005
   0.27272727  0.40000000  0.00000000       0.005
   0.36363636  0.40000000  0.00000000       0.005
   0.45454545  0.40000000 -0.00000000       0.005
  -0.45454545  0.40000000  0.00000000       0.005
  -0.36363636  0.40000000  0.00000000       0.005
  -0.27272727  0.40000000  0.00000000       0.005
  -0.18181818  0.40000000 -0.00000000       0.005
  -0.09090909  0.40000000  0.00000000       0.005
   0.00000000  0.00000000  0.12500000       0.005
   0.09090909 -0.00000000  0.12500000       0.005
   0.18181818 -0.00000000  0.12500000       0.005
   0.27272727  0.00000000  0.12500000       0.005
   0.36363636 -0.00000000  0.12500000       0.005
   0.45454545 -0.00000000  0.12500000       0.005
  -0.45454545  0.00000000  0.12500000       0.005
  -0.36363636  0.00000000  0.12500000       0.005
  -0.27272727  0.00000000  0.12500000       0.005
  -0.18181818  0.00000000  0.12500000       0.005
  -0.09090909  0.00000000  0.12500000       0.005
   0.00000000  0.20000000  0.12500000       0.005
   0.09090909  0.20000000  0.12500000       0.005
   0.18181818  0.20000000  0.12500000       0.005
   0.27272727  0.20000000  0.12500000       0.005
   0.36363636  0.20000000  0.12500000       0.005
   0.45454545  0.20000000  0.12500000       0.005
  -0.45454545  0.20000000  0.12500000       0.005
  -0.36363636  0.20000000  0.12500000       0.005
  -0.27272727  0.20000000  0.12500000       0.005
  -0.18181818  0.20000000  0.12500000       0.005
  -0.09090909  0.20000000  0.12500000       0.005
   0.00000000  0.40000000  0.12500000       0.005
   0.09090909  0.40000000  0.12500000       0.005
   0.18181818  0.40000000  0.12500000       0.005
   0.27272727  0.40000000  0.12500000       0.005
   0.36363636  0.40000000  0.12500000       0.005
   0.45454545  0.40000000  0.12500000       0.005
  -0.45454545  0.40000000  0.12500000       0.005
  -0.36363636  0.40000000  0.12500000       0.005
  -0.27272727  0.40000000  0.12500000       0.005
  -0.18181818  0.40000000  0.12500000       0.005
  -0.09090909  0.40000000  0.12500000       0.005
   0.00000000 -0.40000000  0.12500000       0.005
   0.09090909 -0.40000000  0.12500000       0.005
   0.18181818 -0.40000000  0.12500000       0.005
   0.27272727 -0.40000000  0.12500000       0.005
   0.36363636 -0.40000000  0.12500000       0.005
   0.45454545 -0.40000000  0.12500000       0.005
  -0.45454545 -0.40000000  0.12500000       0.005
  -0.36363636 -0.40000000  0.12500000       0.005
  -0.27272727 -0.40000000  0.12500000       0.005
  -0.18181818 -0.40000000  0.12500000       0.005
  -0.09090909 -0.40000000  0.12500000       0.005
   0.00000000 -0.20000000  0.12500000       0.005
   0.09090909 -0.20000000  0.12500000       0.005
   0.18181818 -0.20000000  0.12500000       0.005
   0.27272727 -0.20000000  0.12500000       0.005
   0.36363636 -0.20000000  0.12500000       0.005
   0.45454545 -0.20000000  0.12500000       0.005
  -0.45454545 -0.20000000  0.12500000       0.005
  -0.36363636 -0.20000000  0.12500000       0.005
  -0.27272727 -0.20000000  0.12500000       0.005
  -0.18181818 -0.20000000  0.12500000       0.005
  -0.09090909 -0.20000000  0.12500000       0.005
   0.00000000  0.00000000  0.25000000       0.005
   0.09090909  0.00000000  0.25000000       0.005
   0.18181818 -0.00000000  0.25000000       0.005
   0.27272727 -0.00000000  0.25000000       0.005
   0.36363636 -0.00000000  0.25000000       0.005
   0.45454545 -0.00000000  0.25000000       0.005
  -0.45454545  0.00000000  0.25000000       0.005
  -0.36363636  0.00000000  0.25000000       0.005
  -0.27272727  0.00000000  0.25000000       0.005
  -0.18181818  0.00000000  0.25000000       0.005
  -0.09090909  0.00000000  0.25000000       0.005
   0.00000000  0.20000000  0.25000000       0.005
   0.09090909  0.20000000  0.25000000       0.005
   0.18181818  0.20000000  0.25000000       0.005
   0.27272727  0.20000000  0.25000000       0.005
   0.36363636  0.20000000  0.25000000       0.005
   0.45454545  0.20000000  0.25000000       0.005
  -0.45454545  0.20000000  0.25000000       0.005
  -0.36363636  0.20000000  0.25000000       0.005
  -0.27272727  0.20000000  0.25000000       0.005
  -0.18181818  0.20000000  0.25000000       0.005
  -0.09090909  0.20000000  0.25000000       0.005
   0.00000000  0.40000000  0.25000000       0.005
   0.09090909  0.40000000  0.25000000       0.005
   0.18181818  0.40000000  0.25000000       0.005
   0.27272727  0.40000000  0.25000000       0.005
   0.36363636  0.40000000  0.25000000       0.005
   0.45454545  0.40000000  0.25000000       0.005
  -0.45454545  0.40000000  0.25000000       0.005
  -0.36363636  0.40000000  0.25000000       0.005
  -0.27272727  0.40000000  0.25000000       0.005
  -0.18181818  0.40000000  0.25000000       0.005
  -0.09090909  0.40000000  0.25000000       0.005
   0.00000000 -0.40000000  0.25000000       0.005
   0.09090909 -0.40000000  0.25000000       0.005
   0.18181818 -0.40000000  0.25000000       0.005
   0.27272727 -0.40000000  0.25000000       0.005
   0.36363636 -0.40000000  0.25000000       0.005
   0.45454545 -0.40000000  0.25000000       0.005
  -0.45454545 -0.40000000  0.25000000       0.005
  -0.36363636 -0.40000000  0.25000000       0.005
  -0.27272727 -0.40000000  0.25000000       0.005
  -0.18181818 -0.40000000  0.25000000       0.005
  -0.09090909 -0.40000000  0.25000000       0.005
   0.00000000 -0.20000000  0.25000000       0.005
   0.09090909 -0.20000000  0.25000000       0.005
   0.18181818 -0.20000000  0.25000000       0.005
   0.27272727 -0.20000000  0.25000000       0.005
   0.36363636 -0.20000000  0.25000000       0.005
   0.45454545 -0.20000000  0.25000000       0.005
  -0.45454545 -0.20000000  0.25000000       0.005
  -0.36363636 -0.20000000  0.25000000       0.005
  -0.27272727 -0.20000000  0.25000000       0.005
  -0.18181818 -0.20000000  0.25000000       0.005
  -0.09090909 -0.20000000  0.25000000       0.005
   0.00000000  0.00000000  0.37500000       0.005
   0.09090909  0.00000000  0.37500000       0.005
   0.18181818  0.00000000  0.37500000       0.005
   0.27272727 -0.00000000  0.37500000       0.005
   0.36363636 -0.00000000  0.37500000       0.005
   0.45454545 -0.00000000  0.37500000       0.005
  -0.45454545  0.00000000  0.37500000       0.005
  -0.36363636  0.00000000  0.37500000       0.005
  -0.27272727  0.00000000  0.37500000       0.005
  -0.18181818  0.00000000  0.37500000       0.005
  -0.09090909  0.00000000  0.37500000       0.005
   0.00000000  0.20000000  0.37500000       0.005
   0.09090909  0.20000000  0.37500000       0.005
   0.18181818  0.20000000  0.37500000       0.005
   0.27272727  0.20000000  0.37500000       0.005
   0.36363636  0.20000000  0.37500000       0.005
   0.45454545  0.20000000  0.37500000       0.005
  -0.45454545  0.20000000  0.37500000       0.005
  -0.36363636  0.20000000  0.37500000       0.005
  -0.27272727  0.20000000  0.37500000       0.005
  -0.18181818  0.20000000  0.37500000       0.005
  -0.09090909  0.20000000  0.37500000       0.005
   0.00000000  0.40000000  0.37500000       0.005
   0.09090909  0.40000000  0.37500000       0.005
   0.18181818  0.40000000  0.37500000       0.005
   0.27272727  0.40000000  0.37500000       0.005
   0.36363636  0.40000000  0.37500000       0.005
   0.45454545  0.40000000  0.37500000       0.005
  -0.45454545  0.40000000  0.37500000       0.005
  -0.36363636  0.40000000  0.37500000       0.005
  -0.27272727  0.40000000  0.37500000       0.005
  -0.18181818  0.40000000  0.37500000       0.005
  -0.09090909  0.40000000  0.37500000       0.005
   0.00000000 -0.40000000  0.37500000       0.005
   0.09090909 -0.40000000  0.37500000       0.005
   0.18181818 -0.40000000  0.37500000       0.005
   0.27272727 -0.40000000  0.37500000       0.005
   0.36363636 -0.40000000  0.37500000       0.005
   0.45454545 -0.40000000  0.37500000       0.005
  -0.45454545 -0.40000000  0.37500000       0.005
  -0.36363636 -0.40000000  0.37500000       0.005
  -0.27272727 -0.40000000  0.37500000       0.005
  -0.18181818 -0.40000000  0.37500000       0.005
  -0.09090909 -0.40000000  0.37500000       0.005
   0.00000000 -0.20000000  0.37500000       0.005
   0.09090909 -0.20000000  0.37500000       0.005
   0.18181818 -0.20000000  0.37500000       0.005
   0.27272727 -0.20000000  0.37500000       0.005
   0.36363636 -0.20000000  0.37500000       0.005
   0.45454545 -0.20000000  0.37500000       0.005
  -0.45454545 -0.20000000  0.37500000       0.005
  -0.36363636 -0.20000000  0.37500000       0.005
  -0.27272727 -0.20000000  0.37500000       0.005
  -0.18181818 -0.20000000  0.37500000       0.005
  -0.09090909 -0.20000000  0.37500000       0.005
   0.00000000  0.00000000  0.50000000       0.002
   0.09090909  0.00000000  0.50000000       0.005
   0.18181818  0.00000000  0.50000000       0.005
   0.27272727  0.00000000  0.50000000       0.005
   0.36363636 -0.00000000  0.50000000       0.005
   0.45454545 -0.00000000  0.50000000       0.005
   0.00000000  0.20000000  0.50000000       0.005
   0.09090909  0.20000000  0.50000000       0.005
   0.18181818  0.20000000  0.50000000       0.005
   0.27272727  0.20000000  0.50000000       0.005
   0.36363636  0.20000000  0.50000000       0.005
   0.45454545  0.20000000  0.50000000       0.005
  -0.45454545  0.20000000  0.50000000       0.005
  -0.36363636  0.20000000  0.50000000       0.005
  -0.27272727  0.20000000  0.50000000       0.005
  -0.18181818  0.20000000  0.50000000       0.005
  -0.09090909  0.20000000  0.50000000       0.005
   0.00000000  0.40000000  0.50000000       0.005
   0.09090909  0.40000000  0.50000000       0.005
   0.18181818  0.40000000  0.50000000       0.005
   0.27272727  0.40000000  0.50000000       0.005
   0.36363636  0.40000000  0.50000000       0.005
   0.45454545  0.40000000  0.50000000       0.005
  -0.45454545  0.40000000  0.50000000       0.005
  -0.36363636  0.40000000  0.50000000       0.005
  -0.27272727  0.40000000  0.50000000       0.005
  -0.18181818  0.40000000  0.50000000       0.005
  -0.09090909  0.40000000  0.50000000       0.005
 
 position of ions in fractional coordinates (direct lattice) 
   0.99999794  0.50164506  0.00000093
   0.50000206  0.74835494  0.49999907
   0.00000267  0.00166221  0.99999981
   0.49999733  0.24833779  0.50000019
   0.99999928  0.50001901  0.50000105
   0.50000072  0.74998099  0.99999895
   0.99999993  0.99994981  0.49999733
   0.50000007  0.25005019  0.00000267
 
 position of ions in cartesian coordinates  (Angst):
   3.61647633 -2.06925504  2.92630512
   5.39508728  1.03756883  2.92841453
   0.01203814  4.14449800  2.93058760
   1.79035253  1.03762716  2.92843736
   3.60478117  0.00299505  4.39159972
   5.40683731  3.10982318  4.39370039
   7.20889344  0.00293439  4.39155736
   1.80267018 -1.03462060  1.46316229
 


--------------------------------------------------------------------------------------------------------


 k-point  1 :   0.0000 0.0000 0.0000  plane waves:    3545
 k-point  2 :   0.0909-0.0000 0.0000  plane waves:    3547
 k-point  3 :   0.1818-0.0000 0.0000  plane waves:    3545
 k-point  4 :   0.2727-0.0000-0.0000  plane waves:    3549
 k-point  5 :   0.3636-0.0000 0.0000  plane waves:    3526
 k-point  6 :   0.4545-0.0000 0.0000  plane waves:    3526
 k-point  7 :  -0.0000 0.2000 0.0000  plane waves:    3537
 k-point  8 :   0.0909 0.2000 0.0000  plane waves:    3541
 k-point  9 :   0.1818 0.2000 0.0000  plane waves:    3546
 k-point 10 :   0.2727 0.2000 0.0000  plane waves:    3542
 k-point 11 :   0.3636 0.2000 0.0000  plane waves:    3532
 k-point 12 :   0.4545 0.2000 0.0000  plane waves:    3524
 k-point 13 :  -0.4545 0.2000 0.0000  plane waves:    3524
 k-point 14 :  -0.3636 0.2000 0.0000  plane waves:    3532
 k-point 15 :  -0.2727 0.2000 0.0000  plane waves:    3542
 k-point 16 :  -0.1818 0.2000 0.0000  plane waves:    3546
 k-point 17 :  -0.0909 0.2000-0.0000  plane waves:    3541
 k-point 18 :  -0.0000 0.4000 0.0000  plane waves:    3559
 k-point 19 :   0.0909 0.4000 0.0000  plane waves:    3547
 k-point 20 :   0.1818 0.4000 0.0000  plane waves:    3531
 k-point 21 :   0.2727 0.4000 0.0000  plane waves:    3528
 k-point 22 :   0.3636 0.4000 0.0000  plane waves:    3518
 k-point 23 :   0.4545 0.4000-0.0000  plane waves:    3520
 k-point 24 :  -0.4545 0.4000 0.0000  plane waves:    3520
 k-point 25 :  -0.3636 0.4000 0.0000  plane waves:    3518
 k-point 26 :  -0.2727 0.4000 0.0000  plane waves:    3528
 k-point 27 :  -0.1818 0.4000-0.0000  plane waves:    3531
 k-point 28 :  -0.0909 0.4000 0.0000  plane waves:    3547
 k-point 29 :   0.0000 0.0000 0.1250  plane waves:    3531
 k-point 30 :   0.0909-0.0000 0.1250  plane waves:    3552
 k-point 31 :   0.1818-0.0000 0.1250  plane waves:    3546
 k-point 32 :   0.2727 0.0000 0.1250  plane waves:    3534
 k-point 33 :   0.3636-0.0000 0.1250  plane waves:    3528
 k-point 34 :   0.4545-0.0000 0.1250  plane waves:    3542
 k-point 35 :  -0.4545 0.0000 0.1250  plane waves:    3542
 k-point 36 :  -0.3636 0.0000 0.1250  plane waves:    3528
 k-point 37 :  -0.2727 0.0000 0.1250  plane waves:    3534
 k-point 38 :  -0.1818 0.0000 0.1250  plane waves:    3546
 k-point 39 :  -0.0909 0.0000 0.1250  plane waves:    3552
 k-point 40 :   0.0000 0.2000 0.1250  plane waves:    3539
 k-point 41 :   0.0909 0.2000 0.1250  plane waves:    3541
 k-point 42 :   0.1818 0.2000 0.1250  plane waves:    3547
 k-point 43 :   0.2727 0.2000 0.1250  plane waves:    3531
 k-point 44 :   0.3636 0.2000 0.1250  plane waves:    3521
 k-point 45 :   0.4545 0.2000 0.1250  plane waves:    3530
 k-point 46 :  -0.4545 0.2000 0.1250  plane waves:    3530
 k-point 47 :  -0.3636 0.2000 0.1250  plane waves:    3521
 k-point 48 :  -0.2727 0.2000 0.1250  plane waves:    3531
 k-point 49 :  -0.1818 0.2000 0.1250  plane waves:    3547
 k-point 50 :  -0.0909 0.2000 0.1250  plane waves:    3541
 k-point 51 :   0.0000 0.4000 0.1250  plane waves:    3553
 k-point 52 :   0.0909 0.4000 0.1250  plane waves:    3546
 k-point 53 :   0.1818 0.4000 0.1250  plane waves:    3537
 k-point 54 :   0.2727 0.4000 0.1250  plane waves:    3517
 k-point 55 :   0.3636 0.4000 0.1250  plane waves:    3522
 k-point 56 :   0.4545 0.4000 0.1250  plane waves:    3523
 k-point 57 :  -0.4545 0.4000 0.1250  plane waves:    3523
 k-point 58 :  -0.3636 0.4000 0.1250  plane waves:    3522
 k-point 59 :  -0.2727 0.4000 0.1250  plane waves:    3517
 k-point 60 :  -0.1818 0.4000 0.1250  plane waves:    3537
 k-point 61 :  -0.0909 0.4000 0.1250  plane waves:    3546
 k-point 62 :   0.0000-0.4000 0.1250  plane waves:    3553
 k-point 63 :   0.0909-0.4000 0.1250  plane waves:    3546
 k-point 64 :   0.1818-0.4000 0.1250  plane waves:    3537
 k-point 65 :   0.2727-0.4000 0.1250  plane waves:    3517
 k-point 66 :   0.3636-0.4000 0.1250  plane waves:    3522
 k-point 67 :   0.4545-0.4000 0.1250  plane waves:    3523
 k-point 68 :  -0.4545-0.4000 0.1250  plane waves:    3523
 k-point 69 :  -0.3636-0.4000 0.1250  plane waves:    3522
 k-point 70 :  -0.2727-0.4000 0.1250  plane waves:    3517
 k-point 71 :  -0.1818-0.4000 0.1250  plane waves:    3537
 k-point 72 :  -0.0909-0.4000 0.1250  plane waves:    3546
 k-point 73 :   0.0000-0.2000 0.1250  plane waves:    3539
 k-point 74 :   0.0909-0.2000 0.1250  plane waves:    3541
 k-point 75 :   0.1818-0.2000 0.1250  plane waves:    3547
 k-point 76 :   0.2727-0.2000 0.1250  plane waves:    3531
 k-point 77 :   0.3636-0.2000 0.1250  plane waves:    3521
 k-point 78 :   0.4545-0.2000 0.1250  plane waves:    3530
 k-point 79 :  -0.4545-0.2000 0.1250  plane waves:    3530
 k-point 80 :  -0.3636-0.2000 0.1250  plane waves:    3521
 k-point 81 :  -0.2727-0.2000 0.1250  plane waves:    3531
 k-point 82 :  -0.1818-0.2000 0.1250  plane waves:    3547
 k-point 83 :  -0.0909-0.2000 0.1250  plane waves:    3541
 k-point 84 :   0.0000 0.0000 0.2500  plane waves:    3531
 k-point 85 :   0.0909 0.0000 0.2500  plane waves:    3543
 k-point 86 :   0.1818-0.0000 0.2500  plane waves:    3548
 k-point 87 :   0.2727-0.0000 0.2500  plane waves:    3539
 k-point 88 :   0.3636-0.0000 0.2500  plane waves:    3516
 k-point 89 :   0.4545-0.0000 0.2500  plane waves:    3527
 k-point 90 :  -0.4545 0.0000 0.2500  plane waves:    3527
 k-point 91 :  -0.3636 0.0000 0.2500  plane waves:    3516
 k-point 92 :  -0.2727 0.0000 0.2500  plane waves:    3539
 k-point 93 :  -0.1818 0.0000 0.2500  plane waves:    3548
 k-point 94 :  -0.0909 0.0000 0.2500  plane waves:    3543
 k-point 95 :   0.0000 0.2000 0.2500  plane waves:    3536
 k-point 96 :   0.0909 0.2000 0.2500  plane waves:    3547
 k-point 97 :   0.1818 0.2000 0.2500  plane waves:    3535
 k-point 98 :   0.2727 0.2000 0.2500  plane waves:    3530
 k-point 99 :   0.3636 0.2000 0.2500  plane waves:    3527
 k-point ** :   0.4545 0.2000 0.2500  plane waves:    3529
 k-point ** :  -0.4545 0.2000 0.2500  plane waves:    3529
 k-point ** :  -0.3636 0.2000 0.2500  plane waves:    3527
 k-point ** :  -0.2727 0.2000 0.2500  plane waves:    3530
 k-point ** :  -0.1818 0.2000 0.2500  plane waves:    3535
 k-point ** :  -0.0909 0.2000 0.2500  plane waves:    3547
 k-point ** :   0.0000 0.4000 0.2500  plane waves:    3542
 k-point ** :   0.0909 0.4000 0.2500  plane waves:    3542
 k-point ** :   0.1818 0.4000 0.2500  plane waves:    3531
 k-point ** :   0.2727 0.4000 0.2500  plane waves:    3521
 k-point ** :   0.3636 0.4000 0.2500  plane waves:    3522
 k-point ** :   0.4545 0.4000 0.2500  plane waves:    3523
 k-point ** :  -0.4545 0.4000 0.2500  plane waves:    3523
 k-point ** :  -0.3636 0.4000 0.2500  plane waves:    3522
 k-point ** :  -0.2727 0.4000 0.2500  plane waves:    3521
 k-point ** :  -0.1818 0.4000 0.2500  plane waves:    3531
 k-point ** :  -0.0909 0.4000 0.2500  plane waves:    3542
 k-point ** :   0.0000-0.4000 0.2500  plane waves:    3542
 k-point ** :   0.0909-0.4000 0.2500  plane waves:    3542
 k-point ** :   0.1818-0.4000 0.2500  plane waves:    3531
 k-point ** :   0.2727-0.4000 0.2500  plane waves:    3521
 k-point ** :   0.3636-0.4000 0.2500  plane waves:    3522
 k-point ** :   0.4545-0.4000 0.2500  plane waves:    3523
 k-point ** :  -0.4545-0.4000 0.2500  plane waves:    3523
 k-point ** :  -0.3636-0.4000 0.2500  plane waves:    3522
 k-point ** :  -0.2727-0.4000 0.2500  plane waves:    3521
 k-point ** :  -0.1818-0.4000 0.2500  plane waves:    3531
 k-point ** :  -0.0909-0.4000 0.2500  plane waves:    3542
 k-point ** :   0.0000-0.2000 0.2500  plane waves:    3536
 k-point ** :   0.0909-0.2000 0.2500  plane waves:    3547
 k-point ** :   0.1818-0.2000 0.2500  plane waves:    3535
 k-point ** :   0.2727-0.2000 0.2500  plane waves:    3530
 k-point ** :   0.3636-0.2000 0.2500  plane waves:    3527
 k-point ** :   0.4545-0.2000 0.2500  plane waves:    3529
 k-point ** :  -0.4545-0.2000 0.2500  plane waves:    3529
 k-point ** :  -0.3636-0.2000 0.2500  plane waves:    3527
 k-point ** :  -0.2727-0.2000 0.2500  plane waves:    3531
 k-point ** :  -0.1818-0.2000 0.2500  plane waves:    3535
 k-point ** :  -0.0909-0.2000 0.2500  plane waves:    3547
 k-point ** :   0.0000 0.0000 0.3750  plane waves:    3519
 k-point ** :   0.0909 0.0000 0.3750  plane waves:    3516
 k-point ** :   0.1818 0.0000 0.3750  plane waves:    3527
 k-point ** :   0.2727-0.0000 0.3750  plane waves:    3527
 k-point ** :   0.3636-0.0000 0.3750  plane waves:    3527
 k-point ** :   0.4545-0.0000 0.3750  plane waves:    3539
 k-point ** :  -0.4545 0.0000 0.3750  plane waves:    3539
 k-point ** :  -0.3636 0.0000 0.3750  plane waves:    3527
 k-point ** :  -0.2727 0.0000 0.3750  plane waves:    3527
 k-point ** :  -0.1818 0.0000 0.3750  plane waves:    3527
 k-point ** :  -0.0909 0.0000 0.3750  plane waves:    3516
 k-point ** :   0.0000 0.2000 0.3750  plane waves:    3530
 k-point ** :   0.0909 0.2000 0.3750  plane waves:    3528
 k-point ** :   0.1818 0.2000 0.3750  plane waves:    3522
 k-point ** :   0.2727 0.2000 0.3750  plane waves:    3525
 k-point ** :   0.3636 0.2000 0.3750  plane waves:    3537
 k-point ** :   0.4545 0.2000 0.3750  plane waves:    3538
 k-point ** :  -0.4545 0.2000 0.3750  plane waves:    3538
 k-point ** :  -0.3636 0.2000 0.3750  plane waves:    3537
 k-point ** :  -0.2727 0.2000 0.3750  plane waves:    3525
 k-point ** :  -0.1818 0.2000 0.3750  plane waves:    3522
 k-point ** :  -0.0909 0.2000 0.3750  plane waves:    3528
 k-point ** :   0.0000 0.4000 0.3750  plane waves:    3532
 k-point ** :   0.0909 0.4000 0.3750  plane waves:    3528
 k-point ** :   0.1818 0.4000 0.3750  plane waves:    3527
 k-point ** :   0.2727 0.4000 0.3750  plane waves:    3528
 k-point ** :   0.3636 0.4000 0.3750  plane waves:    3518
 k-point ** :   0.4545 0.4000 0.3750  plane waves:    3517
 k-point ** :  -0.4545 0.4000 0.3750  plane waves:    3517
 k-point ** :  -0.3636 0.4000 0.3750  plane waves:    3518
 k-point ** :  -0.2727 0.4000 0.3750  plane waves:    3528
 k-point ** :  -0.1818 0.4000 0.3750  plane waves:    3527
 k-point ** :  -0.0909 0.4000 0.3750  plane waves:    3528
 k-point ** :   0.0000-0.4000 0.3750  plane waves:    3532
 k-point ** :   0.0909-0.4000 0.3750  plane waves:    3528
 k-point ** :   0.1818-0.4000 0.3750  plane waves:    3527
 k-point ** :   0.2727-0.4000 0.3750  plane waves:    3528
 k-point ** :   0.3636-0.4000 0.3750  plane waves:    3518
 k-point ** :   0.4545-0.4000 0.3750  plane waves:    3517
 k-point ** :  -0.4545-0.4000 0.3750  plane waves:    3517
 k-point ** :  -0.3636-0.4000 0.3750  plane waves:    3518
 k-point ** :  -0.2727-0.4000 0.3750  plane waves:    3528
 k-point ** :  -0.1818-0.4000 0.3750  plane waves:    3527
 k-point ** :  -0.0909-0.4000 0.3750  plane waves:    3528
 k-point ** :   0.0000-0.2000 0.3750  plane waves:    3530
 k-point ** :   0.0909-0.2000 0.3750  plane waves:    3528
 k-point ** :   0.1818-0.2000 0.3750  plane waves:    3522
 k-point ** :   0.2727-0.2000 0.3750  plane waves:    3525
 k-point ** :   0.3636-0.2000 0.3750  plane waves:    3537
 k-point ** :   0.4545-0.2000 0.3750  plane waves:    3538
 k-point ** :  -0.4545-0.2000 0.3750  plane waves:    3538
 k-point ** :  -0.3636-0.2000 0.3750  plane waves:    3537
 k-point ** :  -0.2727-0.2000 0.3750  plane waves:    3525
 k-point ** :  -0.1818-0.2000 0.3750  plane waves:    3522
 k-point ** :  -0.0909-0.2000 0.3750  plane waves:    3528
 k-point ** :   0.0000 0.0000 0.5000  plane waves:    3534
 k-point ** :   0.0909 0.0000 0.5000  plane waves:    3520
 k-point ** :   0.1818 0.0000 0.5000  plane waves:    3506
 k-point ** :   0.2727 0.0000 0.5000  plane waves:    3532
 k-point ** :   0.3636-0.0000 0.5000  plane waves:    3538
 k-point ** :   0.4545-0.0000 0.5000  plane waves:    3528
 k-point ** :   0.0000 0.2000 0.5000  plane waves:    3514
 k-point ** :   0.0909 0.2000 0.5000  plane waves:    3516
 k-point ** :   0.1818 0.2000 0.5000  plane waves:    3530
 k-point ** :   0.2727 0.2000 0.5000  plane waves:    3520
 k-point ** :   0.3636 0.2000 0.5000  plane waves:    3532
 k-point ** :   0.4545 0.2000 0.5000  plane waves:    3532
 k-point ** :  -0.4545 0.2000 0.5000  plane waves:    3532
 k-point ** :  -0.3636 0.2000 0.5000  plane waves:    3532
 k-point ** :  -0.2727 0.2000 0.5000  plane waves:    3520
 k-point ** :  -0.1818 0.2000 0.5000  plane waves:    3530
 k-point ** :  -0.0909 0.2000 0.5000  plane waves:    3516
 k-point ** :   0.0000 0.4000 0.5000  plane waves:    3538
 k-point ** :   0.0909 0.4000 0.5000  plane waves:    3520
 k-point ** :   0.1818 0.4000 0.5000  plane waves:    3528
 k-point ** :   0.2727 0.4000 0.5000  plane waves:    3536
[...]
  0.000  -0.000  -0.000  -0.000   0.011   0.000   0.000  -0.007
 -0.000   0.000  -0.026   0.001  -0.000   0.017  -0.001   0.000
  0.001  -0.000  -0.000  -0.000   0.001   0.000   0.000  -0.001
 pseudopotential strength for first ion, spin component:           2
 -8.680  -4.021  -0.000  -0.000   0.001   0.000   0.000  -0.000
 -4.021  -0.356   0.000   0.000  -0.001  -0.000  -0.000   0.000
 -0.000   0.000 -15.667   0.000   0.000   7.374  -0.000  -0.000
 -0.000   0.000   0.000 -15.667  -0.000  -0.000   7.374   0.000
  0.001  -0.001   0.000  -0.000 -15.665  -0.000   0.000   7.372
  0.000  -0.000   7.374  -0.000  -0.000   4.939   0.000   0.000
  0.000  -0.000  -0.000   7.374   0.000   0.000   4.939  -0.000
 -0.000   0.000  -0.000   0.000   7.372   0.000  -0.000   4.940
  0.000   0.000   0.000  -0.000  -0.000  -0.000  -0.000   0.000
  0.000  -0.000  -0.000  -0.000  -0.000   0.000   0.000  -0.000
 -0.001  -0.000   0.000  -0.000  -0.000  -0.000   0.000   0.000
 -0.000  -0.000  -0.000   0.000  -0.000  -0.000  -0.000   0.000
  0.001   0.000   0.000  -0.000   0.000  -0.000   0.000  -0.000
 -0.000  -0.000  -0.001   0.000   0.000   0.000   0.000  -0.000
 -0.000  -0.000   0.000   0.000   0.000  -0.000  -0.000   0.000
  0.001   0.000  -0.000   0.000   0.000   0.000  -0.000  -0.000
  0.000   0.000   0.000  -0.001   0.000   0.000   0.000  -0.000
 -0.001  -0.000  -0.000   0.000  -0.000   0.000  -0.000   0.000
 -0.000   0.000   0.001   0.000   0.000  -0.000  -0.005  -0.000
  0.000  -0.000  -0.000   0.000   0.001   0.000  -0.000  -0.006
  0.000  -0.000  -0.000   0.000  -0.000   0.003  -0.000   0.000
 -0.000   0.000  -0.000  -0.000   0.000   0.000  -0.004  -0.000
 -0.000   0.000  -0.000  -0.000  -0.001   0.000   0.000   0.003
  0.000  -0.000   0.000   0.000  -0.000  -0.006  -0.000   0.000
  0.000   0.000  -0.000  -0.000   0.001   0.000   0.000  -0.000
 -0.000   0.000   0.001   0.000   0.000  -0.000  -0.005  -0.000
  0.000  -0.000  -0.000   0.000   0.001   0.000  -0.000  -0.006
  0.000  -0.000  -0.000   0.000  -0.000   0.003  -0.000   0.000
 -0.000   0.000  -0.000  -0.000   0.000   0.000  -0.004  -0.000
 -0.000   0.000  -0.000  -0.000  -0.001   0.000   0.000   0.003
  0.000  -0.000  -0.000   0.000  -0.000  -0.006  -0.000   0.000
 -0.000   0.000  -0.000  -0.000   0.001   0.000   0.000  -0.000
 total augmentation occupancy for first ion, spin component:           1
  1.992  -0.037   0.000  -0.000  -0.000   0.000   0.000  -0.000   0.000  -0.000   0.000  -0.000  -0.000   0.000   0.000   0.000
 -0.037   0.606  -0.000  -0.000  -0.002   0.000  -0.000   0.002   0.000   0.001   0.000  -0.000  -0.001   0.000   0.000   0.000
  0.000  -0.000   2.012   0.000   0.000  -0.020  -0.000   0.000  -0.000   0.000   0.000   0.001  -0.000   0.000  -0.000  -0.000
 -0.000  -0.000   0.000   2.012  -0.000  -0.000  -0.019  -0.000   0.001  -0.000  -0.000  -0.001   0.000   0.000   0.000  -0.000
 -0.000  -0.002   0.000  -0.000   2.013   0.000  -0.000  -0.019  -0.000   0.001  -0.000   0.000  -0.000  -0.000   0.000  -0.000
  0.000   0.000  -0.020  -0.000   0.000   0.020   0.000  -0.000   0.001  -0.000  -0.000  -0.001   0.000   0.000  -0.000  -0.000
  0.000  -0.000  -0.000  -0.019  -0.000   0.000   0.020   0.000  -0.001   0.000  -0.000   0.001  -0.000  -0.000   0.000   0.000
 -0.000   0.002   0.000  -0.000  -0.019  -0.000   0.000   0.020   0.000  -0.001   0.000  -0.000   0.001   0.000  -0.000   0.000
  0.000   0.000  -0.000   0.001  -0.000   0.001  -0.001   0.000   0.228   0.000   0.000  -0.082  -0.000   0.062   0.000   0.000
 -0.000   0.001   0.000  -0.000   0.001  -0.000   0.000  -0.001   0.000   0.288   0.000   0.000  -0.083   0.000   0.084   0.000
  0.000   0.000   0.000  -0.000  -0.000  -0.000  -0.000   0.000   0.000   0.000   0.171   0.000   0.001   0.000   0.000   0.041
 -0.000  -0.000   0.001  -0.001   0.000  -0.001   0.001  -0.000  -0.082   0.000   0.000   0.286  -0.000  -0.030   0.000  -0.000
 -0.000  -0.001  -0.000   0.000  -0.000   0.000  -0.000   0.001  -0.000  -0.083   0.001  -0.000   0.229  -0.000  -0.031   0.000
  0.000   0.000   0.000   0.000  -0.000   0.000  -0.000   0.000   0.062   0.000   0.000  -0.030  -0.000   0.018   0.000   0.000
  0.000   0.000  -0.000   0.000   0.000  -0.000   0.000  -0.000   0.000   0.084   0.000   0.000  -0.031   0.000   0.026   0.000
  0.000   0.000  -0.000  -0.000  -0.000  -0.000   0.000   0.000   0.000   0.000   0.041  -0.000   0.000   0.000   0.000   0.011
 -0.000  -0.000   0.000   0.000  -0.000  -0.000   0.000  -0.000  -0.030   0.000  -0.000   0.084  -0.000  -0.011   0.000  -0.000
 -0.000  -0.000  -0.000   0.000   0.000   0.000  -0.000   0.000  -0.000  -0.031   0.000  -0.000   0.063  -0.000  -0.011   0.000
 -0.000  -0.000   0.001  -0.120   0.000   0.000   0.083   0.000  -0.009  -0.000   0.000   0.002  -0.000  -0.002  -0.000   0.000
 -0.001   0.020  -0.000   0.000  -0.145  -0.000   0.000   0.101   0.000  -0.011   0.005  -0.000  -0.005   0.000  -0.003   0.001
  0.000  -0.000   0.064   0.002   0.000  -0.045  -0.001  -0.000  -0.002  -0.000   0.000   0.005   0.000  -0.001  -0.000  -0.000
 -0.000  -0.000  -0.000  -0.108   0.000  -0.000   0.074   0.000  -0.001  -0.000   0.000   0.007  -0.000  -0.001  -0.000   0.000
  0.000  -0.010  -0.000  -0.000   0.063  -0.000   0.000  -0.045  -0.000   0.007  -0.008   0.000  -0.001  -0.000   0.002  -0.002
 -0.000   0.000  -0.148   0.001  -0.000   0.101  -0.000   0.000   0.000  -0.000  -0.000  -0.006   0.000   0.000  -0.000  -0.000
  0.000   0.002  -0.000  -0.000   0.002  -0.000   0.000  -0.000  -0.000  -0.006  -0.001  -0.000  -0.001  -0.000  -0.002  -0.000
  0.000   0.000  -0.001   0.122  -0.000  -0.000  -0.076  -0.000   0.009   0.000  -0.000  -0.004   0.000   0.002  -0.000  -0.000
  0.002  -0.017   0.000  -0.000   0.147   0.000  -0.000  -0.092  -0.000   0.011  -0.003   0.000   0.003  -0.000   0.003  -0.001
 -0.000   0.000  -0.065  -0.003   0.000   0.041   0.001   0.000   0.001   0.000   0.000  -0.005  -0.000   0.000   0.000   0.000
  0.000   0.000   0.001   0.110  -0.000  -0.000  -0.068  -0.000   0.004   0.000  -0.000  -0.006   0.000   0.002  -0.000  -0.000
 -0.000   0.009   0.000   0.000  -0.064   0.000  -0.000   0.041   0.000  -0.006   0.008  -0.000   0.002   0.000  -0.002   0.002
  0.000  -0.000   0.151  -0.001   0.000  -0.093  -0.000  -0.000   0.000   0.000   0.000   0.008  -0.000  -0.000   0.000   0.000
 -0.000  -0.002   0.000   0.000  -0.002  -0.000  -0.000   0.000   0.000   0.006   0.002  -0.000   0.002   0.000   0.002   0.000
 total augmentation occupancy for first ion, spin component:           2
  0.042   0.159   0.000  -0.000   0.000   0.000  -0.000  -0.000   0.000  -0.000   0.000  -0.000  -0.000   0.000  -0.000   0.000
  0.159  -0.131   0.000  -0.000   0.001  -0.000   0.000  -0.001   0.000   0.003  -0.003  -0.000   0.003   0.000   0.001  -0.001
  0.000   0.000   0.008   0.000  -0.000   0.044  -0.000   0.000   0.002  -0.000  -0.000   0.001   0.000   0.000  -0.000  -0.000
 -0.000  -0.000   0.000   0.007   0.000  -0.000   0.044  -0.000   0.001  -0.000  -0.000   0.001  -0.000   0.000  -0.000  -0.000
  0.000   0.001  -0.000   0.000   0.008   0.000  -0.000   0.044   0.000   0.000  -0.000  -0.000   0.001   0.000  -0.000  -0.000
  0.000  -0.000   0.044  -0.000   0.000  -0.003   0.000   0.000  -0.002   0.000   0.000  -0.001  -0.000  -0.000   0.000   0.000
 -0.000   0.000  -0.000   0.044  -0.000   0.000  -0.003  -0.000  -0.001   0.000   0.000  -0.001   0.000  -0.000   0.000   0.000
 -0.000  -0.001   0.000  -0.000   0.044   0.000  -0.000  -0.003  -0.000  -0.000   0.000   0.000  -0.001  -0.000  -0.000   0.000
  0.000   0.000   0.002   0.001   0.000  -0.002  -0.001  -0.000  -0.039   0.000   0.000   0.005   0.000  -0.010   0.000   0.000
 -0.000   0.003  -0.000  -0.000   0.000   0.000   0.000  -0.000   0.000  -0.044  -0.002   0.000   0.002   0.000  -0.012  -0.000
  0.000  -0.003  -0.000  -0.000  -0.000   0.000   0.000   0.000   0.000  -0.002  -0.042   0.000  -0.004   0.000  -0.000  -0.010
 -0.000  -0.000   0.001   0.001  -0.000  -0.001  -0.001   0.000   0.005   0.000   0.000  -0.043   0.000   0.002   0.000   0.000
 -0.000   0.003   0.000  -0.000   0.001  -0.000   0.000  -0.001   0.000   0.002  -0.004   0.000  -0.040   0.000   0.002  -0.001
  0.000   0.000   0.000   0.000   0.000  -0.000  -0.000  -0.000  -0.010   0.000   0.000   0.002   0.000  -0.003  -0.000   0.000
 -0.000   0.001  -0.000  -0.000  -0.000   0.000   0.000  -0.000   0.000  -0.012  -0.000   0.000   0.002  -0.000  -0.003  -0.000
  0.000  -0.001  -0.000  -0.000  -0.000   0.000   0.000   0.000   0.000  -0.000  -0.010   0.000  -0.001   0.000  -0.000  -0.002
 -0.000  -0.000   0.000   0.000  -0.000  -0.000  -0.000   0.000   0.002   0.000   0.000  -0.012   0.000   0.001   0.000   0.000
 -0.000   0.001  -0.000  -0.000   0.000  -0.000   0.000  -0.000   0.000   0.002  -0.001   0.000  -0.010   0.000   0.001  -0.000
 -0.000   0.000  -0.001   0.013   0.000  -0.000  -0.024  -0.000   0.017   0.000  -0.000   0.013   0.000   0.003   0.000  -0.000
 -0.000  -0.000  -0.000   0.000   0.017   0.000  -0.000  -0.031   0.000   0.010  -0.002  -0.000   0.011   0.000   0.002  -0.000
 -0.000   0.000  -0.007   0.001  -0.000   0.013  -0.001  -0.000  -0.007   0.000  -0.000  -0.001  -0.000  -0.001   0.000  -0.000
  0.000   0.000  -0.001   0.011   0.000   0.001  -0.020  -0.000  -0.006   0.000  -0.000  -0.003   0.000  -0.001   0.000  -0.000
  0.000   0.004  -0.000  -0.000  -0.008   0.000   0.000   0.015   0.000   0.000   0.017   0.000   0.003  -0.000   0.000   0.003
 -0.000  -0.000   0.015  -0.001  -0.000  -0.028   0.000  -0.000   0.012   0.000   0.000   0.009   0.000   0.002   0.000   0.000
 -0.000  -0.006  -0.000  -0.000   0.000   0.000   0.000  -0.001   0.000   0.006   0.009   0.000   0.006   0.000   0.001   0.002
  0.000  -0.000   0.000   0.002  -0.000   0.001   0.010   0.000  -0.019  -0.000   0.000  -0.014  -0.000  -0.003  -0.000   0.000
  0.001  -0.005   0.000  -0.000   0.000  -0.000   0.000   0.014   0.000  -0.009  -0.001   0.000  -0.010   0.000  -0.002  -0.000
  0.000   0.000  -0.000  -0.001   0.000  -0.006   0.001   0.000   0.010  -0.000   0.000   0.002   0.000   0.002  -0.000   0.000
 -0.000  -0.000   0.001   0.002  -0.000  -0.001   0.008   0.000   0.003  -0.000   0.000   0.001  -0.000   0.001  -0.000   0.000
 -0.000  -0.003   0.000   0.000   0.000   0.000   0.000  -0.007   0.000  -0.003  -0.019   0.000  -0.005   0.000  -0.001  -0.003
  0.000  -0.000   0.003   0.000   0.000   0.011   0.000  -0.000  -0.016  -0.000  -0.000  -0.012  -0.000  -0.002  -0.000  -0.000
  0.000   0.006   0.000   0.000  -0.001   0.000  -0.000   0.001  -0.000  -0.006  -0.011  -0.000  -0.008  -0.000  -0.001  -0.002


------------------------ aborting loop because EDIFF is reached ----------------------------------------


 


 total charge     
 
# of ion       s       p       d       f       tot
--------------------------------------------------
    1        2.083   5.888   0.613   6.722  15.306
    2        2.083   5.888   0.613   6.722  15.306
    3        2.083   5.888   0.613   6.721  15.306
    4        2.083   5.888   0.613   6.721  15.306
    5        1.555   3.408   0.000   0.000   4.963
    6        1.555   3.408   0.000   0.000   4.963
    7        1.555   3.408   0.000   0.000   4.963
    8        1.555   3.408   0.000   0.000   4.963
--------------------------------------------------
tot         14.555  37.184   2.451  26.886  81.077

 


 magnetization (x)
 
# of ion       s       p       d       f       tot
--------------------------------------------------
    1        0.006   0.010  -0.110  -6.616  -6.711
    2        0.006   0.010  -0.110  -6.616  -6.711
    3       -0.006  -0.010   0.110   6.616   6.711
    4       -0.006  -0.010   0.110   6.616   6.711
    5        0.002   0.032   0.000   0.000   0.034
    6        0.002   0.032   0.000   0.000   0.034
    7       -0.002  -0.033   0.000   0.000  -0.034
    8       -0.002  -0.033   0.000   0.000  -0.034
--------------------------------------------------
tot         -0.000  -0.000   0.000  -0.000   0.000

 
    CHARGE:  cpu time    2.0643: real time    2.0691
    FORLOC:  cpu time    0.0037: real time    0.0037
    FORNL :  cpu time   12.1710: real time   12.1997
    STRESS:  cpu time   39.1526: real time   39.2449
    FORCOR:  cpu time    0.0743: real time    0.0744
    FORHAR:  cpu time    0.0102: real time    0.0103
    MIXING:  cpu time    0.0045: real time    0.0045
    OFIELD:  cpu time    0.0001: real time    0.0001

  FORCE on cell =-STRESS in cart. coord.  units (eV):
  Direction    XX          YY          ZZ          XY          YZ          ZX
  --------------------------------------------------------------------------------------
  Alpha Z   906.21137   906.21137   906.21137
  Ewald   -3238.46025 -3232.29461 -3235.62951     0.00178     4.71599    -0.00307
  Hartree   917.61824   920.53557   918.29884     0.00183     3.16528    -0.00276
  E(xc)    -488.35870  -488.33661  -488.34263    -0.00000     0.00852     0.00000
  Local     849.06892   840.44258   846.24861    -0.00519    -8.21679     0.00663
  n-local  -452.74488  -453.10186  -453.06028    -0.00033    -0.05992    -0.00052
  augment   193.01481   192.80273   192.76423     0.00117     0.05578    -0.00107
  Kinetic  1313.36286  1313.43077  1313.20953     0.00284     0.31876    -0.00001
  Fock        0.00000     0.00000     0.00000     0.00000     0.00000     0.00000
  -------------------------------------------------------------------------------------
  Total      -0.28763    -0.31007    -0.29985     0.00210    -0.01238    -0.00080
  in kB      -3.51373    -3.78792    -3.66298     0.02571    -0.15127    -0.00977
  external pressure =       -3.65 kB  Pullay stress =        0.00 kB


 VOLUME and BASIS-vectors are now :
 -----------------------------------------------------------------------------
  energy-cutoff  :      520.00
  volume of cell :      131.15
      direct lattice vectors                 reciprocal lattice vectors
     0.000005623 -2.069219122  2.926341909     0.000000148 -0.161089499  0.227817032
     7.209222196 -0.000087804 -0.000066757     0.138711219 -0.000001099 -0.000001043
     0.000054871  4.144504445  2.930580462     0.000003012  0.160856512  0.113741791

  length of vectors
     3.584012380  7.209222196  5.075945128     0.279016893  0.138711219  0.197007646


 FORCES acting on ions
    electron-ion (+dipol)            ewald-force                    non-local-force                 convergence-correction
 -----------------------------------------------------------------------------------------------
   0.528E+01 0.416E-02 -.218E-03   -.532E+01 -.394E-02 0.795E-04   0.535E-01 -.257E-03 0.222E-04   -.807E-02 -.321E-04 0.975E-04
   -.528E+01 -.416E-02 0.218E-03   0.532E+01 0.394E-02 -.795E-04   -.535E-01 0.257E-03 -.222E-04   0.807E-02 0.321E-04 -.975E-04
   0.528E+01 0.427E-02 0.633E-02   -.533E+01 -.443E-02 -.595E-02   0.516E-01 -.911E-04 -.163E-03   0.463E-02 0.221E-03 -.279E-03
   -.528E+01 -.427E-02 -.633E-02   0.533E+01 0.443E-02 0.595E-02   -.516E-01 0.911E-04 0.163E-03   -.463E-02 -.221E-03 0.279E-03
   0.392E+01 -.120E-02 -.845E-03   -.409E+01 0.762E-03 0.152E-02   0.179E+00 -.553E-05 -.582E-04   -.594E-02 0.432E-03 -.641E-03
   -.392E+01 0.120E-02 0.845E-03   0.409E+01 -.762E-03 -.152E-02   -.179E+00 0.553E-05 0.582E-04   0.594E-02 -.432E-03 0.641E-03
   0.378E+01 -.310E-02 -.209E-02   -.397E+01 0.360E-02 0.147E-02   0.180E+00 -.409E-04 0.842E-04   0.542E-02 -.453E-03 0.622E-03
   -.378E+01 0.310E-02 0.209E-02   0.397E+01 -.360E-02 -.147E-02   -.180E+00 0.409E-04 -.842E-04   -.542E-02 0.453E-03 -.622E-03
 -----------------------------------------------------------------------------------------------
   0.121E-10 -.717E-10 -.526E-10   -.711E-14 -.727E-14 -.229E-14   0.278E-16 0.000E+00 0.271E-19   -.377E-13 -.384E-12 -.225E-12
 
 
 POSITION                                       TOTAL-FORCE (eV/Angst)
 -----------------------------------------------------------------------------------
      3.61648     -2.06926      2.92631        -0.000751     -0.000068     -0.000019
      5.39509      1.03757      2.92841         0.000751      0.000068      0.000019
      0.01204      4.14450      2.93059        -0.002720     -0.000029     -0.000068
      1.79035      1.03763      2.92844         0.002720      0.000029      0.000068
      3.60478      0.00300      4.39160        -0.004151     -0.000015     -0.000028
      5.40684      3.10982      4.39370         0.004151      0.000015      0.000028
      7.20889      0.00293      4.39156        -0.002849      0.000003      0.000085
      1.80267     -1.03462      1.46316         0.002849     -0.000003     -0.000085
 -----------------------------------------------------------------------------------
    total drift:                                0.000000     -0.000000     -0.000000


--------------------------------------------------------------------------------------------------------



  FREE ENERGIE OF THE ION-ELECTRON SYSTEM (eV)
  ---------------------------------------------------
  free  energy   TOTEN  =       -83.25944288 eV

  energy  without entropy=      -83.25944288  energy(sigma->0) =      -83.25944288
 


--------------------------------------------------------------------------------------------------------


    POTLOK:  cpu time    1.1221: real time    1.1248


--------------------------------------------------------------------------------------------------------


     LOOP+:  cpu time 1821.1700: real time 1825.5726
    4ORBIT:  cpu time    0.0000: real time    0.0000
 


 total charge     
 
# of ion       s       p       d       f       tot
--------------------------------------------------
    1        2.083   5.888   0.613   6.722  15.306
    2        2.083   5.888   0.613   6.722  15.306
    3        2.083   5.888   0.613   6.721  15.306
    4        2.083   5.888   0.613   6.721  15.306
    5        1.555   3.408   0.000   0.000   4.963
    6        1.555   3.408   0.000   0.000   4.963
    7        1.555   3.408   0.000   0.000   4.963
    8        1.555   3.408   0.000   0.000   4.963
--------------------------------------------------
tot         14.555  37.184   2.451  26.886  81.077

 


 magnetization (x)
 
# of ion       s       p       d       f       tot
--------------------------------------------------
    1        0.006   0.010  -0.110  -6.616  -6.711
    2        0.006   0.010  -0.110  -6.616  -6.711
    3       -0.006  -0.010   0.110   6.616   6.711
    4       -0.006  -0.010   0.110   6.616   6.711
    5        0.002   0.032   0.000   0.000   0.034
    6        0.002   0.032   0.000   0.000   0.034
    7       -0.002  -0.033   0.000   0.000  -0.034
    8       -0.002  -0.033   0.000   0.000  -0.034
--------------------------------------------------
tot         -0.000  -0.000   0.000  -0.000   0.000

 
 BZINTS: Fermi energy:  4.828387; 92.000000 electrons
         Band energy:-584.380914;  BLOECHL correction: -0.001168

 total amount of memory used by VASP MPI-rank0   228068. kBytes
=======================================================================

   base      :      30000. kBytes
   nonlr-proj:       3835. kBytes
   fftplans  :       2535. kBytes
   grid      :       6160. kBytes
   one-center:        196. kBytes
   wavefun   :     185342. kBytes
 
  
  
 General timing and accounting informations for this job:
 ========================================================
  
                  Total CPU time used (sec):     1835.573
                            User time (sec):     1831.548
                          System time (sec):        4.025
                         Elapsed time (sec):     1840.806
  
                   Maximum memory used (kb):      293916.
                   Average memory used (kb):           0.
  
                          Minor page faults:       142728
                          Major page faults:            0
                 Voluntary context switches:          319
