 vasp.5.4.4.18Apr17-6-g9f103f2a35 (build Apr 28 2018 00:24:27) complex          
  
 executed on             LinuxIFC date 2021.03.19  19:37:15
 running on    8 total cores
 distrk:  each k-point on    8 cores,    1 groups
 distr:  one band on NCORES_PER_BAND=   1 cores,    8 groups


--------------------------------------------------------------------------------------------------------


 INCAR:
 POTCAR:    PAW_PBE Ni 02Aug2007                  

 ----------------------------------------------------------------------------- 
|                                                                             |
|           W    W    AA    RRRRR   N    N  II  N    N   GGGG   !!!           |
|           W    W   A  A   R    R  NN   N  II  NN   N  G    G  !!!           |
|           W    W  A    A  R    R  N N  N  II  N N  N  G       !!!           |
|           W WW W  AAAAAA  RRRRR   N  N N  II  N  N N  G  GGG   !            |
|           WW  WW  A    A  R   R   N   NN  II  N   NN  G    G                |
|           W    W  A    A  R    R  N    N  II  N    N   GGGG   !!!           |
|                                                                             |
|      For optimal performance we recommend to set                            |
|        NCORE= 4 - approx SQRT( number of cores)                             |
|      NCORE specifies how many cores store one orbital (NPAR=cpu/NCORE).     |
|      This setting can  greatly improve the performance of VASP for DFT.     |
|      The default,   NCORE=1            might be grossly inefficient         |
|      on modern multi-core architectures or massively parallel machines.     |
|      Do your own testing !!!!                                               |
|      Unfortunately you need to use the default for GW and RPA calculations. |
|      (for HF NCORE is supported but not extensively tested yet)             |
|                                                                             |
 ----------------------------------------------------------------------------- 

 POTCAR:    PAW_PBE Ni 02Aug2007                  
   SHA256 =  0534bc51ca8003dfef23f56753fef9fdd3e22eac8d719fccacb59f3e6b7a69c7 Ni
   COPYR  = (c) Copyright 02Aug2007 Georg Kresse                                
   COPYR  = This file is part of the software VASP. Any use, copying, and all ot
   COPYR  = If you do not have a valid VASP license, you may not use, copy or di
   VRHFIN =Ni:                                                                  
   LEXCH  = PE                                                                  
   EATOM  =  1077.6739 eV,   79.2068 Ry                                         
                                                                                
   TITEL  = PAW_PBE Ni 02Aug2007                                                
   LULTRA =        F    use ultrasoft PP ?                                      
   IUNSCR =        1    unscreen: 0-lin 1-nonlin 2-no                           
   RPACOR =    2.000    partial core radius                                     
   POMASS =   58.690; ZVAL   =   10.000    mass and valenz                      
   RCORE  =    2.300    outmost cutoff radius                                   
   RWIGS  =    2.430; RWIGS  =    1.286    wigner-seitz radius (au A)           
   ENMAX  =  269.532; ENMIN  =  202.149 eV                                      
   RCLOC  =    1.201    cutoff for local pot                                    
   LCOR   =        T    correct aug charges                                     
   LPAW   =        T    paw PP                                                  
   EAUG   =  544.565                                                            
   DEXC   =    0.000                                                            
   RMAX   =    2.357    core radius for proj-oper                               
   RAUG   =    1.300    factor for augmentation sphere                          
   RDEP   =    2.390    radius for radial grids                                 
   RDEPT  =    1.838    core radius for aug-charge                              
                                                                                
   Atomic configuration                                                         
    9 entries                                                                   
     n  l   j            E        occ.                                          
     1  0  0.50     -8206.4253   2.0000                                         
     2  0  0.50      -976.1748   2.0000                                         
     2  1  1.50      -839.0571   6.0000                                         
     3  0  0.50      -105.9991   2.0000                                         
     3  1  1.50       -66.4603   6.0000                                         
     3  2  2.50        -4.6458   9.0000                                         
     4  0  0.50        -4.4926   1.0000                                         
     4  1  1.50        -4.0817   0.0000                                         
     4  3  2.50        -1.3606   0.0000                                         
   Description                                                                  
     l       E           TYP  RCUT    TYP  RCUT                                 
     2     -4.6457903     23  2.300                                             
     2     -6.0063729     23  2.300                                             
     0     -4.4925590     23  2.300                                             
     0      5.0102601     23  2.300                                             
     1     -2.7211652     23  2.300                                             
     1     16.5183231     23  2.300                                             
  local pseudopotential read in
  partial core-charges read in
  partial kinetic energy density read in
  atomic valenz-charges read in
  non local Contribution for L=           2  read in
    real space projection operators read in
  non local Contribution for L=           2  read in
    real space projection operators read in
  non local Contribution for L=           0  read in
    real space projection operators read in
  non local Contribution for L=           0  read in
    real space projection operators read in
  non local Contribution for L=           1  read in
    real space projection operators read in
  non local Contribution for L=           1  read in
    real space projection operators read in
    PAW grid and wavefunctions read in
 
   number of l-projection  operators is LMAX  =           6
   number of lm-projection operators is LMMAX =          18
 
  PAW_PBE Ni 02Aug2007                  :
 energy of atom  1       EATOM=-1077.6739
 kinetic energy error for atom=    0.0030 (will be added to EATOM!!)
 
 
 POSCAR: Ni1 str #: 5                            
  positions in direct lattice
  No initial velocities read in
 exchange correlation table for  LEXCH =        8
   RHO(1)=    0.500       N(1)  =     2000
   RHO(2)=  100.500       N(2)  =     4000
 


--------------------------------------------------------------------------------------------------------


 ion  position               nearest neighbor table
   1  0.000  0.000  0.000-   2 2.48   4 2.48   2 2.48   4 2.48   3 2.48   3 2.48   2 2.48   4 2.48
                             3 2.48   3 2.48
   2  0.250  0.250  0.500-   3 2.48   1 2.48   1 2.48   3 2.48   4 2.48   4 2.48   3 2.48   1 2.48
                             4 2.48   4 2.48
   3  0.500  0.500  0.000-   4 2.48   2 2.48   2 2.48   4 2.48   1 2.48   1 2.48   4 2.48   2 2.48
                             1 2.48   1 2.48
   4  0.750  0.750  0.500-   1 2.48   3 2.48   1 2.48   3 2.48   2 2.48   2 2.48   1 2.48   3 2.48
                             2 2.48   2 2.48
 
  LATTYP: Found a base centered monoclinic cell.
 ALAT       =     8.2142847011
 B/A-ratio  =     0.3015113537
 C/A-ratio  =     1.0444659374
 COS(beta)  =    -0.8333333283
  
  Lattice vectors:
  
 A1 = (   1.2383500000,  -0.7149617400,   4.0444342000)
 A2 = (  -1.2383501000,  -0.7149617400,   4.0444342000)
 A3 = (   0.0000002000,  -2.8598469200,  -8.0888684000)


Analysis of symmetry for initial positions (statically):
=====================================================================
 Subroutine PRICEL returns following result:
 
  LATTYP: Found a face centered cubic cell.
 ALAT       =     3.5025827606
  
  Lattice vectors:
  
 A1 = (  -1.2383500000,  -0.7149617300,  -2.0222171000)
 A2 = (  -1.2383500000,  -2.1448852000,  -0.0000000000)
 A3 = (  -2.4767001000,   0.0000000000,  -0.0000000000)
 
   4 primitive cells build up your supercell.
 

 Routine SETGRP: Setting up the symmetry group for a 
 base centered monoclinic supercell.


 Subroutine GETGRP returns: Found  4 space group operations
 (whereof  4 operations were pure point group operations)
 out of a pool of  4 trial point group operations.


The static configuration has the point symmetry C_2h.


Analysis of symmetry for dynamics (positions and initial velocities):
=====================================================================
 Subroutine PRICEL returns following result:
 
  LATTYP: Found a face centered cubic cell.
 ALAT       =     3.5025827606
  
  Lattice vectors:
  
 A1 = (  -1.2383500000,  -0.7149617300,  -2.0222171000)
 A2 = (  -1.2383500000,  -2.1448852000,  -0.0000000000)
 A3 = (  -2.4767001000,   0.0000000000,  -0.0000000000)
 
   4 primitive cells build up your supercell.
 

 Routine SETGRP: Setting up the symmetry group for a 
 base centered monoclinic supercell.


 Subroutine GETGRP returns: Found  4 space group operations
 (whereof  4 operations were pure point group operations)
 out of a pool of  4 trial point group operations.


The dynamic configuration has the point symmetry C_2h.


Analysis of structural, dynamic, and magnetic symmetry:
=====================================================================
 Subroutine PRICEL returns following result:
 
  LATTYP: Found a trigonal (rhomboedric) cell.
 ALAT       =     4.2897703036
 COS(alpha) =     0.8333333283
  
  Lattice vectors:
  
 A1 = (   1.2383501000,   0.7149617400,  -4.0444342000)
 A2 = (   0.0000001000,  -1.4299234600,  -4.0444342000)
 A3 = (  -1.2383500000,   0.7149617400,  -4.0444342000)
 
   2 primitive cells build up your supercell.
 

 Routine SETGRP: Setting up the symmetry group for a 
 base centered monoclinic supercell.


 Subroutine GETGRP returns: Found  4 space group operations
 (whereof  2 operations were pure point group operations)
 out of a pool of  4 trial point group operations.


The magnetic configuration has the point symmetry C_1h.
 The point group associated with its full space group is C_2h.


 Subroutine INISYM returns: Found  4 space group operations
 (whereof  2 operations are pure point group operations),
 and found     2 'primitive' translations

 
 
 KPOINTS: k-points                                

Automatic generation of k-mesh.
Space group operators:
 irot       det(A)        alpha          n_x          n_y          n_z        tau_x        tau_y        tau_z
    1     1.000000     0.000001     1.000000     0.000000     0.000000     0.000000     0.000000     0.000000
    2    -1.000000   180.000000     1.000000     0.000000     0.000000     0.000000     0.000000     0.000000
    3    -1.000000     0.000001     1.000000     0.000000     0.000000     0.750000    -0.250000    -1.500000
    4     1.000000   180.000000     1.000000     0.000000     0.000000     0.750000    -0.250000    -1.500000
 
 Subroutine IBZKPT returns following result:
 ===========================================
 
 Found    366 irreducible k-points:
 
 Following reciprocal coordinates:
            Coordinates               Weight
  0.000000  0.000000  0.000000      1.000000
  0.090909 -0.000000  0.000000      4.000000
  0.181818 -0.000000  0.000000      4.000000
  0.272727 -0.000000  0.000000      4.000000
  0.363636 -0.000000  0.000000      4.000000
  0.454545 -0.000000  0.000000      4.000000
  0.000000  0.090909 -0.000000      2.000000
  0.090909  0.090909  0.000000      4.000000
  0.181818  0.090909  0.000000      4.000000
  0.272727  0.090909  0.000000      4.000000
  0.363636  0.090909  0.000000      4.000000
  0.454545  0.090909  0.000000      4.000000
 -0.454545  0.090909 -0.000000      4.000000
 -0.363636  0.090909 -0.000000      4.000000
 -0.272727  0.090909  0.000000      4.000000
 -0.181818  0.090909 -0.000000      4.000000
 -0.090909  0.090909 -0.000000      4.000000
  0.000000  0.181818 -0.000000      2.000000
  0.090909  0.181818  0.000000      4.000000
  0.181818  0.181818  0.000000      4.000000
  0.272727  0.181818  0.000000      4.000000
  0.363636  0.181818  0.000000      4.000000
  0.454545  0.181818  0.000000      4.000000
 -0.454545  0.181818 -0.000000      4.000000
 -0.363636  0.181818 -0.000000      4.000000
 -0.272727  0.181818 -0.000000      4.000000
 -0.181818  0.181818 -0.000000      4.000000
 -0.090909  0.181818 -0.000000      4.000000
  0.000000  0.272727 -0.000000      2.000000
  0.090909  0.272727  0.000000      4.000000
  0.181818  0.272727  0.000000      4.000000
  0.272727  0.272727  0.000000      4.000000
  0.363636  0.272727  0.000000      4.000000
  0.454545  0.272727  0.000000      4.000000
 -0.454545  0.272727 -0.000000      4.000000
 -0.363636  0.272727  0.000000      4.000000
 -0.272727  0.272727  0.000000      4.000000
 -0.181818  0.272727 -0.000000      4.000000
 -0.090909  0.272727 -0.000000      4.000000
  0.000000  0.363636 -0.000000      2.000000
  0.090909  0.363636  0.000000      4.000000
  0.181818  0.363636  0.000000      4.000000
  0.272727  0.363636 -0.000000      4.000000
  0.363636  0.363636  0.000000      4.000000
  0.454545  0.363636 -0.000000      4.000000
 -0.454545  0.363636 -0.000000      4.000000
 -0.363636  0.363636 -0.000000      4.000000
 -0.272727  0.363636  0.000000      4.000000
 -0.181818  0.363636 -0.000000      4.000000
 -0.090909  0.363636 -0.000000      4.000000
  0.000000  0.454545 -0.000000      2.000000
  0.090909  0.454545  0.000000      4.000000
  0.181818  0.454545  0.000000      4.000000
  0.272727  0.454545  0.000000      4.000000
  0.363636  0.454545  0.000000      4.000000
  0.454545  0.454545  0.000000      4.000000
 -0.454545  0.454545 -0.000000      4.000000
 -0.363636  0.454545 -0.000000      4.000000
 -0.272727  0.454545  0.000000      4.000000
 -0.181818  0.454545 -0.000000      4.000000
 -0.090909  0.454545 -0.000000      4.000000
  0.000000  0.000000  0.090909      2.000000
  0.181818 -0.000000  0.090909      2.000000
  0.272727 -0.000000  0.090909      4.000000
  0.363636 -0.000000  0.090909      4.000000
  0.454545 -0.000000  0.090909      4.000000
 -0.454545  0.000000  0.090909      4.000000
 -0.363636  0.000000  0.090909      4.000000
 -0.272727  0.000000  0.090909      4.000000
 -0.181818  0.000000  0.090909      4.000000
 -0.090909  0.000000  0.090909      4.000000
  0.000000  0.090909  0.090909      2.000000
  0.181818  0.090909  0.090909      4.000000
  0.272727  0.090909  0.090909      4.000000
  0.363636  0.090909  0.090909      4.000000
  0.454545  0.090909  0.090909      4.000000
 -0.454545  0.090909  0.090909      4.000000
 -0.363636  0.090909  0.090909      4.000000
 -0.272727  0.090909  0.090909      4.000000
 -0.181818  0.090909  0.090909      4.000000
 -0.090909  0.090909  0.090909      4.000000
  0.000000  0.181818  0.090909      2.000000
  0.181818  0.181818  0.090909      4.000000
  0.272727  0.181818  0.090909      4.000000
  0.363636  0.181818  0.090909      4.000000
  0.454545  0.181818  0.090909      4.000000
 -0.454545  0.181818  0.090909      4.000000
 -0.363636  0.181818  0.090909      4.000000
 -0.272727  0.181818  0.090909      4.000000
 -0.181818  0.181818  0.090909      4.000000
 -0.090909  0.181818  0.090909      4.000000
  0.000000  0.272727  0.090909      2.000000
  0.181818  0.272727  0.090909      4.000000
  0.272727  0.272727  0.090909      4.000000
  0.363636  0.272727  0.090909      4.000000
  0.454545  0.272727  0.090909      4.000000
 -0.454545  0.272727  0.090909      4.000000
 -0.363636  0.272727  0.090909      4.000000
 -0.272727  0.272727  0.090909      4.000000
 -0.181818  0.272727  0.090909      4.000000
 -0.090909  0.272727  0.090909      4.000000
  0.000000  0.363636  0.090909      2.000000
  0.181818  0.363636  0.090909      4.000000
  0.272727  0.363636  0.090909      4.000000
  0.363636  0.363636  0.090909      4.000000
  0.454545  0.363636  0.090909      4.000000
 -0.454545  0.363636  0.090909      4.000000
 -0.363636  0.363636  0.090909      4.000000
 -0.272727  0.363636  0.090909      4.000000
 -0.181818  0.363636  0.090909      4.000000
 -0.090909  0.363636  0.090909      4.000000
  0.000000  0.454545  0.090909      2.000000
  0.181818  0.454545  0.090909      4.000000
  0.272727  0.454545  0.090909      4.000000
  0.363636  0.454545  0.090909      4.000000
  0.454545  0.454545  0.090909      4.000000
 -0.454545  0.454545  0.090909      4.000000
 -0.363636  0.454545  0.090909      4.000000
 -0.272727  0.454545  0.090909      4.000000
 -0.181818  0.454545  0.090909      4.000000
 -0.090909  0.454545  0.090909      4.000000
  0.000000 -0.454545  0.090909      2.000000
  0.272727 -0.454545  0.090909      4.000000
  0.363636 -0.454545  0.090909      4.000000
  0.454545 -0.454545  0.090909      4.000000
 -0.454545 -0.454545  0.090909      4.000000
 -0.363636 -0.454545  0.090909      4.000000
 -0.272727 -0.454545  0.090909      4.000000
 -0.181818 -0.454545  0.090909      4.000000
 -0.090909 -0.454545  0.090909      4.000000
  0.000000 -0.363636  0.090909      2.000000
  0.272727 -0.363636  0.090909      4.000000
  0.363636 -0.363636  0.090909      4.000000
  0.454545 -0.363636  0.090909      4.000000
 -0.454545 -0.363636  0.090909      4.000000
 -0.363636 -0.363636  0.090909      4.000000
 -0.272727 -0.363636  0.090909      4.000000
 -0.181818 -0.363636  0.090909      4.000000
 -0.090909 -0.363636  0.090909      4.000000
  0.000000 -0.272727  0.090909      2.000000
  0.272727 -0.272727  0.090909      4.000000
  0.363636 -0.272727  0.090909      4.000000
  0.454545 -0.272727  0.090909      4.000000
 -0.454545 -0.272727  0.090909      4.000000
 -0.363636 -0.272727  0.090909      4.000000
 -0.272727 -0.272727  0.090909      4.000000
 -0.181818 -0.272727  0.090909      4.000000
 -0.090909 -0.272727  0.090909      4.000000
  0.000000 -0.181818  0.090909      2.000000
  0.272727 -0.181818  0.090909      4.000000
  0.363636 -0.181818  0.090909      4.000000
  0.454545 -0.181818  0.090909      4.000000
 -0.454545 -0.181818  0.090909      4.000000
 -0.363636 -0.181818  0.090909      4.000000
 -0.272727 -0.181818  0.090909      4.000000
 -0.181818 -0.181818  0.090909      4.000000
 -0.090909 -0.181818  0.090909      4.000000
  0.000000 -0.090909  0.090909      2.000000
  0.272727 -0.090909  0.090909      4.000000
  0.363636 -0.090909  0.090909      4.000000
  0.454545 -0.090909  0.090909      4.000000
 -0.454545 -0.090909  0.090909      4.000000
 -0.363636 -0.090909  0.090909      4.000000
 -0.272727 -0.090909  0.090909      4.000000
 -0.181818 -0.090909  0.090909      4.000000
 -0.090909 -0.090909  0.090909      4.000000
  0.000000  0.000000  0.181818      2.000000
  0.363636 -0.000000  0.181818      2.000000
  0.454545 -0.000000  0.181818      4.000000
 -0.454545  0.000000  0.181818      4.000000
 -0.363636  0.000000  0.181818      4.000000
 -0.272727  0.000000  0.181818      4.000000
 -0.181818  0.000000  0.181818      4.000000
 -0.090909  0.000000  0.181818      4.000000
  0.000000  0.090909  0.181818      2.000000
  0.363636  0.090909  0.181818      4.000000
  0.454545  0.090909  0.181818      4.000000
 -0.454545  0.090909  0.181818      4.000000
 -0.363636  0.090909  0.181818      4.000000
 -0.272727  0.090909  0.181818      4.000000
 -0.181818  0.090909  0.181818      4.000000
 -0.090909  0.090909  0.181818      4.000000
  0.000000  0.181818  0.181818      2.000000
  0.363636  0.181818  0.181818      4.000000
  0.454545  0.181818  0.181818      4.000000
 -0.454545  0.181818  0.181818      4.000000
 -0.363636  0.181818  0.181818      4.000000
 -0.272727  0.181818  0.181818      4.000000
 -0.181818  0.181818  0.181818      4.000000
 -0.090909  0.181818  0.181818      4.000000
  0.000000  0.272727  0.181818      2.000000
  0.363636  0.272727  0.181818      4.000000
  0.454545  0.272727  0.181818      4.000000
 -0.454545  0.272727  0.181818      4.000000
 -0.363636  0.272727  0.181818      4.000000
 -0.272727  0.272727  0.181818      4.000000
 -0.181818  0.272727  0.181818      4.000000
 -0.090909  0.272727  0.181818      4.000000
  0.000000  0.363636  0.181818      2.000000
  0.363636  0.363636  0.181818      4.000000
  0.454545  0.363636  0.181818      4.000000
 -0.454545  0.363636  0.181818      4.000000
 -0.363636  0.363636  0.181818      4.000000
 -0.272727  0.363636  0.181818      4.000000
 -0.181818  0.363636  0.181818      4.000000
 -0.090909  0.363636  0.181818      4.000000
  0.000000  0.454545  0.181818      2.000000
  0.363636  0.454545  0.181818      4.000000
  0.454545  0.454545  0.181818      4.000000
 -0.454545  0.454545  0.181818      4.000000
 -0.363636  0.454545  0.181818      4.000000
 -0.272727  0.454545  0.181818      4.000000
 -0.181818  0.454545  0.181818      4.000000
 -0.090909  0.454545  0.181818      4.000000
  0.000000 -0.454545  0.181818      2.000000
  0.454545 -0.454545  0.181818      4.000000
 -0.454545 -0.454545  0.181818      4.000000
 -0.363636 -0.454545  0.181818      4.000000
 -0.272727 -0.454545  0.181818      4.000000
 -0.181818 -0.454545  0.181818      4.000000
 -0.090909 -0.454545  0.181818      4.000000
  0.000000 -0.363636  0.181818      2.000000
  0.454545 -0.363636  0.181818      4.000000
 -0.454545 -0.363636  0.181818      4.000000
 -0.363636 -0.363636  0.181818      4.000000
 -0.272727 -0.363636  0.181818      4.000000
 -0.181818 -0.363636  0.181818      4.000000
 -0.090909 -0.363636  0.181818      4.000000
  0.000000 -0.272727  0.181818      2.000000
  0.454545 -0.272727  0.181818      4.000000
 -0.454545 -0.272727  0.181818      4.000000
 -0.363636 -0.272727  0.181818      4.000000
 -0.272727 -0.272727  0.181818      4.000000
 -0.181818 -0.272727  0.181818      4.000000
 -0.090909 -0.272727  0.181818      4.000000
  0.000000 -0.181818  0.181818      2.000000
  0.454545 -0.181818  0.181818      4.000000
 -0.454545 -0.181818  0.181818      4.000000
 -0.363636 -0.181818  0.181818      4.000000
 -0.272727 -0.181818  0.181818      4.000000
 -0.181818 -0.181818  0.181818      4.000000
 -0.090909 -0.181818  0.181818      4.000000
  0.000000 -0.090909  0.181818      2.000000
  0.454545 -0.090909  0.181818      4.000000
 -0.454545 -0.090909  0.181818      4.000000
 -0.363636 -0.090909  0.181818      4.000000
 -0.272727 -0.090909  0.181818      4.000000
 -0.181818 -0.090909  0.181818      4.000000
 -0.090909 -0.090909  0.181818      4.000000
  0.000000  0.000000  0.272727      2.000000
 -0.454545  0.000000  0.272727      2.000000
 -0.363636  0.000000  0.272727      4.000000
 -0.272727  0.000000  0.272727      4.000000
 -0.181818  0.000000  0.272727      4.000000
 -0.090909  0.000000  0.272727      4.000000
  0.000000  0.090909  0.272727      2.000000
 -0.454545  0.090909  0.272727      4.000000
 -0.363636  0.090909  0.272727      4.000000
 -0.272727  0.090909  0.272727      4.000000
 -0.181818  0.090909  0.272727      4.000000
 -0.090909  0.090909  0.272727      4.000000
  0.000000  0.181818  0.272727      2.000000
 -0.454545  0.181818  0.272727      4.000000
 -0.363636  0.181818  0.272727      4.000000
 -0.272727  0.181818  0.272727      4.000000
 -0.181818  0.181818  0.272727      4.000000
 -0.090909  0.181818  0.272727      4.000000
  0.000000  0.272727  0.272727      2.000000
 -0.454545  0.272727  0.272727      4.000000
 -0.363636  0.272727  0.272727      4.000000
 -0.272727  0.272727  0.272727      4.000000
 -0.181818  0.272727  0.272727      4.000000
 -0.090909  0.272727  0.272727      4.000000
  0.000000  0.363636  0.272727      2.000000
 -0.454545  0.363636  0.272727      4.000000
 -0.363636  0.363636  0.272727      4.000000
 -0.272727  0.363636  0.272727      4.000000
 -0.181818  0.363636  0.272727      4.000000
 -0.090909  0.363636  0.272727      4.000000
  0.000000  0.454545  0.272727      2.000000
 -0.454545  0.454545  0.272727      4.000000
 -0.363636  0.454545  0.272727      4.000000
 -0.272727  0.454545  0.272727      4.000000
 -0.181818  0.454545  0.272727      4.000000
 -0.090909  0.454545  0.272727      4.000000
  0.000000 -0.454545  0.272727      2.000000
 -0.363636 -0.454545  0.272727      4.000000
 -0.272727 -0.454545  0.272727      4.000000
 -0.181818 -0.454545  0.272727      4.000000
 -0.090909 -0.454545  0.272727      4.000000
  0.000000 -0.363636  0.272727      2.000000
 -0.363636 -0.363636  0.272727      4.000000
 -0.272727 -0.363636  0.272727      4.000000
 -0.181818 -0.363636  0.272727      4.000000
 -0.090909 -0.363636  0.272727      4.000000
  0.000000 -0.272727  0.272727      2.000000
 -0.363636 -0.272727  0.272727      4.000000
 -0.272727 -0.272727  0.272727      4.000000
 -0.181818 -0.272727  0.272727      4.000000
 -0.090909 -0.272727  0.272727      4.000000
  0.000000 -0.181818  0.272727      2.000000
 -0.363636 -0.181818  0.272727      4.000000
 -0.272727 -0.181818  0.272727      4.000000
 -0.181818 -0.181818  0.272727      4.000000
 -0.090909 -0.181818  0.272727      4.000000
  0.000000 -0.090909  0.272727      2.000000
 -0.363636 -0.090909  0.272727      4.000000
 -0.272727 -0.090909  0.272727      4.000000
 -0.181818 -0.090909  0.272727      4.000000
 -0.090909 -0.090909  0.272727      4.000000
  0.000000  0.000000  0.363636      2.000000
 -0.272727  0.000000  0.363636      2.000000
 -0.181818  0.000000  0.363636      4.000000
 -0.090909  0.000000  0.363636      4.000000
  0.000000  0.090909  0.363636      2.000000
 -0.272727  0.090909  0.363636      4.000000
 -0.181818  0.090909  0.363636      4.000000
 -0.090909  0.090909  0.363636      4.000000
  0.000000  0.181818  0.363636      2.000000
 -0.272727  0.181818  0.363636      4.000000
 -0.181818  0.181818  0.363636      4.000000
 -0.090909  0.181818  0.363636      4.000000
  0.000000  0.272727  0.363636      2.000000
 -0.272727  0.272727  0.363636      4.000000
 -0.181818  0.272727  0.363636      4.000000
 -0.090909  0.272727  0.363636      4.000000
  0.000000  0.363636  0.363636      2.000000
 -0.272727  0.363636  0.363636      4.000000
 -0.181818  0.363636  0.363636      4.000000
 -0.090909  0.363636  0.363636      4.000000
  0.000000  0.454545  0.363636      2.000000
 -0.272727  0.454545  0.363636      4.000000
 -0.181818  0.454545  0.363636      4.000000
 -0.090909  0.454545  0.363636      4.000000
  0.000000 -0.454545  0.363636      2.000000
 -0.181818 -0.454545  0.363636      4.000000
 -0.090909 -0.454545  0.363636      4.000000
  0.000000 -0.363636  0.363636      2.000000
 -0.181818 -0.363636  0.363636      4.000000
 -0.090909 -0.363636  0.363636      4.000000
  0.000000 -0.272727  0.363636      2.000000
 -0.181818 -0.272727  0.363636      4.000000
 -0.090909 -0.272727  0.363636      4.000000
  0.000000 -0.181818  0.363636      2.000000
 -0.181818 -0.181818  0.363636      4.000000
 -0.090909 -0.181818  0.363636      4.000000
  0.000000 -0.090909  0.363636      2.000000
 -0.181818 -0.090909  0.363636      4.000000
 -0.090909 -0.090909  0.363636      4.000000
  0.000000  0.000000  0.454545      2.000000
 -0.090909  0.000000  0.454545      2.000000
  0.000000  0.090909  0.454545      2.000000
 -0.090909  0.090909  0.454545      4.000000
  0.000000  0.181818  0.454545      2.000000
 -0.090909  0.181818  0.454545      4.000000
  0.000000  0.272727  0.454545      2.000000
 -0.090909  0.272727  0.454545      4.000000
  0.000000  0.363636  0.454545      2.000000
 -0.090909  0.363636  0.454545      4.000000
  0.000000  0.454545  0.454545      2.000000
 -0.090909  0.454545  0.454545      4.000000
  0.000000 -0.454545  0.454545      2.000000
  0.000000 -0.363636  0.454545      2.000000
  0.000000 -0.272727  0.454545      2.000000
  0.000000 -0.181818  0.454545      2.000000
  0.000000 -0.090909  0.454545      2.000000
 
 Following cartesian coordinates:
            Coordinates               Weight
  0.000000  0.000000  0.000000      1.000000
  0.036706  0.000000 -0.011239      4.000000
  0.073411  0.000000 -0.022478      4.000000
  0.110117  0.000000 -0.033716      4.000000
  0.146823  0.000000 -0.044955      4.000000
  0.183529  0.000000 -0.056194      4.000000
  0.000000  0.021192  0.003746      2.000000
  0.036706  0.021192 -0.007493      4.000000
  0.073411  0.021192 -0.018731      4.000000
  0.110117  0.021192 -0.029970      4.000000
  0.146823  0.021192 -0.041209      4.000000
  0.183529  0.021192 -0.052448      4.000000
 -0.183529  0.021192  0.059940      4.000000
 -0.146823  0.021192  0.048701      4.000000
 -0.110117  0.021192  0.037463      4.000000
 -0.073411  0.021192  0.026224      4.000000
 -0.036706  0.021192  0.014985      4.000000
  0.000000  0.042384  0.007493      2.000000
  0.036706  0.042384 -0.003746      4.000000
  0.073411  0.042384 -0.014985      4.000000
  0.110117  0.042384 -0.026224      4.000000
  0.146823  0.042384 -0.037463      4.000000
  0.183529  0.042384 -0.048701      4.000000
 -0.183529  0.042384  0.063686      4.000000
 -0.146823  0.042384  0.052448      4.000000
 -0.110117  0.042384  0.041209      4.000000
 -0.073411  0.042384  0.029970      4.000000
 -0.036706  0.042384  0.018731      4.000000
  0.000000  0.063576  0.011239      2.000000
  0.036706  0.063576  0.000000      4.000000
  0.073411  0.063576 -0.011239      4.000000
  0.110117  0.063576 -0.022478      4.000000
  0.146823  0.063576 -0.033716      4.000000
  0.183529  0.063576 -0.044955      4.000000
 -0.183529  0.063576  0.067433      4.000000
 -0.146823  0.063576  0.056194      4.000000
 -0.110117  0.063576  0.044955      4.000000
 -0.073411  0.063576  0.033716      4.000000
 -0.036706  0.063576  0.022478      4.000000
  0.000000  0.084768  0.014985      2.000000
  0.036706  0.084768  0.003746      4.000000
  0.073411  0.084768 -0.007493      4.000000
  0.110117  0.084768 -0.018731      4.000000
  0.146823  0.084768 -0.029970      4.000000
  0.183529  0.084768 -0.041209      4.000000
 -0.183529  0.084768  0.071179      4.000000
 -0.146823  0.084768  0.059940      4.000000
 -0.110117  0.084768  0.048701      4.000000
 -0.073411  0.084768  0.037463      4.000000
 -0.036706  0.084768  0.026224      4.000000
  0.000000  0.105960  0.018731      2.000000
  0.036706  0.105960  0.007493      4.000000
  0.073411  0.105960 -0.003746      4.000000
  0.110117  0.105960 -0.014985      4.000000
  0.146823  0.105960 -0.026224      4.000000
  0.183529  0.105960 -0.037463      4.000000
 -0.183529  0.105960  0.074925      4.000000
 -0.146823  0.105960  0.063686      4.000000
 -0.110117  0.105960  0.052448      4.000000
 -0.073411  0.105960  0.041209      4.000000
 -0.036706  0.105960  0.029970      4.000000
  0.000000  0.000000  0.022478      2.000000
  0.073411  0.000000  0.000000      2.000000
  0.110117  0.000000 -0.011239      4.000000
  0.146823  0.000000 -0.022478      4.000000
  0.183529  0.000000 -0.033716      4.000000
 -0.183529 -0.000000  0.078672      4.000000
 -0.146823 -0.000000  0.067433      4.000000
 -0.110117 -0.000000  0.056194      4.000000
 -0.073411 -0.000000  0.044955      4.000000
 -0.036706 -0.000000  0.033716      4.000000
  0.000000  0.021192  0.026224      2.000000
  0.073411  0.021192  0.003746      4.000000
  0.110117  0.021192 -0.007493      4.000000
  0.146823  0.021192 -0.018731      4.000000
  0.183529  0.021192 -0.029970      4.000000
 -0.183529  0.021192  0.082418      4.000000
 -0.146823  0.021192  0.071179      4.000000
 -0.110117  0.021192  0.059940      4.000000
 -0.073411  0.021192  0.048701      4.000000
 -0.036706  0.021192  0.037463      4.000000
  0.000000  0.042384  0.029970      2.000000
  0.073411  0.042384  0.007493      4.000000
  0.110117  0.042384 -0.003746      4.000000
  0.146823  0.042384 -0.014985      4.000000
  0.183529  0.042384 -0.026224      4.000000
 -0.183529  0.042384  0.086164      4.000000
 -0.146823  0.042384  0.074925      4.000000
 -0.110117  0.042384  0.063686      4.000000
 -0.073411  0.042384  0.052448      4.000000
 -0.036706  0.042384  0.041209      4.000000
  0.000000  0.063576  0.033716      2.000000
  0.073411  0.063576  0.011239      4.000000
  0.110117  0.063576  0.000000      4.000000
  0.146823  0.063576 -0.011239      4.000000
  0.183529  0.063576 -0.022478      4.000000
 -0.183529  0.063576  0.089910      4.000000
 -0.146823  0.063576  0.078672      4.000000
 -0.110117  0.063576  0.067433      4.000000
 -0.073411  0.063576  0.056194      4.000000
 -0.036706  0.063576  0.044955      4.000000
  0.000000  0.084768  0.037463      2.000000
  0.073411  0.084768  0.014985      4.000000
  0.110117  0.084768  0.003746      4.000000
  0.146823  0.084768 -0.007493      4.000000
  0.183529  0.084768 -0.018731      4.000000
 -0.183529  0.084768  0.093657      4.000000
 -0.146823  0.084768  0.082418      4.000000
 -0.110117  0.084768  0.071179      4.000000
 -0.073411  0.084768  0.059940      4.000000
 -0.036706  0.084768  0.048701      4.000000
  0.000000  0.105960  0.041209      2.000000
  0.073411  0.105960  0.018731      4.000000
  0.110117  0.105960  0.007493      4.000000
  0.146823  0.105960 -0.003746      4.000000
  0.183529  0.105960 -0.014985      4.000000
 -0.183529  0.105960  0.097403      4.000000
 -0.146823  0.105960  0.086164      4.000000
 -0.110117  0.105960  0.074925      4.000000
 -0.073411  0.105960  0.063686      4.000000
 -0.036706  0.105960  0.052448      4.000000
  0.000000 -0.105960  0.003746      2.000000
  0.110117 -0.105960 -0.029970      4.000000
  0.146823 -0.105960 -0.041209      4.000000
  0.183529 -0.105960 -0.052448      4.000000
 -0.183529 -0.105960  0.059940      4.000000
 -0.146823 -0.105960  0.048701      4.000000
 -0.110117 -0.105960  0.037463      4.000000
 -0.073411 -0.105960  0.026224      4.000000
 -0.036706 -0.105960  0.014985      4.000000
  0.000000 -0.084768  0.007493      2.000000
  0.110117 -0.084768 -0.026224      4.000000
  0.146823 -0.084768 -0.037463      4.000000
  0.183529 -0.084768 -0.048701      4.000000
 -0.183529 -0.084768  0.063686      4.000000
 -0.146823 -0.084768  0.052448      4.000000
 -0.110117 -0.084768  0.041209      4.000000
 -0.073411 -0.084768  0.029970      4.000000
 -0.036706 -0.084768  0.018731      4.000000
  0.000000 -0.063576  0.011239      2.000000
  0.110117 -0.063576 -0.022478      4.000000
  0.146823 -0.063576 -0.033716      4.000000
  0.183529 -0.063576 -0.044955      4.000000
 -0.183529 -0.063576  0.067433      4.000000
 -0.146823 -0.063576  0.056194      4.000000
 -0.110117 -0.063576  0.044955      4.000000
 -0.073411 -0.063576  0.033716      4.000000
 -0.036706 -0.063576  0.022478      4.000000
  0.000000 -0.042384  0.014985      2.000000
  0.110117 -0.042384 -0.018731      4.000000
  0.146823 -0.042384 -0.029970      4.000000
  0.183529 -0.042384 -0.041209      4.000000
 -0.183529 -0.042384  0.071179      4.000000
 -0.146823 -0.042384  0.059940      4.000000
 -0.110117 -0.042384  0.048701      4.000000
 -0.073411 -0.042384  0.037463      4.000000
 -0.036706 -0.042384  0.026224      4.000000
  0.000000 -0.021192  0.018731      2.000000
  0.110117 -0.021192 -0.014985      4.000000
  0.146823 -0.021192 -0.026224      4.000000
  0.183529 -0.021192 -0.037463      4.000000
 -0.183529 -0.021192  0.074925      4.000000
 -0.146823 -0.021192  0.063686      4.000000
 -0.110117 -0.021192  0.052448      4.000000
 -0.073411 -0.021192  0.041209      4.000000
 -0.036706 -0.021192  0.029970      4.000000
  0.000000  0.000000  0.044955      2.000000
  0.146823  0.000000  0.000000      2.000000
  0.183529  0.000000 -0.011239      4.000000
 -0.183529 -0.000000  0.101149      4.000000
 -0.146823 -0.000000  0.089910      4.000000
 -0.110117 -0.000000  0.078672      4.000000
 -0.073411 -0.000000  0.067433      4.000000
 -0.036706 -0.000000  0.056194      4.000000
  0.000000  0.021192  0.048701      2.000000
  0.146823  0.021192  0.003746      4.000000
  0.183529  0.021192 -0.007493      4.000000
 -0.183529  0.021192  0.104895      4.000000
 -0.146823  0.021192  0.093657      4.000000
 -0.110117  0.021192  0.082418      4.000000
 -0.073411  0.021192  0.071179      4.000000
 -0.036706  0.021192  0.059940      4.000000
  0.000000  0.042384  0.052448      2.000000
  0.146823  0.042384  0.007493      4.000000
  0.183529  0.042384 -0.003746      4.000000
 -0.183529  0.042384  0.108642      4.000000
 -0.146823  0.042384  0.097403      4.000000
 -0.110117  0.042384  0.086164      4.000000
 -0.073411  0.042384  0.074925      4.000000
 -0.036706  0.042384  0.063686      4.000000
  0.000000  0.063576  0.056194      2.000000
  0.146823  0.063576  0.011239      4.000000
  0.183529  0.063576  0.000000      4.000000
 -0.183529  0.063576  0.112388      4.000000
 -0.146823  0.063576  0.101149      4.000000
 -0.110117  0.063576  0.089910      4.000000
 -0.073411  0.063576  0.078672      4.000000
 -0.036706  0.063576  0.067433      4.000000
  0.000000  0.084768  0.059940      2.000000
  0.146823  0.084768  0.014985      4.000000
  0.183529  0.084768  0.003746      4.000000
 -0.183529  0.084768  0.116134      4.000000
 -0.146823  0.084768  0.104895      4.000000
 -0.110117  0.084768  0.093657      4.000000
 -0.073411  0.084768  0.082418      4.000000
 -0.036706  0.084768  0.071179      4.000000
  0.000000  0.105960  0.063686      2.000000
  0.146823  0.105960  0.018731      4.000000
  0.183529  0.105960  0.007493      4.000000
 -0.183529  0.105960  0.119880      4.000000
 -0.146823  0.105960  0.108642      4.000000
 -0.110117  0.105960  0.097403      4.000000
 -0.073411  0.105960  0.086164      4.000000
 -0.036706  0.105960  0.074925      4.000000
  0.000000 -0.105960  0.026224      2.000000
  0.183529 -0.105960 -0.029970      4.000000
 -0.183529 -0.105960  0.082418      4.000000
 -0.146823 -0.105960  0.071179      4.000000
 -0.110117 -0.105960  0.059940      4.000000
 -0.073411 -0.105960  0.048701      4.000000
 -0.036706 -0.105960  0.037463      4.000000
  0.000000 -0.084768  0.029970      2.000000
  0.183529 -0.084768 -0.026224      4.000000
 -0.183529 -0.084768  0.086164      4.000000
 -0.146823 -0.084768  0.074925      4.000000
 -0.110117 -0.084768  0.063686      4.000000
 -0.073411 -0.084768  0.052448      4.000000
 -0.036706 -0.084768  0.041209      4.000000
  0.000000 -0.063576  0.033716      2.000000
  0.183529 -0.063576 -0.022478      4.000000
 -0.183529 -0.063576  0.089910      4.000000
 -0.146823 -0.063576  0.078672      4.000000
 -0.110117 -0.063576  0.067433      4.000000
 -0.073411 -0.063576  0.056194      4.000000
 -0.036706 -0.063576  0.044955      4.000000
  0.000000 -0.042384  0.037463      2.000000
  0.183529 -0.042384 -0.018731      4.000000
 -0.183529 -0.042384  0.093657      4.000000
 -0.146823 -0.042384  0.082418      4.000000
 -0.110117 -0.042384  0.071179      4.000000
 -0.073411 -0.042384  0.059940      4.000000
 -0.036706 -0.042384  0.048701      4.000000
  0.000000 -0.021192  0.041209      2.000000
  0.183529 -0.021192 -0.014985      4.000000
 -0.183529 -0.021192  0.097403      4.000000
 -0.146823 -0.021192  0.086164      4.000000
 -0.110117 -0.021192  0.074925      4.000000
 -0.073411 -0.021192  0.063686      4.000000
 -0.036706 -0.021192  0.052448      4.000000
  0.000000  0.000000  0.067433      2.000000
 -0.183529 -0.000000  0.123627      2.000000
 -0.146823 -0.000000  0.112388      4.000000
 -0.110117 -0.000000  0.101149      4.000000
 -0.073411 -0.000000  0.089910      4.000000
 -0.036706 -0.000000  0.078672      4.000000
  0.000000  0.021192  0.071179      2.000000
 -0.183529  0.021192  0.127373      4.000000
 -0.146823  0.021192  0.116134      4.000000
 -0.110117  0.021192  0.104895      4.000000
 -0.073411  0.021192  0.093657      4.000000
 -0.036706  0.021192  0.082418      4.000000
  0.000000  0.042384  0.074925      2.000000
 -0.183529  0.042384  0.131119      4.000000
 -0.146823  0.042384  0.119880      4.000000
 -0.110117  0.042384  0.108642      4.000000
 -0.073411  0.042384  0.097403      4.000000
 -0.036706  0.042384  0.086164      4.000000
  0.000000  0.063576  0.078672      2.000000
 -0.183529  0.063576  0.134865      4.000000
 -0.146823  0.063576  0.123627      4.000000
 -0.110117  0.063576  0.112388      4.000000
 -0.073411  0.063576  0.101149      4.000000
 -0.036706  0.063576  0.089910      4.000000
  0.000000  0.084768  0.082418      2.000000
 -0.183529  0.084768  0.138612      4.000000
 -0.146823  0.084768  0.127373      4.000000
 -0.110117  0.084768  0.116134      4.000000
 -0.073411  0.084768  0.104895      4.000000
 -0.036706  0.084768  0.093657      4.000000
  0.000000  0.105960  0.086164      2.000000
 -0.183529  0.105960  0.142358      4.000000
 -0.146823  0.105960  0.131119      4.000000
 -0.110117  0.105960  0.119880      4.000000
 -0.073411  0.105960  0.108642      4.000000
 -0.036706  0.105960  0.097403      4.000000
  0.000000 -0.105960  0.048701      2.000000
 -0.146823 -0.105960  0.093657      4.000000
 -0.110117 -0.105960  0.082418      4.000000
 -0.073411 -0.105960  0.071179      4.000000
 -0.036706 -0.105960  0.059940      4.000000
  0.000000 -0.084768  0.052448      2.000000
 -0.146823 -0.084768  0.097403      4.000000
 -0.110117 -0.084768  0.086164      4.000000
 -0.073411 -0.084768  0.074925      4.000000
 -0.036706 -0.084768  0.063686      4.000000
  0.000000 -0.063576  0.056194      2.000000
 -0.146823 -0.063576  0.101149      4.000000
 -0.110117 -0.063576  0.089910      4.000000
 -0.073411 -0.063576  0.078672      4.000000
 -0.036706 -0.063576  0.067433      4.000000
  0.000000 -0.042384  0.059940      2.000000
 -0.146823 -0.042384  0.104895      4.000000
 -0.110117 -0.042384  0.093657      4.000000
 -0.073411 -0.042384  0.082418      4.000000
 -0.036706 -0.042384  0.071179      4.000000
  0.000000 -0.021192  0.063686      2.000000
 -0.146823 -0.021192  0.108642      4.000000
 -0.110117 -0.021192  0.097403      4.000000
 -0.073411 -0.021192  0.086164      4.000000
 -0.036706 -0.021192  0.074925      4.000000
  0.000000  0.000000  0.089910      2.000000
 -0.110117 -0.000000  0.123627      2.000000
 -0.073411 -0.000000  0.112388      4.000000
 -0.036706 -0.000000  0.101149      4.000000
  0.000000  0.021192  0.093657      2.000000
 -0.110117  0.021192  0.127373      4.000000
 -0.073411  0.021192  0.116134      4.000000
 -0.036706  0.021192  0.104895      4.000000
  0.000000  0.042384  0.097403      2.000000
 -0.110117  0.042384  0.131119      4.000000
 -0.073411  0.042384  0.119880      4.000000
 -0.036706  0.042384  0.108642      4.000000
  0.000000  0.063576  0.101149      2.000000
 -0.110117  0.063576  0.134865      4.000000
 -0.073411  0.063576  0.123627      4.000000
 -0.036706  0.063576  0.112388      4.000000
  0.000000  0.084768  0.104895      2.000000
 -0.110117  0.084768  0.138612      4.000000
 -0.073411  0.084768  0.127373      4.000000
 -0.036706  0.084768  0.116134      4.000000
  0.000000  0.105960  0.108642      2.000000
 -0.110117  0.105960  0.142358      4.000000
 -0.073411  0.105960  0.131119      4.000000
 -0.036706  0.105960  0.119880      4.000000
  0.000000 -0.105960  0.071179      2.000000
 -0.073411 -0.105960  0.093657      4.000000
 -0.036706 -0.105960  0.082418      4.000000
  0.000000 -0.084768  0.074925      2.000000
 -0.073411 -0.084768  0.097403      4.000000
 -0.036706 -0.084768  0.086164      4.000000
  0.000000 -0.063576  0.078672      2.000000
 -0.073411 -0.063576  0.101149      4.000000
 -0.036706 -0.063576  0.089910      4.000000
  0.000000 -0.042384  0.082418      2.000000
 -0.073411 -0.042384  0.104895      4.000000
 -0.036706 -0.042384  0.093657      4.000000
  0.000000 -0.021192  0.086164      2.000000
 -0.073411 -0.021192  0.108642      4.000000
 -0.036706 -0.021192  0.097403      4.000000
  0.000000  0.000000  0.112388      2.000000
 -0.036706 -0.000000  0.123627      2.000000
  0.000000  0.021192  0.116134      2.000000
 -0.036706  0.021192  0.127373      4.000000
  0.000000  0.042384  0.119880      2.000000
 -0.036706  0.042384  0.131119      4.000000
  0.000000  0.063576  0.123627      2.000000
 -0.036706  0.063576  0.134865      4.000000
  0.000000  0.084768  0.127373      2.000000
 -0.036706  0.084768  0.138612      4.000000
  0.000000  0.105960  0.131119      2.000000
 -0.036706  0.105960  0.142358      4.000000
  0.000000 -0.105960  0.093657      2.000000
  0.000000 -0.084768  0.097403      2.000000
  0.000000 -0.063576  0.101149      2.000000
  0.000000 -0.042384  0.104895      2.000000
  0.000000 -0.021192  0.108642      2.000000
 


--------------------------------------------------------------------------------------------------------




 Dimension of arrays:
   k-points           NKPTS =    366   k-points in BZ     NKDIM =    366   number of bands    NBANDS=     24
   number of dos      NEDOS =    301   number of ions     NIONS =      4
   non local maximal  LDIM  =      6   non local SUM 2l+1 LMDIM =     18
   total plane-waves  NPLWV =  18432
   max r-space proj   IRMAX =      1   max aug-charges    IRDMAX=  14102
   dimension x,y,z NGX =    18 NGY =   32 NGZ =   32
   dimension x,y,z NGXF=    36 NGYF=   64 NGZF=   64
   support grid    NGXF=    36 NGYF=   64 NGZF=   64
   ions per type =               4
   NGX,Y,Z   is equivalent  to a cutoff of  12.08, 12.40, 12.40 a.u.
   NGXF,Y,Z  is equivalent  to a cutoff of  24.16, 24.80, 24.80 a.u.

 SYSTEM =  unknown system                          
 POSCAR =  Ni1 str #: 5                            

 Startparameter for this run:
   NWRITE =      2    write-flag & timer
   PREC   = accura    normal or accurate (medium, high low for compatibility)
   ISTART =      0    job   : 0-new  1-cont  2-samecut
   ICHARG =      2    charge: 1-file 2-atom 10-const
   ISPIN  =      2    spin polarized calculation?
   LNONCOLLINEAR =      F non collinear calculations
   LSORBIT =      F    spin-orbit coupling
   INIWAV =      1    electr: 0-lowe 1-rand  2-diag
   LASPH  =      T    aspherical Exc in radial PAW
   METAGGA=      F    non-selfconsistent MetaGGA calc.

 Electronic Relaxation 1
   ENCUT  =  520.0 eV  38.22 Ry    6.18 a.u.   4.61  7.98  7.98*2*pi/ulx,y,z
   ENINI  =  520.0     initial cutoff
   ENAUG  =  544.6 eV  augmentation charge cutoff
   NELM   =     60;   NELMIN=  2; NELMDL= -5     # of ELM steps 
   EDIFF  = 0.1E-05   stopping-criterion for ELM
   LREAL  =      F    real-space projection
   NLSPLINE    = F    spline interpolate recip. space projectors
   LCOMPAT=      F    compatible to vasp.4.4
   GGA_COMPAT  = T    GGA compatible to vasp.4.4-vasp.4.6
   LMAXPAW     = -100 max onsite density
   LMAXMIX     =    2 max onsite mixed and CHGCAR
   VOSKOWN=      0    Vosko Wilk Nusair interpolation
   ROPT   =    0.00000
 Ionic relaxation
   EDIFFG = 0.1E-04   stopping-criterion for IOM
   NSW    =      0    number of steps for IOM
   NBLOCK =      1;   KBLOCK =      1    inner block; outer block 
   IBRION =     -1    ionic relax: 0-MD 1-quasi-New 2-CG
   NFREE  =      1    steps in history (QN), initial steepest desc. (CG)
   ISIF   =      2    stress and relaxation
   IWAVPR =     10    prediction:  0-non 1-charg 2-wave 3-comb
   ISYM   =      2    0-nonsym 1-usesym 2-fastsym
   LCORR  =      T    Harris-Foulkes like correction to forces

   POTIM  = 0.5000    time-step for ionic-motion
   TEIN   =    0.0    initial temperature
   TEBEG  =    0.0;   TEEND  =   0.0 temperature during run
   SMASS  =  -3.00    Nose mass-parameter (am)
   estimated Nose-frequenzy (Omega)   =  0.10E-29 period in steps =****** mass=  -0.140E-27a.u.
   SCALEE = 1.0000    scale energy and forces
   NPACO  =    256;   APACO  = 16.0  distance and # of slots for P.C.
   PSTRESS=    0.0 pullay stress

  Mass of Ions in am
   POMASS =  58.69
  Ionic Valenz
   ZVAL   =  10.00
  Atomic Wigner-Seitz radii
   RWIGS  =  -1.00
  virtual crystal weights 
   VCA    =   1.00
   NELECT =      40.0000    total number of electrons
   NUPDOWN=      -1.0000    fix difference up-down

 DOS related values:
   EMIN   =  10.00;   EMAX   =-10.00  energy-range for DOS
   EFERMI =   0.00
   ISMEAR =     1;   SIGMA  =   0.20  broadening in eV -4-tet -1-fermi 0-gaus

 Electronic relaxation 2 (details)
   IALGO  =     38    algorithm
   LDIAG  =      T    sub-space diagonalisation (order eigenvalues)
   LSUBROT=      F    optimize rotation matrix (better conditioning)
   TURBO    =      0    0=normal 1=particle mesh
   IRESTART =      0    0=no restart 2=restart with 2 vectors
   NREBOOT  =      0    no. of reboots
   NMIN     =      0    reboot dimension
   EREF     =   0.00    reference energy to select bands
   IMIX   =      4    mixing-type and parameters
     AMIX     =   0.40;   BMIX     =  1.00
     AMIX_MAG =   1.60;   BMIX_MAG =  1.00
     AMIN     =   0.10
     WC   =   100.;   INIMIX=   1;  MIXPRE=   1;  MAXMIX= -45

 Intra band minimization:
   WEIMIN = 0.0000     energy-eigenvalue tresh-hold
   EBREAK =  0.10E-07  absolut break condition
   DEPER  =   0.30     relativ break condition  

   TIME   =   0.40     timestep for ELM

  volume/ion in A,a.u.               =      10.74        72.49
  Fermi-wavevector in a.u.,A,eV,Ry     =   1.598477  3.020684 34.764640  2.555129
  Thomas-Fermi vector in A             =   2.695921
 
 Write flags
   LWAVE        =      F    write WAVECAR
   LDOWNSAMPLE  =      F    k-point downsampling of WAVECAR
   LCHARG       =      F    write CHGCAR
   LVTOT        =      F    write LOCPOT, total local potential
   LVHAR        =      F    write LOCPOT, Hartree potential only
   LELF         =      F    write electronic localiz. function (ELF)
   LORBIT       =     11    0 simple, 1 ext, 2 COOP (PROOUT), +10 PAW based schemes


 Dipole corrections
   LMONO  =      F    monopole corrections only (constant potential shift)
   LDIPOL =      F    correct potential (dipole corrections)
   IDIPOL =      0    1-x, 2-y, 3-z, 4-all directions 
   EPSILON=  1.0000000 bulk dielectric constant

 Exchange correlation treatment:
   GGA     =    --    GGA type
   LEXCH   =     8    internal setting for exchange type
   VOSKOWN=      0    Vosko Wilk Nusair interpolation
   LHFCALC =     F    Hartree Fock is set to
   LHFONE  =     F    Hartree Fock one center treatment
   AEXX    =    0.0000 exact exchange contribution

 Linear response parameters
   LEPSILON=     F    determine dielectric tensor
   LRPA    =     F    only Hartree local field effects (RPA)
   LNABLA  =     F    use nabla operator in PAW spheres
   LVEL    =     F    velocity operator in full k-point grid
   LINTERFAST=   F  fast interpolation
   KINTER  =     0    interpolate to denser k-point grid
   CSHIFT  =0.1000    complex shift for real part using Kramers Kronig
   OMEGAMAX=  -1.0    maximum frequency
   DEG_THRESHOLD= 0.2000000E-02 threshold for treating states as degnerate
   RTIME   =   -0.100 relaxation time in fs
  (WPLASMAI=    0.000 imaginary part of plasma frequency in eV, 0.658/RTIME)
   DFIELD  = 0.0000000 0.0000000 0.0000000 field for delta impulse in time
 
 Orbital magnetization related:
   ORBITALMAG=     F  switch on orbital magnetization
   LCHIMAG   =     F  perturbation theory with respect to B field
   DQ        =  0.001000  dq finite difference perturbation B field
   LLRAUG    =     F  two centre corrections for induced B field



--------------------------------------------------------------------------------------------------------


 Static calculation
 charge density and potential will be updated during run
 spin polarized calculation
 Variant of blocked Davidson
 Davidson routine will perform the subspace rotation
 perform sub-space diagonalisation
    after iterative eigenvector-optimisation
 modified Broyden-mixing scheme, WC =      100.0
 initial mixing is a Kerker type mixing with AMIX =  0.4000 and BMIX =      1.0000
 Hartree-type preconditioning will be used
 using additional bands            4
 reciprocal scheme for non local part
 use partial core corrections
 calculate Harris-corrections to forces 
   (improved forces if not selfconsistent)
 use gradient corrections 
 use of overlap-Matrix (Vanderbilt PP)
 Methfessel and Paxton  Order N= 1 SIGMA  =   0.20


--------------------------------------------------------------------------------------------------------


  energy-cutoff  :      520.00
  volume of cell :       42.97
      direct lattice vectors                 reciprocal lattice vectors
     2.476700100  0.000000000  0.000000000     0.403763056  0.000000009 -0.123626680
    -0.000000100  4.289770400  0.000000000     0.000000000  0.233112709  0.041208896
     1.238350000 -0.714961740  4.044434200     0.000000000  0.000000000  0.247253374

  length of vectors
     2.476700100  4.289770400  4.289770275     0.422265510  0.236727076  0.247253374


 
 k-points in units of 2pi/SCALE and weight: k-points                                
   0.00000000  0.00000000  0.00000000       0.001
   0.03670573  0.00000000 -0.01123879       0.003
   0.07341146  0.00000000 -0.02247758       0.003
   0.11011720  0.00000000 -0.03371637       0.003
   0.14682293  0.00000000 -0.04495516       0.003
   0.18352866  0.00000000 -0.05619395       0.003
   0.00000000  0.02119206  0.00374626       0.002
   0.03670573  0.02119207 -0.00749253       0.003
   0.07341146  0.02119207 -0.01873131       0.003
   0.11011720  0.02119207 -0.02997010       0.003
   0.14682293  0.02119207 -0.04120889       0.003
   0.18352866  0.02119207 -0.05244768       0.003
  -0.18352866  0.02119206  0.05994021       0.003
  -0.14682293  0.02119206  0.04870142       0.003
  -0.11011720  0.02119206  0.03746263       0.003
  -0.07341146  0.02119206  0.02622384       0.003
  -0.03670573  0.02119206  0.01498505       0.003
   0.00000000  0.04238413  0.00749253       0.002
   0.03670573  0.04238413 -0.00374626       0.003
   0.07341146  0.04238413 -0.01498505       0.003
   0.11011720  0.04238413 -0.02622384       0.003
   0.14682293  0.04238413 -0.03746263       0.003
   0.18352866  0.04238413 -0.04870142       0.003
  -0.18352866  0.04238412  0.06368647       0.003
  -0.14682293  0.04238413  0.05244768       0.003
  -0.11011720  0.04238413  0.04120889       0.003
  -0.07341146  0.04238413  0.02997010       0.003
  -0.03670573  0.04238413  0.01873132       0.003
   0.00000000  0.06357619  0.01123879       0.002
   0.03670573  0.06357619  0.00000000       0.003
   0.07341146  0.06357620 -0.01123879       0.003
   0.11011720  0.06357620 -0.02247758       0.003
   0.14682293  0.06357620 -0.03371637       0.003
   0.18352866  0.06357620 -0.04495516       0.003
  -0.18352866  0.06357619  0.06743274       0.003
  -0.14682293  0.06357619  0.05619395       0.003
  -0.11011720  0.06357619  0.04495516       0.003
  -0.07341146  0.06357619  0.03371637       0.003
  -0.03670573  0.06357619  0.02247758       0.003
   0.00000000  0.08476826  0.01498505       0.002
   0.03670573  0.08476826  0.00374626       0.003
   0.07341146  0.08476826 -0.00749253       0.003
   0.11011720  0.08476826 -0.01873131       0.003
   0.14682293  0.08476826 -0.02997010       0.003
   0.18352866  0.08476826 -0.04120889       0.003
  -0.18352866  0.08476825  0.07117900       0.003
  -0.14682293  0.08476825  0.05994021       0.003
  -0.11011720  0.08476826  0.04870142       0.003
  -0.07341146  0.08476826  0.03746263       0.003
  -0.03670573  0.08476826  0.02622384       0.003
   0.00000000  0.10596032  0.01873132       0.002
   0.03670573  0.10596032  0.00749253       0.003
   0.07341146  0.10596032 -0.00374626       0.003
   0.11011720  0.10596032 -0.01498505       0.003
   0.14682293  0.10596033 -0.02622384       0.003
   0.18352866  0.10596033 -0.03746263       0.003
  -0.18352866  0.10596032  0.07492526       0.003
  -0.14682293  0.10596032  0.06368647       0.003
  -0.11011720  0.10596032  0.05244768       0.003
  -0.07341146  0.10596032  0.04120889       0.003
  -0.03670573  0.10596032  0.02997011       0.003
   0.00000000  0.00000000  0.02247758       0.002
   0.07341146  0.00000000  0.00000000       0.002
   0.11011720  0.00000000 -0.01123879       0.003
   0.14682293  0.00000000 -0.02247758       0.003
   0.18352866  0.00000000 -0.03371637       0.003
  -0.18352866 -0.00000000  0.07867152       0.003
  -0.14682293 -0.00000000  0.06743274       0.003
  -0.11011720 -0.00000000  0.05619395       0.003
  -0.07341146 -0.00000000  0.04495516       0.003
  -0.03670573 -0.00000000  0.03371637       0.003
   0.00000000  0.02119206  0.02622384       0.002
   0.07341146  0.02119207  0.00374626       0.003
   0.11011720  0.02119207 -0.00749252       0.003
   0.14682293  0.02119207 -0.01873131       0.003
   0.18352866  0.02119207 -0.02997010       0.003
  -0.18352866  0.02119206  0.08241779       0.003
  -0.14682293  0.02119206  0.07117900       0.003
  -0.11011720  0.02119206  0.05994021       0.003
  -0.07341146  0.02119206  0.04870142       0.003
  -0.03670573  0.02119206  0.03746263       0.003
   0.00000000  0.04238413  0.02997011       0.002
   0.07341146  0.04238413  0.00749253       0.003
   0.11011720  0.04238413 -0.00374626       0.003
   0.14682293  0.04238413 -0.01498505       0.003
   0.18352866  0.04238413 -0.02622384       0.003
  -0.18352866  0.04238412  0.08616405       0.003
  -0.14682293  0.04238413  0.07492526       0.003
  -0.11011720  0.04238413  0.06368647       0.003
  -0.07341146  0.04238413  0.05244768       0.003
  -0.03670573  0.04238413  0.04120890       0.003
   0.00000000  0.06357619  0.03371637       0.002
   0.07341146  0.06357620  0.01123879       0.003
   0.11011720  0.06357620  0.00000000       0.003
   0.14682293  0.06357620 -0.01123879       0.003
   0.18352866  0.06357620 -0.02247758       0.003
  -0.18352866  0.06357619  0.08991031       0.003
  -0.14682293  0.06357619  0.07867153       0.003
  -0.11011720  0.06357619  0.06743274       0.003
  -0.07341146  0.06357619  0.05619395       0.003
  -0.03670573  0.06357619  0.04495516       0.003
   0.00000000  0.08476826  0.03746263       0.002
   0.07341146  0.08476826  0.01498505       0.003
   0.11011720  0.08476826  0.00374627       0.003
   0.14682293  0.08476826 -0.00749252       0.003
   0.18352866  0.08476826 -0.01873131       0.003
  -0.18352866  0.08476825  0.09365658       0.003
  -0.14682293  0.08476825  0.08241779       0.003
  -0.11011720  0.08476826  0.07117900       0.003
  -0.07341146  0.08476826  0.05994021       0.003
  -0.03670573  0.08476826  0.04870142       0.003
   0.00000000  0.10596032  0.04120890       0.002
   0.07341146  0.10596032  0.01873132       0.003
   0.11011720  0.10596032  0.00749253       0.003
   0.14682293  0.10596033 -0.00374626       0.003
   0.18352866  0.10596033 -0.01498505       0.003
  -0.18352866  0.10596032  0.09740284       0.003
  -0.14682293  0.10596032  0.08616405       0.003
  -0.11011720  0.10596032  0.07492526       0.003
  -0.07341146  0.10596032  0.06368647       0.003
  -0.03670573  0.10596032  0.05244768       0.003
   0.00000000 -0.10596032  0.00374626       0.002
   0.11011720 -0.10596032 -0.02997010       0.003
   0.14682293 -0.10596032 -0.04120889       0.003
   0.18352866 -0.10596032 -0.05244768       0.003
  -0.18352866 -0.10596033  0.05994021       0.003
  -0.14682293 -0.10596033  0.04870142       0.003
  -0.11011720 -0.10596032  0.03746263       0.003
  -0.07341146 -0.10596032  0.02622384       0.003
  -0.03670573 -0.10596032  0.01498505       0.003
   0.00000000 -0.08476826  0.00749253       0.002
   0.11011720 -0.08476826 -0.02622384       0.003
   0.14682293 -0.08476825 -0.03746263       0.003
   0.18352866 -0.08476825 -0.04870142       0.003
  -0.18352866 -0.08476826  0.06368647       0.003
  -0.14682293 -0.08476826  0.05244768       0.003
  -0.11011720 -0.08476826  0.04120889       0.003
  -0.07341146 -0.08476826  0.02997010       0.003
  -0.03670573 -0.08476826  0.01873132       0.003
   0.00000000 -0.06357619  0.01123879       0.002
   0.11011720 -0.06357619 -0.02247758       0.003
   0.14682293 -0.06357619 -0.03371637       0.003
   0.18352866 -0.06357619 -0.04495516       0.003
  -0.18352866 -0.06357620  0.06743274       0.003
  -0.14682293 -0.06357620  0.05619395       0.003
  -0.11011720 -0.06357620  0.04495516       0.003
  -0.07341146 -0.06357620  0.03371637       0.003
  -0.03670573 -0.06357619  0.02247758       0.003
   0.00000000 -0.04238413  0.01498505       0.002
   0.11011720 -0.04238413 -0.01873131       0.003
   0.14682293 -0.04238413 -0.02997010       0.003
   0.18352866 -0.04238412 -0.04120889       0.003
  -0.18352866 -0.04238413  0.07117900       0.003
  -0.14682293 -0.04238413  0.05994021       0.003
  -0.11011720 -0.04238413  0.04870142       0.003
  -0.07341146 -0.04238413  0.03746263       0.003
  -0.03670573 -0.04238413  0.02622384       0.003
   0.00000000 -0.02119206  0.01873132       0.002
   0.11011720 -0.02119206 -0.01498505       0.003
   0.14682293 -0.02119206 -0.02622384       0.003
   0.18352866 -0.02119206 -0.03746263       0.003
  -0.18352866 -0.02119207  0.07492526       0.003
  -0.14682293 -0.02119207  0.06368647       0.003
  -0.11011720 -0.02119207  0.05244768       0.003
  -0.07341146 -0.02119207  0.04120889       0.003
  -0.03670573 -0.02119207  0.02997011       0.003
   0.00000000  0.00000000  0.04495516       0.002
   0.14682293  0.00000000  0.00000000       0.002
   0.18352866  0.00000000 -0.01123879       0.003
  -0.18352866 -0.00000000  0.10114910       0.003
  -0.14682293 -0.00000000  0.08991032       0.003
  -0.11011720 -0.00000000  0.07867153       0.003
  -0.07341146 -0.00000000  0.06743274       0.003
  -0.03670573 -0.00000000  0.05619395       0.003
   0.00000000  0.02119206  0.04870142       0.002
   0.14682293  0.02119207  0.00374627       0.003
   0.18352866  0.02119207 -0.00749252       0.003
  -0.18352866  0.02119206  0.10489537       0.003
  -0.14682293  0.02119206  0.09365658       0.003
  -0.11011720  0.02119206  0.08241779       0.003
  -0.07341146  0.02119206  0.07117900       0.003
  -0.03670573  0.02119206  0.05994021       0.003
   0.00000000  0.04238413  0.05244769       0.002
   0.14682293  0.04238413  0.00749253       0.003
   0.18352866  0.04238413 -0.00374626       0.003
  -0.18352866  0.04238412  0.10864163       0.003
  -0.14682293  0.04238413  0.09740284       0.003
  -0.11011720  0.04238413  0.08616405       0.003
  -0.07341146  0.04238413  0.07492526       0.003
  -0.03670573  0.04238413  0.06368647       0.003
   0.00000000  0.06357619  0.05619395       0.002
   0.14682293  0.06357620  0.01123879       0.003
   0.18352866  0.06357620  0.00000000       0.003
  -0.18352866  0.06357619  0.11238789       0.003
  -0.14682293  0.06357619  0.10114911       0.003
  -0.11011720  0.06357619  0.08991032       0.003
  -0.07341146  0.06357619  0.07867153       0.003
  -0.03670573  0.06357619  0.06743274       0.003
   0.00000000  0.08476826  0.05994021       0.002
   0.14682293  0.08476826  0.01498506       0.003
   0.18352866  0.08476826  0.00374627       0.003
  -0.18352866  0.08476825  0.11613416       0.003
  -0.14682293  0.08476825  0.10489537       0.003
  -0.11011720  0.08476826  0.09365658       0.003
  -0.07341146  0.08476826  0.08241779       0.003
  -0.03670573  0.08476826  0.07117900       0.003
   0.00000000  0.10596032  0.06368648       0.002
   0.14682293  0.10596033  0.01873132       0.003
   0.18352866  0.10596033  0.00749253       0.003
  -0.18352866  0.10596032  0.11988042       0.003
  -0.14682293  0.10596032  0.10864163       0.003
  -0.11011720  0.10596032  0.09740284       0.003
  -0.07341146  0.10596032  0.08616405       0.003
  -0.03670573  0.10596032  0.07492526       0.003
   0.00000000 -0.10596032  0.02622384       0.002
   0.18352866 -0.10596032 -0.02997010       0.003
  -0.18352866 -0.10596033  0.08241779       0.003
  -0.14682293 -0.10596033  0.07117900       0.003
  -0.11011720 -0.10596032  0.05994021       0.003
  -0.07341146 -0.10596032  0.04870142       0.003
  -0.03670573 -0.10596032  0.03746263       0.003
   0.00000000 -0.08476826  0.02997011       0.002
   0.18352866 -0.08476825 -0.02622384       0.003
  -0.18352866 -0.08476826  0.08616405       0.003
  -0.14682293 -0.08476826  0.07492526       0.003
  -0.11011720 -0.08476826  0.06368647       0.003
  -0.07341146 -0.08476826  0.05244768       0.003
  -0.03670573 -0.08476826  0.04120889       0.003
   0.00000000 -0.06357619  0.03371637       0.002
   0.18352866 -0.06357619 -0.02247758       0.003
  -0.18352866 -0.06357620  0.08991031       0.003
  -0.14682293 -0.06357620  0.07867153       0.003
  -0.11011720 -0.06357620  0.06743274       0.003
  -0.07341146 -0.06357620  0.05619395       0.003
  -0.03670573 -0.06357619  0.04495516       0.003
   0.00000000 -0.04238413  0.03746263       0.002
   0.18352866 -0.04238412 -0.01873131       0.003
  -0.18352866 -0.04238413  0.09365658       0.003
  -0.14682293 -0.04238413  0.08241779       0.003
  -0.11011720 -0.04238413  0.07117900       0.003
  -0.07341146 -0.04238413  0.05994021       0.003
  -0.03670573 -0.04238413  0.04870142       0.003
   0.00000000 -0.02119206  0.04120890       0.002
   0.18352866 -0.02119206 -0.01498505       0.003
  -0.18352866 -0.02119207  0.09740284       0.003
  -0.14682293 -0.02119207  0.08616405       0.003
  -0.11011720 -0.02119207  0.07492526       0.003
  -0.07341146 -0.02119207  0.06368647       0.003
  -0.03670573 -0.02119207  0.05244768       0.003
   0.00000000  0.00000000  0.06743274       0.002
  -0.18352866 -0.00000000  0.12362668       0.002
  -0.14682293 -0.00000000  0.11238789       0.003
  -0.11011720 -0.00000000  0.10114911       0.003
  -0.07341146 -0.00000000  0.08991032       0.003
  -0.03670573 -0.00000000  0.07867153       0.003
   0.00000000  0.02119206  0.07117900       0.002
  -0.18352866  0.02119206  0.12737295       0.003
  -0.14682293  0.02119206  0.11613416       0.003
  -0.11011720  0.02119206  0.10489537       0.003
  -0.07341146  0.02119206  0.09365658       0.003
  -0.03670573  0.02119206  0.08241779       0.003
   0.00000000  0.04238413  0.07492526       0.002
  -0.18352866  0.04238412  0.13111921       0.003
  -0.14682293  0.04238413  0.11988042       0.003
  -0.11011720  0.04238413  0.10864163       0.003
  -0.07341146  0.04238413  0.09740284       0.003
  -0.03670573  0.04238413  0.08616405       0.003
   0.00000000  0.06357619  0.07867153       0.002
  -0.18352866  0.06357619  0.13486547       0.003
  -0.14682293  0.06357619  0.12362668       0.003
  -0.11011720  0.06357619  0.11238790       0.003
  -0.07341146  0.06357619  0.10114911       0.003
  -0.03670573  0.06357619  0.08991032       0.003
   0.00000000  0.08476826  0.08241779       0.002
  -0.18352866  0.08476825  0.13861174       0.003
  -0.14682293  0.08476825  0.12737295       0.003
  -0.11011720  0.08476826  0.11613416       0.003
  -0.07341146  0.08476826  0.10489537       0.003
  -0.03670573  0.08476826  0.09365658       0.003
   0.00000000  0.10596032  0.08616405       0.002
  -0.18352866  0.10596032  0.14235800       0.003
  -0.14682293  0.10596032  0.13111921       0.003
  -0.11011720  0.10596032  0.11988042       0.003
  -0.07341146  0.10596032  0.10864163       0.003
  -0.03670573  0.10596032  0.09740284       0.003
   0.00000000 -0.10596032  0.04870142       0.002
  -0.14682293 -0.10596033  0.09365658       0.003
  -0.11011720 -0.10596032  0.08241779       0.003
  -0.07341146 -0.10596032  0.07117900       0.003
  -0.03670573 -0.10596032  0.05994021       0.003
   0.00000000 -0.08476826  0.05244769       0.002
  -0.14682293 -0.08476826  0.09740284       0.003
  -0.11011720 -0.08476826  0.08616405       0.003
  -0.07341146 -0.08476826  0.07492526       0.003
  -0.03670573 -0.08476826  0.06368647       0.003
   0.00000000 -0.06357619  0.05619395       0.002
  -0.14682293 -0.06357620  0.10114910       0.003
  -0.11011720 -0.06357620  0.08991032       0.003
  -0.07341146 -0.06357620  0.07867153       0.003
  -0.03670573 -0.06357619  0.06743274       0.003
   0.00000000 -0.04238413  0.05994021       0.002
  -0.14682293 -0.04238413  0.10489537       0.003
  -0.11011720 -0.04238413  0.09365658       0.003
  -0.07341146 -0.04238413  0.08241779       0.003
  -0.03670573 -0.04238413  0.07117900       0.003
   0.00000000 -0.02119206  0.06368647       0.002
  -0.14682293 -0.02119207  0.10864163       0.003
  -0.11011720 -0.02119207  0.09740284       0.003
  -0.07341146 -0.02119207  0.08616405       0.003
  -0.03670573 -0.02119207  0.07492526       0.003
   0.00000000  0.00000000  0.08991032       0.002
  -0.11011720 -0.00000000  0.12362668       0.002
  -0.07341146 -0.00000000  0.11238790       0.003
  -0.03670573 -0.00000000  0.10114911       0.003
   0.00000000  0.02119206  0.09365658       0.002
  -0.11011720  0.02119206  0.12737295       0.003
  -0.07341146  0.02119206  0.11613416       0.003
  -0.03670573  0.02119206  0.10489537       0.003
   0.00000000  0.04238413  0.09740284       0.002
  -0.11011720  0.04238413  0.13111921       0.003
  -0.07341146  0.04238413  0.11988042       0.003
  -0.03670573  0.04238413  0.10864163       0.003
   0.00000000  0.06357619  0.10114911       0.002
  -0.11011720  0.06357619  0.13486547       0.003
  -0.07341146  0.06357619  0.12362669       0.003
  -0.03670573  0.06357619  0.11238790       0.003
   0.00000000  0.08476826  0.10489537       0.002
  -0.11011720  0.08476826  0.13861174       0.003
  -0.07341146  0.08476826  0.12737295       0.003
  -0.03670573  0.08476826  0.11613416       0.003
   0.00000000  0.10596032  0.10864163       0.002
  -0.11011720  0.10596032  0.14235800       0.003
  -0.07341146  0.10596032  0.13111921       0.003
  -0.03670573  0.10596032  0.11988042       0.003
   0.00000000 -0.10596032  0.07117900       0.002
  -0.07341146 -0.10596032  0.09365658       0.003
  -0.03670573 -0.10596032  0.08241779       0.003
   0.00000000 -0.08476826  0.07492526       0.002
  -0.07341146 -0.08476826  0.09740284       0.003
  -0.03670573 -0.08476826  0.08616405       0.003
   0.00000000 -0.06357619  0.07867153       0.002
  -0.07341146 -0.06357620  0.10114911       0.003
  -0.03670573 -0.06357619  0.08991032       0.003
   0.00000000 -0.04238413  0.08241779       0.002
  -0.07341146 -0.04238413  0.10489537       0.003
  -0.03670573 -0.04238413  0.09365658       0.003
   0.00000000 -0.02119206  0.08616405       0.002
  -0.07341146 -0.02119207  0.10864163       0.003
  -0.03670573 -0.02119207  0.09740284       0.003
   0.00000000  0.00000000  0.11238790       0.002
  -0.03670573 -0.00000000  0.12362669       0.002
   0.00000000  0.02119206  0.11613416       0.002
  -0.03670573  0.02119206  0.12737295       0.003
   0.00000000  0.04238413  0.11988042       0.002
  -0.03670573  0.04238413  0.13111921       0.003
   0.00000000  0.06357619  0.12362669       0.002
  -0.03670573  0.06357619  0.13486548       0.003
   0.00000000  0.08476826  0.12737295       0.002
  -0.03670573  0.08476826  0.13861174       0.003
   0.00000000  0.10596032  0.13111921       0.002
  -0.03670573  0.10596032  0.14235800       0.003
   0.00000000 -0.10596032  0.09365658       0.002
   0.00000000 -0.08476826  0.09740284       0.002
   0.00000000 -0.06357619  0.10114911       0.002
   0.00000000 -0.04238413  0.10489537       0.002
   0.00000000 -0.02119206  0.10864163       0.002
 
 k-points in reciprocal lattice and weights: k-points                                
   0.00000000  0.00000000  0.00000000       0.001
   0.09090909 -0.00000000  0.00000000       0.003
   0.18181818 -0.00000000  0.00000000       0.003
   0.27272727 -0.00000000  0.00000000       0.003
   0.36363636 -0.00000000  0.00000000       0.003
   0.45454545 -0.00000000  0.00000000       0.003
   0.00000000  0.09090909 -0.00000000       0.002
   0.09090909  0.09090909  0.00000000       0.003
   0.18181818  0.09090909  0.00000000       0.003
   0.27272727  0.09090909  0.00000000       0.003
   0.36363636  0.09090909  0.00000000       0.003
   0.45454545  0.09090909  0.00000000       0.003
  -0.45454545  0.09090909 -0.00000000       0.003
  -0.36363636  0.09090909 -0.00000000       0.003
  -0.27272727  0.09090909  0.00000000       0.003
  -0.18181818  0.09090909 -0.00000000       0.003
  -0.09090909  0.09090909 -0.00000000       0.003
   0.00000000  0.18181818 -0.00000000       0.002
   0.09090909  0.18181818  0.00000000       0.003
   0.18181818  0.18181818  0.00000000       0.003
   0.27272727  0.18181818  0.00000000       0.003
   0.36363636  0.18181818  0.00000000       0.003
   0.45454545  0.18181818  0.00000000       0.003
  -0.45454545  0.18181818 -0.00000000       0.003
  -0.36363636  0.18181818 -0.00000000       0.003
  -0.27272727  0.18181818 -0.00000000       0.003
  -0.18181818  0.18181818 -0.00000000       0.003
  -0.09090909  0.18181818 -0.00000000       0.003
   0.00000000  0.27272727 -0.00000000       0.002
   0.09090909  0.27272727  0.00000000       0.003
   0.18181818  0.27272727  0.00000000       0.003
   0.27272727  0.27272727  0.00000000       0.003
   0.36363636  0.27272727  0.00000000       0.003
   0.45454545  0.27272727  0.00000000       0.003
  -0.45454545  0.27272727 -0.00000000       0.003
  -0.36363636  0.27272727  0.00000000       0.003
  -0.27272727  0.27272727  0.00000000       0.003
  -0.18181818  0.27272727 -0.00000000       0.003
  -0.09090909  0.27272727 -0.00000000       0.003
   0.00000000  0.36363636 -0.00000000       0.002
   0.09090909  0.36363636  0.00000000       0.003
   0.18181818  0.36363636  0.00000000       0.003
   0.27272727  0.36363636 -0.00000000       0.003
   0.36363636  0.36363636  0.00000000       0.003
   0.45454545  0.36363636 -0.00000000       0.003
  -0.45454545  0.36363636 -0.00000000       0.003
  -0.36363636  0.36363636 -0.00000000       0.003
  -0.27272727  0.36363636  0.00000000       0.003
  -0.18181818  0.36363636 -0.00000000       0.003
  -0.09090909  0.36363636 -0.00000000       0.003
   0.00000000  0.45454545 -0.00000000       0.002
   0.09090909  0.45454545  0.00000000       0.003
   0.18181818  0.45454545  0.00000000       0.003
   0.27272727  0.45454545  0.00000000       0.003
   0.36363636  0.45454545  0.00000000       0.003
   0.45454545  0.45454545  0.00000000       0.003
  -0.45454545  0.45454545 -0.00000000       0.003
  -0.36363636  0.45454545 -0.00000000       0.003
  -0.27272727  0.45454545  0.00000000       0.003
  -0.18181818  0.45454545 -0.00000000       0.003
  -0.09090909  0.45454545 -0.00000000       0.003
   0.00000000  0.00000000  0.09090909       0.002
   0.18181818 -0.00000000  0.09090909       0.002
   0.27272727 -0.00000000  0.09090909       0.003
   0.36363636 -0.00000000  0.09090909       0.003
   0.45454545 -0.00000000  0.09090909       0.003
  -0.45454545  0.00000000  0.09090909       0.003
  -0.36363636  0.00000000  0.09090909       0.003
  -0.27272727  0.00000000  0.09090909       0.003
  -0.18181818  0.00000000  0.09090909       0.003
  -0.09090909  0.00000000  0.09090909       0.003
   0.00000000  0.09090909  0.09090909       0.002
   0.18181818  0.09090909  0.09090909       0.003
   0.27272727  0.09090909  0.09090909       0.003
   0.36363636  0.09090909  0.09090909       0.003
   0.45454545  0.09090909  0.09090909       0.003
  -0.45454545  0.09090909  0.09090909       0.003
  -0.36363636  0.09090909  0.09090909       0.003
  -0.27272727  0.09090909  0.09090909       0.003
  -0.18181818  0.09090909  0.09090909       0.003
  -0.09090909  0.09090909  0.09090909       0.003
   0.00000000  0.18181818  0.09090909       0.002
   0.18181818  0.18181818  0.09090909       0.003
   0.27272727  0.18181818  0.09090909       0.003
   0.36363636  0.18181818  0.09090909       0.003
   0.45454545  0.18181818  0.09090909       0.003
  -0.45454545  0.18181818  0.09090909       0.003
  -0.36363636  0.18181818  0.09090909       0.003
  -0.27272727  0.18181818  0.09090909       0.003
  -0.18181818  0.18181818  0.09090909       0.003
  -0.09090909  0.18181818  0.09090909       0.003
   0.00000000  0.27272727  0.09090909       0.002
   0.18181818  0.27272727  0.09090909       0.003
   0.27272727  0.27272727  0.09090909       0.003
   0.36363636  0.27272727  0.09090909       0.003
   0.45454545  0.27272727  0.09090909       0.003
  -0.45454545  0.27272727  0.09090909       0.003
  -0.36363636  0.27272727  0.09090909       0.003
  -0.27272727  0.27272727  0.09090909       0.003
  -0.18181818  0.27272727  0.09090909       0.003
  -0.09090909  0.27272727  0.09090909       0.003
   0.00000000  0.36363636  0.09090909       0.002
   0.18181818  0.36363636  0.09090909       0.003
   0.27272727  0.36363636  0.09090909       0.003
   0.36363636  0.36363636  0.09090909       0.003
   0.45454545  0.36363636  0.09090909       0.003
  -0.45454545  0.36363636  0.09090909       0.003
  -0.36363636  0.36363636  0.09090909       0.003
  -0.27272727  0.36363636  0.09090909       0.003
  -0.18181818  0.36363636  0.09090909       0.003
  -0.09090909  0.36363636  0.09090909       0.003
   0.00000000  0.45454545  0.09090909       0.002
   0.18181818  0.45454545  0.09090909       0.003
   0.27272727  0.45454545  0.09090909       0.003
   0.36363636  0.45454545  0.09090909       0.003
   0.45454545  0.45454545  0.09090909       0.003
  -0.45454545  0.45454545  0.09090909       0.003
  -0.36363636  0.45454545  0.09090909       0.003
  -0.27272727  0.45454545  0.09090909       0.003
  -0.18181818  0.45454545  0.09090909       0.003
  -0.09090909  0.45454545  0.09090909       0.003
   0.00000000 -0.45454545  0.09090909       0.002
   0.27272727 -0.45454545  0.09090909       0.003
   0.36363636 -0.45454545  0.09090909       0.003
   0.45454545 -0.45454545  0.09090909       0.003
  -0.45454545 -0.45454545  0.09090909       0.003
  -0.36363636 -0.45454545  0.09090909       0.003
  -0.27272727 -0.45454545  0.09090909       0.003
  -0.18181818 -0.45454545  0.09090909       0.003
  -0.09090909 -0.45454545  0.09090909       0.003
   0.00000000 -0.36363636  0.09090909       0.002
   0.27272727 -0.36363636  0.09090909       0.003
   0.36363636 -0.36363636  0.09090909       0.003
   0.45454545 -0.36363636  0.09090909       0.003
  -0.45454545 -0.36363636  0.09090909       0.003
  -0.36363636 -0.36363636  0.09090909       0.003
  -0.27272727 -0.36363636  0.09090909       0.003
  -0.18181818 -0.36363636  0.09090909       0.003
  -0.09090909 -0.36363636  0.09090909       0.003
   0.00000000 -0.27272727  0.09090909       0.002
   0.27272727 -0.27272727  0.09090909       0.003
   0.36363636 -0.27272727  0.09090909       0.003
   0.45454545 -0.27272727  0.09090909       0.003
  -0.45454545 -0.27272727  0.09090909       0.003
  -0.36363636 -0.27272727  0.09090909       0.003
  -0.27272727 -0.27272727  0.09090909       0.003
  -0.18181818 -0.27272727  0.09090909       0.003
  -0.09090909 -0.27272727  0.09090909       0.003
   0.00000000 -0.18181818  0.09090909       0.002
   0.27272727 -0.18181818  0.09090909       0.003
   0.36363636 -0.18181818  0.09090909       0.003
   0.45454545 -0.18181818  0.09090909       0.003
  -0.45454545 -0.18181818  0.09090909       0.003
  -0.36363636 -0.18181818  0.09090909       0.003
  -0.27272727 -0.18181818  0.09090909       0.003
  -0.18181818 -0.18181818  0.09090909       0.003
  -0.09090909 -0.18181818  0.09090909       0.003
   0.00000000 -0.09090909  0.09090909       0.002
   0.27272727 -0.09090909  0.09090909       0.003
   0.36363636 -0.09090909  0.09090909       0.003
   0.45454545 -0.09090909  0.09090909       0.003
  -0.45454545 -0.09090909  0.09090909       0.003
  -0.36363636 -0.09090909  0.09090909       0.003
  -0.27272727 -0.09090909  0.09090909       0.003
  -0.18181818 -0.09090909  0.09090909       0.003
  -0.09090909 -0.09090909  0.09090909       0.003
   0.00000000  0.00000000  0.18181818       0.002
   0.36363636 -0.00000000  0.18181818       0.002
   0.45454545 -0.00000000  0.18181818       0.003
[...]
     10       7.4606      1.00000
     11       7.6413      1.00000
     12       7.7159      1.00000
     13       7.9553      1.00000
     14       8.1099      1.00000
     15       8.2559      1.00000
     16       8.3580      1.00000
     17       8.8286      1.00060
     18       8.8770      1.00179
     19       9.1122      1.03546
     20       9.2069      0.97637
     21       9.2694      0.83433
     22       9.2987      0.73556
     23       9.5860     -0.03437
     24       9.8056     -0.00338

 k-point   364 :       0.0000   -0.2727    0.4545
  band No.  band energies     occupation 
      1       2.6006      1.00000
      2       3.9379      1.00000
      3       4.7968      1.00000
      4       4.9990      1.00000
      5       5.8432      1.00000
      6       6.7645      1.00000
      7       6.9738      1.00000
      8       7.3835      1.00000
      9       7.5072      1.00000
     10       7.6076      1.00000
     11       7.6091      1.00000
     12       7.6750      1.00000
     13       7.9188      1.00000
     14       7.9259      1.00000
     15       8.2478      1.00000
     16       8.9205      1.00424
     17       8.9992      1.01486
     18       9.0170      1.01854
     19       9.0366      1.02297
     20       9.1082      1.03540
     21       9.1213      1.03511
     22       9.3165      0.66755
     23       9.8914     -0.00052
     24       9.9977     -0.00003

 k-point   365 :       0.0000   -0.1818    0.4545
  band No.  band energies     occupation 
      1       2.3883      1.00000
      2       3.5500      1.00000
      3       4.8882      1.00000
      4       5.0227      1.00000
      5       5.7258      1.00000
      6       6.9483      1.00000
      7       7.0373      1.00000
      8       7.3904      1.00000
      9       7.5241      1.00000
     10       7.5867      1.00000
     11       7.6952      1.00000
     12       7.7771      1.00000
     13       7.8147      1.00000
     14       8.1277      1.00000
     15       8.3649      1.00000
     16       8.8167      1.00045
     17       8.8758      1.00174
     18       9.0194      1.01906
     19       9.2030      0.98204
     20       9.2686      0.83664
     21       9.3117      0.68661
     22       9.3819      0.39564
     23       9.9344     -0.00017
     24      10.6656     -0.00000

 k-point   366 :       0.0000   -0.0909    0.4545
  band No.  band energies     occupation 
      1       2.3033      1.00000
      2       3.2528      1.00000
      3       4.9105      1.00000
      4       5.0209      1.00000
      5       5.6512      1.00000
      6       7.0716      1.00000
      7       7.0957      1.00000
      8       7.4051      1.00000
      9       7.4686      1.00000
     10       7.6459      1.00000
     11       7.6924      1.00000
     12       7.7003      1.00000
     13       7.7309      1.00000
     14       8.5026      1.00000
     15       8.6207      1.00000
     16       8.7301      1.00004
     17       8.7504      1.00008
     18       8.9013      1.00294
     19       9.3117      0.68654
     20       9.3207      0.65093
     21       9.4793      0.07492
     22       9.4808      0.07170
     23       9.8737     -0.00079
     24      11.4511     -0.00000


--------------------------------------------------------------------------------------------------------


 soft charge-density along one line, spin component           1
         0         1         2         3         4         5         6         7         8         9
 total charge-density along one line
 
 soft charge-density along one line, spin component           2
         0         1         2         3         4         5         6         7         8         9
 total charge-density along one line
 
 pseudopotential strength for first ion, spin component:           1
 -0.135   0.000   0.000  -0.014  -0.000  -0.833   0.000   0.000
  0.000  -0.127   0.000  -0.000  -0.013   0.000  -0.825   0.000
  0.000   0.000  -0.146   0.000  -0.000   0.000   0.000  -0.843
 -0.014  -0.000   0.000  -0.126  -0.000  -0.013  -0.000   0.000
 -0.000  -0.013  -0.000  -0.000  -0.135  -0.000  -0.013  -0.000
 -0.833   0.000   0.000  -0.013  -0.000  -1.458   0.000   0.000
  0.000  -0.825   0.000  -0.000  -0.013   0.000  -1.451   0.000
  0.000   0.000  -0.843   0.000  -0.000   0.000   0.000  -1.468
 -0.013  -0.000   0.000  -0.824  -0.000  -0.013  -0.000   0.000
 -0.000  -0.013  -0.000  -0.000  -0.833  -0.000  -0.013  -0.000
  0.000   0.000   0.000  -0.000  -0.000   0.000   0.000   0.000
  0.000   0.000   0.000  -0.000  -0.000   0.000   0.000   0.000
 -0.000  -0.000   0.000  -0.000   0.000  -0.000  -0.000   0.000
 -0.000   0.000  -0.000   0.000   0.000  -0.000   0.000  -0.000
 -0.000  -0.000   0.000   0.000  -0.000  -0.000  -0.000   0.000
  0.000  -0.000   0.000  -0.000   0.000   0.000  -0.000   0.000
 -0.000   0.000  -0.000   0.000   0.000  -0.000   0.000  -0.000
 -0.000  -0.000   0.000   0.000   0.000  -0.000  -0.000   0.000
 pseudopotential strength for first ion, spin component:           2
 -0.134   0.000   0.000  -0.013  -0.000  -0.832   0.000   0.000
  0.000  -0.126  -0.000  -0.000  -0.013   0.000  -0.824  -0.000
  0.000  -0.000  -0.144   0.000  -0.001   0.000  -0.000  -0.842
 -0.013  -0.000   0.000  -0.125  -0.000  -0.013  -0.000   0.000
 -0.000  -0.013  -0.001  -0.000  -0.133  -0.000  -0.013  -0.001
 -0.832   0.000   0.000  -0.013  -0.000  -1.458   0.000   0.000
  0.000  -0.824  -0.000  -0.000  -0.013   0.000  -1.450  -0.000
  0.000  -0.000  -0.842   0.000  -0.001   0.000  -0.000  -1.467
 -0.013  -0.000   0.000  -0.823  -0.000  -0.013  -0.000   0.000
 -0.000  -0.013  -0.001  -0.000  -0.831  -0.000  -0.012  -0.001
  0.000   0.000   0.000  -0.000  -0.000   0.000   0.000   0.000
  0.000   0.000   0.000   0.000  -0.000   0.000   0.000   0.000
  0.000   0.000  -0.000   0.000  -0.000   0.000   0.000  -0.000
  0.000  -0.000   0.000  -0.000  -0.000   0.000  -0.000   0.000
  0.000   0.000  -0.000  -0.000   0.000   0.000   0.000  -0.000
 -0.000   0.000  -0.000   0.000  -0.000  -0.000   0.000  -0.000
  0.000  -0.000   0.000  -0.000  -0.000   0.000  -0.000   0.000
  0.000   0.000   0.000  -0.000  -0.000   0.000   0.000  -0.000
 total augmentation occupancy for first ion, spin component:           1
  2.941  -0.000   0.000  -0.404   0.000  -1.338   0.000  -0.000   0.189  -0.000   0.000   0.000  -0.000  -0.000   0.000   0.000
 -0.000   3.223   0.001  -0.000  -0.404   0.000  -1.469  -0.000   0.000   0.189  -0.001  -0.000   0.000   0.000  -0.000  -0.000
  0.000   0.001   2.664  -0.000  -0.005  -0.000  -0.000  -1.210   0.000   0.003  -0.004  -0.000  -0.000   0.000   0.000   0.000
 -0.404  -0.000  -0.000   3.221  -0.000   0.189   0.000   0.000  -1.469   0.000   0.000   0.000   0.000  -0.000  -0.000  -0.000
  0.000  -0.404  -0.005  -0.000   2.955  -0.000   0.189   0.003   0.000  -1.347   0.005   0.000  -0.000   0.000   0.000   0.000
 -1.338   0.000  -0.000   0.189  -0.000   1.486  -0.000   0.000  -0.032   0.000  -0.000  -0.000   0.000  -0.000  -0.000  -0.000
  0.000  -1.469  -0.000   0.000   0.189  -0.000   1.507   0.000  -0.000  -0.032   0.001   0.000  -0.000  -0.000   0.000  -0.000
 -0.000  -0.000  -1.210   0.000   0.003   0.000   0.000   1.466  -0.000  -0.002   0.002   0.000   0.000   0.000  -0.000   0.000
  0.189   0.000   0.000  -1.469   0.000  -0.032  -0.000  -0.000   1.506  -0.000  -0.000  -0.000   0.000   0.000  -0.000  -0.000
 -0.000   0.189   0.003   0.000  -1.347   0.000  -0.032  -0.002  -0.000   1.491  -0.003  -0.000   0.000  -0.000   0.000  -0.000
  0.000  -0.001  -0.004   0.000   0.005  -0.000   0.001   0.002  -0.000  -0.003   2.334  -0.329  -0.000  -0.000   0.000  -0.000
  0.000  -0.000  -0.000   0.000   0.000  -0.000   0.000   0.000  -0.000  -0.000  -0.329   0.053   0.000   0.000  -0.000   0.000
 -0.000   0.000  -0.000   0.000  -0.000   0.000  -0.000   0.000   0.000   0.000  -0.000   0.000   0.309  -0.000  -0.000  -0.034
 -0.000   0.000   0.000  -0.000   0.000  -0.000  -0.000   0.000   0.000  -0.000  -0.000   0.000  -0.000   0.309  -0.000   0.000
  0.000  -0.000   0.000  -0.000   0.000  -0.000   0.000  -0.000  -0.000   0.000   0.000  -0.000  -0.000  -0.000   0.310   0.000
  0.000  -0.000   0.000  -0.000   0.000  -0.000  -0.000   0.000  -0.000  -0.000  -0.000   0.000  -0.034   0.000   0.000   0.004
  0.000  -0.000  -0.000   0.000   0.000  -0.000   0.000  -0.000  -0.000   0.000   0.000  -0.000   0.000  -0.034   0.000  -0.000
 -0.000   0.000  -0.000   0.000  -0.000   0.000  -0.000   0.000   0.000  -0.000   0.000   0.000   0.000   0.000  -0.034  -0.000
 total augmentation occupancy for first ion, spin component:           2
 -0.000  -0.000  -0.000   0.000   0.000   0.000   0.000   0.000  -0.000  -0.000   0.000  -0.000  -0.000   0.000   0.000  -0.000
 -0.000   0.001  -0.000  -0.000   0.001   0.000  -0.001   0.000   0.000  -0.000  -0.000   0.000   0.000  -0.000   0.000   0.000
 -0.000  -0.000   0.003  -0.000  -0.002   0.000   0.000  -0.002   0.000   0.001   0.000   0.000  -0.000   0.000   0.000   0.000
  0.000  -0.000  -0.000   0.001  -0.000  -0.000   0.000   0.000  -0.001  -0.000  -0.000  -0.000   0.000   0.000   0.000  -0.000
  0.000   0.001  -0.002  -0.000   0.006  -0.000  -0.000   0.001  -0.000  -0.003   0.000  -0.000  -0.000  -0.000  -0.000  -0.000
  0.000   0.000   0.000  -0.000  -0.000  -0.000  -0.000  -0.000   0.000   0.000  -0.000  -0.000   0.000  -0.000  -0.000  -0.000
  0.000  -0.001   0.000   0.000  -0.000  -0.000   0.000  -0.000  -0.000   0.000   0.000  -0.000  -0.000   0.000   0.000   0.000
  0.000   0.000  -0.002   0.000   0.001  -0.000  -0.000   0.001  -0.000  -0.001  -0.000   0.000   0.000  -0.000  -0.000  -0.000
 -0.000   0.000   0.000  -0.001  -0.000   0.000  -0.000  -0.000   0.000   0.000   0.000  -0.000  -0.000  -0.000  -0.000   0.000
 -0.000  -0.000   0.001  -0.000  -0.003   0.000   0.000  -0.001   0.000   0.001   0.000  -0.000   0.000   0.000   0.000   0.000
  0.000  -0.000   0.000  -0.000   0.000  -0.000   0.000  -0.000   0.000   0.000  -0.001   0.000  -0.000  -0.000   0.000   0.000
 -0.000   0.000   0.000  -0.000  -0.000  -0.000  -0.000   0.000  -0.000  -0.000   0.000  -0.000   0.000   0.000  -0.000  -0.000
 -0.000   0.000  -0.000   0.000  -0.000   0.000  -0.000   0.000  -0.000   0.000  -0.000   0.000  -0.000  -0.000   0.000   0.000
  0.000  -0.000   0.000   0.000  -0.000  -0.000   0.000  -0.000  -0.000   0.000  -0.000   0.000  -0.000  -0.000   0.000  -0.000
  0.000   0.000   0.000   0.000  -0.000  -0.000   0.000  -0.000  -0.000   0.000   0.000  -0.000   0.000   0.000  -0.000  -0.000
 -0.000   0.000   0.000  -0.000  -0.000  -0.000   0.000  -0.000   0.000   0.000   0.000  -0.000   0.000  -0.000  -0.000  -0.000
  0.000  -0.000   0.000   0.000   0.000   0.000  -0.000   0.000   0.000  -0.000   0.000  -0.000  -0.000   0.000  -0.000   0.000
 -0.000  -0.000  -0.000   0.000  -0.000   0.000   0.000   0.000  -0.000   0.000  -0.000   0.000  -0.000  -0.000   0.000   0.000


------------------------ aborting loop because EDIFF is reached ----------------------------------------



 ----------------------------------------------------------------------------- 
|                                                                             |
|  ADVICE TO THIS USER RUNNING 'VASP/VAMP'   (HEAR YOUR MASTER'S VOICE ...):  |
|                                                                             |
|      Your highest band is occupied at some k-points! Unless you are         |
|      performing a calculation for an insulator or semiconductor, without    |
|      unoccupied bands, you have included TOO FEW BANDS!! Please increase    |
|      the parameter NBANDS in file INCAR to ensure that the highest band     |
|      is unoccupied at all k-points. It is always recommended to             |
|      include a few unoccupied bands to accelerate the convergence of        |
|      molecular dynamics runs (even for insulators or semiconductors).       |
|      Because the presence of unoccupied bands improves wavefunction         |
|      prediction, and helps to suppress 'band-crossings.'                    |
|      Following all k-points will be listed (with the Fermi weights of       |
|      the highest band given in paranthesis) ... :                           |
|                                                                             |
|                        362       (-0.01913)                                 |
|                        362       (-0.01913)                                 |
|                                                                             |
|      The total occupancy of band no.    24 is  -0.00006 electrons ...       |
|                                                                             |
 ----------------------------------------------------------------------------- 

 


 total charge     
 
# of ion       s       p       d       tot
------------------------------------------
    1        0.500   0.505   8.330   9.334
    2        0.500   0.505   8.330   9.334
    3        0.500   0.505   8.330   9.334
    4        0.500   0.505   8.330   9.334
--------------------------------------------------
tot          1.999   2.019  33.320  37.338
 


 magnetization (x)
 
# of ion       s       p       d       tot
------------------------------------------
    1        0.000   0.000   0.001   0.001
    2        0.000   0.000   0.001   0.001
    3       -0.000  -0.000  -0.001  -0.001
    4       -0.000  -0.000  -0.001  -0.001
--------------------------------------------------
tot         -0.000   0.000  -0.000  -0.000
 
    CHARGE:  cpu time    0.6009: real time    0.6023
    FORLOC:  cpu time    0.0007: real time    0.0007
    FORNL :  cpu time    1.3142: real time    1.3174
    STRESS:  cpu time    2.6965: real time    2.7029
    FORCOR:  cpu time    0.0210: real time    0.0210
    FORHAR:  cpu time    0.0026: real time    0.0026
    MIXING:  cpu time    0.0014: real time    0.0014
    OFIELD:  cpu time    0.0001: real time    0.0001

  FORCE on cell =-STRESS in cart. coord.  units (eV):
  Direction    XX          YY          ZZ          XY          YZ          ZX
  --------------------------------------------------------------------------------------
  Alpha Z   189.89775   189.89775   189.89775
  Ewald   -1256.61684 -1256.61684 -1256.61679     0.00002    -0.00000     0.00001
  Hartree   296.93797   296.77587   296.70803     0.00000    -0.00655     0.00004
  E(xc)    -220.09606  -220.09234  -220.09111     0.00000     0.00044    -0.00000
  Local       4.21908     4.68250     4.86171    -0.00003     0.03304    -0.00002
  n-local   -31.08107   -31.25638   -31.30317    -1.53798    -0.01542    -2.41555
  augment   704.04349   703.91953   703.86522     0.00044    -0.01082    -0.00021
  Kinetic   313.15000   313.08152   313.06884    -1.40300    -0.00933    -1.16337
  Fock        0.00000     0.00000     0.00000     0.00000     0.00000     0.00000
  -------------------------------------------------------------------------------------
  Total       0.45431     0.39161     0.39047    -0.00000    -0.00864    -0.00000
  in kB      16.93946    14.60138    14.55923    -0.00000    -0.32218    -0.00000
  external pressure =       15.37 kB  Pullay stress =        0.00 kB


 VOLUME and BASIS-vectors are now :
 -----------------------------------------------------------------------------
  energy-cutoff  :      520.00
  volume of cell :       42.97
      direct lattice vectors                 reciprocal lattice vectors
     2.476700100  0.000000000  0.000000000     0.403763056  0.000000009 -0.123626680
    -0.000000100  4.289770400  0.000000000     0.000000000  0.233112709  0.041208896
     1.238350000 -0.714961740  4.044434200     0.000000000  0.000000000  0.247253374

  length of vectors
     2.476700100  4.289770400  4.289770275     0.422265510  0.236727076  0.247253374


 FORCES acting on ions
    electron-ion (+dipol)            ewald-force                    non-local-force                 convergence-correction
 -----------------------------------------------------------------------------------------------
   0.219E-11 -.687E-05 -.138E-04   -.154E-13 -.568E-13 0.284E-13   -.154E-12 0.114E-04 -.682E-05   0.492E-09 -.246E-05 0.202E-04
   -.196E-11 0.687E-05 0.138E-04   -.132E-13 -.399E-14 -.828E-15   0.154E-12 -.114E-04 0.682E-05   -.492E-09 0.246E-05 -.202E-04
   0.276E-11 -.687E-05 -.138E-04   0.785E-14 0.000E+00 0.000E+00   -.154E-12 0.114E-04 -.682E-05   0.492E-09 -.246E-05 0.202E-04
   -.338E-11 0.687E-05 0.138E-04   0.100E-13 0.567E-13 -.284E-13   0.154E-12 -.114E-04 0.682E-05   -.492E-09 0.246E-05 -.202E-04
 -----------------------------------------------------------------------------------------------
   -.391E-12 -.256E-11 0.510E-11   -.107E-13 -.415E-14 -.803E-15   0.000E+00 -.169E-20 0.000E+00   0.230E-12 -.848E-13 0.634E-13
 
 
 POSITION                                       TOTAL-FORCE (eV/Angst)
 -----------------------------------------------------------------------------------
      0.00000      0.00000      0.00000        -0.000000      0.000002     -0.000000
      1.23835      0.71496      2.02222         0.000000     -0.000002      0.000000
      1.23835      2.14489      0.00000        -0.000000      0.000002     -0.000000
      2.47670      2.85985      2.02222         0.000000     -0.000002      0.000000
 -----------------------------------------------------------------------------------
    total drift:                               -0.000000     -0.000000      0.000000


--------------------------------------------------------------------------------------------------------



  FREE ENERGIE OF THE ION-ELECTRON SYSTEM (eV)
  ---------------------------------------------------
  free  energy   TOTEN  =       -21.66129781 eV

  energy  without entropy=      -21.61006679  energy(sigma->0) =      -21.64422080
 


--------------------------------------------------------------------------------------------------------


    POTLOK:  cpu time    0.5353: real time    0.5434


--------------------------------------------------------------------------------------------------------


     LOOP+:  cpu time  245.0735: real time  245.9917
    4ORBIT:  cpu time    0.0000: real time    0.0000
 


 total charge     
 
# of ion       s       p       d       tot
------------------------------------------
    1        0.500   0.505   8.330   9.334
    2        0.500   0.505   8.330   9.334
    3        0.500   0.505   8.330   9.334
    4        0.500   0.505   8.330   9.334
--------------------------------------------------
tot          1.999   2.019  33.320  37.338
 


 magnetization (x)
 
# of ion       s       p       d       tot
------------------------------------------
    1        0.000   0.000   0.001   0.001
    2        0.000   0.000   0.001   0.001
    3       -0.000  -0.000  -0.001  -0.001
    4       -0.000  -0.000  -0.001  -0.001
--------------------------------------------------
tot         -0.000   0.000  -0.000  -0.000
 

 total amount of memory used by VASP MPI-rank0   140504. kBytes
=======================================================================

   base      :      30000. kBytes
   nonl-proj :      62477. kBytes
   fftplans  :        770. kBytes
   grid      :       3003. kBytes
   one-center:        124. kBytes
   wavefun   :      44130. kBytes
 
  
  
 General timing and accounting informations for this job:
 ========================================================
  
                  Total CPU time used (sec):      248.973
                            User time (sec):      247.204
                          System time (sec):        1.769
                         Elapsed time (sec):      251.048
  
                   Maximum memory used (kb):      196932.
                   Average memory used (kb):           0.
  
                          Minor page faults:        55851
                          Major page faults:            0
                 Voluntary context switches:         1363
