=========================================
SLURM_JOB_ID = 31883049
SLURM_JOB_NODELIST = lnode52
SLURM_GPUS = 
SLURM_CPUS_ON_NODE = 8
SLURM_JOB_PARTITION = lenovo
SLURM_TASK_PID = 2177754
CUDA_VISIBLE_DEVICES = 
==========================================
 running on    8 total cores
 distrk:  each k-point on    8 cores,    1 groups
 distr:  one band on    8 cores,    1 groups
 using from now: INCAR     
 vasp.5.4.4.18Apr17-6-g9f103f2a35 (build Apr 28 2018 00:24:27) complex          
  
 POSCAR found type information on POSCAR  Mn Bi
 POSCAR found :  2 types and       8 ions
 scaLAPACK will be used

 ----------------------------------------------------------------------------- 
|                                                                             |
|           W    W    AA    RRRRR   N    N  II  N    N   GGGG   !!!           |
|           W    W   A  A   R    R  NN   N  II  NN   N  G    G  !!!           |
|           W    W  A    A  R    R  N N  N  II  N N  N  G       !!!           |
|           W WW W  AAAAAA  RRRRR   N  N N  II  N  N N  G  GGG   !            |
|           WW  WW  A    A  R   R   N   NN  II  N   NN  G    G                |
|           W    W  A    A  R    R  N    N  II  N    N   GGGG   !!!           |
|                                                                             |
|      For optimal performance we recommend to set                            |
|        NCORE= 4 - approx SQRT( number of cores)                             |
|      NCORE specifies how many cores store one orbital (NPAR=cpu/NCORE).     |
|      This setting can  greatly improve the performance of VASP for DFT.     |
|      The default,   NCORE=1            might be grossly inefficient         |
|      on modern multi-core architectures or massively parallel machines.     |
|      Do your own testing !!!!                                               |
|      Unfortunately you need to use the default for GW and RPA calculations. |
|      (for HF NCORE is supported but not extensively tested yet)             |
|                                                                             |
 ----------------------------------------------------------------------------- 

 LDA part: xc-table for Pade appr. of Perdew
 generate k-points for:    3    1    3
 POSCAR, INCAR and KPOINTS ok, starting setup
 FFT: planning ...
 WAVECAR not read
 entering main loop
       N       E                     dE             d eps       ncg     rms          rms(c)
DAV:   1     0.351957447277E+03    0.35196E+03   -0.16003E+04   580   0.138E+03
DAV:   2     0.735502177040E+01   -0.34460E+03   -0.33418E+03   580   0.381E+02
DAV:   3    -0.448418916922E+02   -0.52197E+02   -0.49340E+02   936   0.140E+02
DAV:   4    -0.498518251880E+02   -0.50099E+01   -0.48004E+01  1048   0.522E+01
DAV:   5    -0.501785896788E+02   -0.32676E+00   -0.30839E+00   960   0.123E+01    0.191E+01
DAV:   6    -0.562177577074E+02   -0.60392E+01   -0.17432E+02  1115   0.148E+02    0.438E+01
DAV:   7    -0.456752302909E+02    0.10543E+02   -0.58163E+01   985   0.793E+01    0.782E+00
DAV:   8    -0.461664927912E+02   -0.49126E+00   -0.78072E+00  1072   0.267E+01    0.503E+00
DAV:   9    -0.462723889307E+02   -0.10590E+00   -0.29147E+00  1064   0.271E+01    0.538E+00
DAV:  10    -0.460924130599E+02    0.17998E+00   -0.83243E-01  1048   0.142E+01    0.179E+00
DAV:  11    -0.461175734650E+02   -0.25160E-01   -0.30577E-01  1016   0.569E+00    0.154E+00
DAV:  12    -0.461229364178E+02   -0.53630E-02   -0.56184E-02  1024   0.357E+00    0.827E-01
DAV:  13    -0.461235128979E+02   -0.57648E-03   -0.25563E-02  1056   0.270E+00    0.347E-01
DAV:  14    -0.461248424068E+02   -0.13295E-02   -0.68662E-03   992   0.885E-01    0.139E-01
DAV:  15    -0.461249491085E+02   -0.10670E-03   -0.13852E-03  1120   0.605E-01    0.857E-02
DAV:  16    -0.461250504680E+02   -0.10136E-03   -0.42199E-04  1024   0.333E-01    0.531E-02
DAV:  17    -0.461251145660E+02   -0.64098E-04   -0.19774E-04  1056   0.225E-01    0.429E-02
DAV:  18    -0.461251394694E+02   -0.24903E-04   -0.94110E-05   984   0.159E-01    0.171E-02
DAV:  19    -0.461251510689E+02   -0.11600E-04   -0.23866E-05   928   0.481E-02    0.142E-02
DAV:  20    -0.461251554774E+02   -0.44085E-05   -0.77803E-06   752   0.397E-02    0.788E-03
DAV:  21    -0.461251578244E+02   -0.23470E-05   -0.41845E-06   656   0.201E-02    0.253E-03
DAV:  22    -0.461251581277E+02   -0.30325E-06   -0.99430E-07   456   0.121E-02
   1 F= -.46125158E+02 E0= -.46118628E+02  d E =-.195910E-01  mag=     0.0004
