       N       E                     dE             d eps       ncg     rms          rms(c)
DAV:   1     0.228952193321E+03    0.22895E+03   -0.19528E+04  3444   0.207E+03
DAV:   2    -0.956670091644E+01   -0.23852E+03   -0.22888E+03  3456   0.418E+02
DAV:   3    -0.162177643524E+02   -0.66511E+01   -0.66398E+01  3720   0.780E+01
DAV:   4    -0.162735922953E+02   -0.55828E-01   -0.55831E-01  3816   0.679E+00
DAV:   5    -0.162746390131E+02   -0.10467E-02   -0.10468E-02  3816   0.863E-01    0.250E+01
DAV:   6    -0.164561172106E+02   -0.18148E+00   -0.74941E+00  3420   0.397E+01    0.691E+00
DAV:   7    -0.165126154711E+02   -0.56498E-01   -0.61535E-01  3408   0.975E+00    0.431E+00
DAV:   8    -0.165226678590E+02   -0.10052E-01   -0.15139E-02  3708   0.147E+00    0.137E+00
DAV:   9    -0.165144911796E+02    0.81767E-02   -0.51843E-03  3636   0.879E-01    0.337E-01
DAV:  10    -0.165143208308E+02    0.17035E-03   -0.22536E-03  3444   0.615E-01    0.443E-02
DAV:  11    -0.165143800916E+02   -0.59261E-04   -0.48795E-05  3588   0.655E-02    0.243E-02
DAV:  12    -0.165143883590E+02   -0.82673E-05   -0.49827E-06  3840   0.226E-02    0.959E-03
DAV:  13    -0.165143815906E+02    0.67684E-05   -0.13480E-06  3540   0.116E-02    0.253E-03
DAV:  14    -0.165143799800E+02    0.16106E-05   -0.15938E-07  2772   0.336E-03    0.623E-04
DAV:  15    -0.165143799656E+02    0.14336E-07   -0.11707E-08  1752   0.113E-03
   1 F= -.16514380E+02 E0= -.16514380E+02  d E =0.000000E+00  mag=     4.4054
