unknown system                          
   1.00000000000000     
     0.000000    2.840052    0.000000
     0.000000    0.000000   -2.840052
    -2.840052    0.000000    0.000000
   Fe
     2
Direct
  0.500000  0.500000  0.500000
  0.000000  0.000000  0.000000
 
   48   48   48
 0.11298507324E+04 0.20294674289E+04 0.44814103564E+03 0.32411330695E+03 0.48520823692E+03
 0.49611197117E+03 0.40426189320E+03 0.29322231070E+03 0.20070996945E+03 0.13403657557E+03
 0.89160761542E+02 0.59926362082E+02 0.41134188710E+02 0.29077582585E+02 0.21298000718E+02
 0.16223235134E+02 0.12862359847E+02 0.10551575792E+02 0.90497970794E+01 0.79856409338E+01
 0.72571864866E+01 0.67765141812E+01 0.64770812413E+01 0.63141760960E+01 0.62625738292E+01
 0.63141760960E+01 0.64770812413E+01 0.67765141812E+01 0.72571864866E+01 0.79856409338E+01
 0.90497970794E+01 0.10551575792E+02 0.12862359847E+02 0.16223235134E+02 0.21298000718E+02
 0.29077582585E+02 0.41134188710E+02 0.59926362082E+02 0.89160761542E+02 0.13403657557E+03
 0.20070996945E+03 0.29322231070E+03 0.40426189320E+03 0.49611197117E+03 0.48520823692E+03
 0.32411330695E+03 0.44814103564E+03 0.20294674289E+04 0.20294674289E+04 0.11645943628E+04
 0.28374551779E+03 0.32356988951E+03 0.47773409413E+03 0.48024158525E+03 0.38972900343E+03
 0.28295265781E+03 0.19420875063E+03 0.13011661891E+03 0.86839687745E+02 0.58554266181E+02
 0.40316478015E+02 0.28583339462E+02 0.20994202364E+02 0.16032652777E+02 0.12740082668E+02
 0.10474419167E+02 0.89961940516E+01 0.79486332886E+01 0.72312788128E+01 0.67576661900E+01
 0.64624422657E+01 0.63017359784E+01 0.62508131629E+01 0.63017359784E+01 0.64624422657E+01
 0.67576661900E+01 0.72312788128E+01 0.79486332886E+01 0.89961940516E+01 0.10474419167E+02
 0.12740082668E+02 0.16032652777E+02 0.20994202364E+02 0.28583339462E+02 0.40316478015E+02
 0.58554266181E+02 0.86839687745E+02 0.13011661891E+03 0.19420875063E+03 0.28295265781E+03
 0.38972900343E+03 0.48024158525E+03 0.47773409413E+03 0.32356988951E+03 0.28374551779E+03
 0.11645943628E+04 0.44814103564E+03 0.28374551779E+03 0.21531566034E+03 0.36308087585E+03
 0.46154157480E+03 0.43842874815E+03 0.35087633845E+03 0.25517696640E+03 0.17642821802E+03
 0.11928503410E+03 0.80367980388E+02 0.54698232773E+02 0.38003628938E+02 0.27177268842E+02
 0.20125558066E+02 0.15484967867E+02 0.12164302902E+02 0.10250456104E+02 0.88405086733E+01
 0.78410456456E+01 0.71558699928E+01 0.67027348600E+01 0.64197282542E+01 0.62654086201E+01
 0.62164600689E+01 0.62654086201E+01 0.64197282542E+01 0.67027348600E+01 0.71558699928E+01
 0.78410456456E+01 0.88405086733E+01 0.10250456104E+02 0.12164302902E+02 0.15484967867E+02
 0.20125558066E+02 0.27177268842E+02 0.38003628938E+02 0.54698232773E+02 0.80367980388E+02
 0.11928503410E+03 0.17642821802E+03 0.25517696640E+03 0.35087633845E+03 0.43842874815E+03
 0.46154157480E+03 0.36308087585E+03 0.21531566034E+03 0.28374551779E+03 0.32411330695E+03
 0.32356988951E+03 0.36308087585E+03 0.42447686466E+03 0.43430353905E+03 0.38092396026E+03
 0.29818064642E+03 0.21705865596E+03 0.15159415578E+03 0.10388429835E+03 0.71014535348E+02
 0.49043859926E+02 0.34567321275E+02 0.25066453896E+02 0.18807477051E+02 0.14646478945E+02
 0.11672484696E+02 0.99009460436E+01 0.85972700668E+01 0.76726421913E+01 0.70375606004E+01
 0.66163404574E+01 0.63524024646E+01 0.62080643201E+01 0.61622037888E+01 0.62080643201E+01
 0.63524024646E+01 0.66163404574E+01 0.70375606004E+01 0.76726421913E+01 0.85972700668E+01
 0.99009460436E+01 0.11672484696E+02 0.14646478945E+02 0.18807477051E+02 0.25066453896E+02
 0.34567321275E+02 0.49043859926E+02 0.71014535348E+02 0.10388429835E+03 0.15159415578E+03
 0.21705865596E+03 0.29818064642E+03 0.38092396026E+03 0.43430353905E+03 0.42447686466E+03
 0.36308087585E+03 0.32356988951E+03 0.48520823692E+03 0.47773409413E+03 0.46154157480E+03
 0.43430353905E+03 0.38465253006E+03 0.31550289873E+03 0.24167308710E+03 0.17610993018E+03
 0.12443731962E+03 0.86677885524E+02 0.60341417556E+02 0.42465139302E+02 0.30500128604E+02
 0.22527280140E+02 0.17200770602E+02 0.13612060769E+02 0.11048659387E+02 0.94574248732E+01
 0.82880891612E+01 0.74580175497E+01 0.68862877474E+01 0.65055030660E+01 0.62657794570E+01
 0.61341431237E+01 0.60922172829E+01 0.61341431237E+01 0.62657794570E+01 0.65055030660E+01
 0.68862877474E+01 0.74580175497E+01 0.82880891612E+01 0.94574248732E+01 0.11048659387E+02
 0.13612060769E+02 0.17200770602E+02 0.22527280140E+02 0.30500128604E+02 0.42465139302E+02
 0.60341417556E+02 0.86677885524E+02 0.12443731962E+03 0.17610993018E+03 0.24167308710E+03
 0.31550289873E+03 0.38465253006E+03 0.43430353905E+03 0.46154157480E+03 0.47773409413E+03
 0.49611197117E+03 0.48024158525E+03 0.43842874815E+03 0.38092396026E+03 0.31550289873E+03
 0.24907674947E+03 0.18833781592E+03 0.13774817422E+03 0.98624922473E+02 0.69964587024E+02
 0.49732020065E+02 0.35779276683E+02 0.26280645191E+02 0.19843599604E+02 0.15472566053E+02
 0.12481637801E+02 0.10344957956E+02 0.89568366225E+01 0.79383966143E+01 0.72144821120E+01
 0.67139733835E+01 0.63787674463E+01 0.61664276636E+01 0.60491995425E+01 0.60117453509E+01
 0.60491995425E+01 0.61664276636E+01 0.63787674463E+01 0.67139733835E+01 0.72144821120E+01
 0.79383966143E+01 0.89568366225E+01 0.10344957956E+02 0.12481637801E+02 0.15472566053E+02
 0.19843599604E+02 0.26280645191E+02 0.35779276683E+02 0.49732020065E+02 0.69964587024E+02
 0.98624922473E+02 0.13774817422E+03 0.18833781592E+03 0.24907674947E+03 0.31550289873E+03
 0.38092396026E+03 0.43842874815E+03 0.48024158525E+03 0.40426189320E+03 0.38972900343E+03
 0.35087633845E+03 0.29818064642E+03 0.24167308710E+03 0.18833781592E+03 0.14218846913E+03
 0.10486224380E+03 0.76242871503E+02 0.55179172991E+02 0.40128398854E+02 0.29585584457E+02
 0.22283552288E+02 0.17247912002E+02 0.13768569885E+02 0.11165959490E+02 0.96137220916E+01
 0.84363577304E+01 0.75739590589E+01 0.69597827871E+01 0.65330463285E+01 0.62452271571E+01
 0.60614873601E+01 0.59593714998E+01 0.59266197696E+01 0.59593714998E+01 0.60614873601E+01
 0.62452271571E+01 0.65330463285E+01 0.69597827871E+01 0.75739590589E+01 0.84363577304E+01
 0.96137220916E+01 0.11165959490E+02 0.13768569885E+02 0.17247912002E+02 0.22283552288E+02
 0.29585584457E+02 0.40128398854E+02 0.55179172991E+02 0.76242871503E+02 0.10486224380E+03
 0.14218846913E+03 0.18833781592E+03 0.24167308710E+03 0.29818064642E+03 0.35087633845E+03
 0.38972900343E+03 0.29322231070E+03 0.28295265781E+03 0.25517696640E+03 0.21705865596E+03
 0.17610993018E+03 0.13774817422E+03 0.10486224380E+03 0.78384823297E+02 0.58035735486E+02
 0.42931213716E+02 0.31998994231E+02 0.24220924643E+02 0.18742388108E+02 0.14897462810E+02
 0.12193440067E+02 0.10190756711E+02 0.89011796655E+01 0.79289443477E+01 0.72178568746E+01
 0.67100938349E+01 0.63551077692E+01 0.61136149507E+01 0.59580112736E+01 0.58708501123E+01
 0.58427686889E+01 0.58708501123E+01 0.59580112736E+01 0.61136149507E+01 0.63551077692E+01
 0.67100938349E+01 0.72178568746E+01 0.79289443477E+01 0.89011796655E+01 0.10190756711E+02
 0.12193440067E+02 0.14897462810E+02 0.18742388108E+02 0.24220924643E+02 0.31998994231E+02
 0.42931213716E+02 0.58035735486E+02 0.78384823297E+02 0.10486224380E+03 0.13774817422E+03
 0.17610993018E+03 0.21705865596E+03 0.25517696640E+03 0.28295265781E+03 0.20070996945E+03
 0.19420875063E+03 0.17642821802E+03 0.15159415578E+03 0.12443731962E+03 0.98624922473E+02
 0.76242871503E+02 0.58035735486E+02 0.43887622410E+02 0.33252222279E+02 0.25443804866E+02
 0.19800710798E+02 0.15759154414E+02 0.12873358643E+02 0.10638459381E+02 0.92880111564E+01
 0.82431746528E+01 0.74603142469E+01 0.68883995023E+01 0.64785871577E+01 0.61899387613E+01
 0.59915879561E+01 0.58624147215E+01 0.57894154531E+01 0.57657787077E+01 0.57894154531E+01
 0.58624147215E+01 0.59915879561E+01 0.61899387613E+01 0.64785871577E+01 0.68883995023E+01
 0.74603142469E+01 0.82431746528E+01 0.92880111564E+01 0.10638459381E+02 0.12873358643E+02
 0.15759154414E+02 0.19800710798E+02 0.25443804866E+02 0.33252222279E+02 0.43887622410E+02
 0.58035735486E+02 0.76242871503E+02 0.98624922473E+02 0.12443731962E+03 0.15159415578E+03
 0.17642821802E+03 0.19420875063E+03 0.13403657557E+03 0.13011661891E+03 0.11928503410E+03
 0.10388429835E+03 0.86677885524E+02 0.69964587024E+02 0.55179172991E+02 0.42931213716E+02
 0.33252222279E+02 0.25858060097E+02 0.20341691539E+02 0.16289814392E+02 0.13338704598E+02
 0.11195785540E+02 0.95710635469E+01 0.84900651118E+01 0.76633265477E+01 0.70476251006E+01
 0.65981607240E+01 0.62747103992E+01 0.60449412636E+01 0.58852742926E+01 0.57800859226E+01
 0.57200800352E+01 0.57005485172E+01 0.57200800352E+01 0.57800859226E+01 0.58852742926E+01
 0.60449412636E+01 0.62747103992E+01 0.65981607240E+01 0.70476251006E+01 0.76633265477E+01
 0.84900651118E+01 0.95710635469E+01 0.11195785540E+02 0.13338704598E+02 0.16289814392E+02
 0.20341691539E+02 0.25858060097E+02 0.33252222279E+02 0.42931213716E+02 0.55179172991E+02
 0.69964587024E+02 0.86677885524E+02 0.10388429835E+03 0.11928503410E+03 0.13011661891E+03
 0.89160761542E+02 0.86839687745E+02 0.80367980388E+02 0.71014535348E+02 0.60341417556E+02
 0.49732020065E+02 0.40128398854E+02 0.31998994231E+02 0.25443804866E+02 0.20341691539E+02
 0.16467098036E+02 0.13571345672E+02 0.11427501235E+02 0.97476371003E+01 0.86590595778E+01
 0.78131514479E+01 0.71733844384E+01 0.66996862043E+01 0.63540375435E+01 0.61041259541E+01
 0.59249969477E+01 0.57990824463E+01 0.57151661734E+01 0.56668533213E+01 0.56510484165E+01
 0.56668533213E+01 0.57151661734E+01 0.57990824463E+01 0.59249969477E+01 0.61041259541E+01
 0.63540375435E+01 0.66996862043E+01 0.71733844384E+01 0.78131514479E+01 0.86590595778E+01
 0.97476371003E+01 0.11427501235E+02 0.13571345672E+02 0.16467098036E+02 0.20341691539E+02
 0.25443804866E+02 0.31998994231E+02 0.40128398854E+02 0.49732020065E+02 0.60341417556E+02
 0.71014535348E+02 0.80367980388E+02 0.86839687745E+02 0.59926362082E+02 0.58554266181E+02
 0.54698232773E+02 0.49043859926E+02 0.42465139302E+02 0.35779276683E+02 0.29585584457E+02
 0.24220924643E+02 0.19800710798E+02 0.16289814392E+02 0.13571345672E+02 0.11503849005E+02
 0.98299433862E+01 0.87539659819E+01 0.79076682563E+01 0.72599003966E+01 0.67751346372E+01
 0.64182586127E+01 0.61580482222E+01 0.59691414129E+01 0.58326487684E+01 0.57357231182E+01
 0.56704747533E+01 0.56326147380E+01 0.56201770012E+01 0.56326147380E+01 0.56704747533E+01
 0.57357231182E+01 0.58326487684E+01 0.59691414129E+01 0.61580482222E+01 0.64182586127E+01
 0.67751346372E+01 0.72599003966E+01 0.79076682563E+01 0.87539659819E+01 0.98299433862E+01
 0.11503849005E+02 0.13571345672E+02 0.16289814392E+02 0.19800710798E+02 0.24220924643E+02
 0.29585584457E+02 0.35779276683E+02 0.42465139302E+02 0.49043859926E+02 0.54698232773E+02
 0.58554266181E+02 0.41134188710E+02 0.40316478015E+02 0.38003628938E+02 0.34567321275E+02
 0.30500128604E+02 0.26280645191E+02 0.22283552288E+02 0.18742388108E+02 0.15759154414E+02
 0.13338704598E+02 0.11427501235E+02 0.98299433862E+01 0.87840755668E+01 0.79522018349E+01
 0.73087513496E+01 0.68229341053E+01 0.64630835885E+01 0.61999028382E+01 0.60085162411E+01
 0.58694111657E+01 0.57684724036E+01 0.56963650896E+01 0.56475322179E+01 0.56190656509E+01
 0.56096906995E+01 0.56190656509E+01 0.56475322179E+01 0.56963650896E+01 0.57684724036E+01
 0.58694111657E+01 0.60085162411E+01 0.61999028382E+01 0.64630835885E+01 0.68229341053E+01
 0.73087513496E+01 0.79522018349E+01 0.87840755668E+01 0.98299433862E+01 0.11427501235E+02
 0.13338704598E+02 0.15759154414E+02 0.18742388108E+02 0.22283552288E+02 0.26280645191E+02
 0.30500128604E+02 0.34567321275E+02 0.38003628938E+02 0.40316478015E+02 0.29077582585E+02
 0.28583339462E+02 0.27177268842E+02 0.25066453896E+02 0.22527280140E+02 0.19843599604E+02
 0.17247912002E+02 0.14897462810E+02 0.12873358643E+02 0.11195785540E+02 0.97476371003E+01
 0.87539659819E+01 0.79522018349E+01 0.73243109073E+01 0.68455220744E+01 0.64886277047E+01
 0.62272302629E+01 0.60378954325E+01 0.59013206160E+01 0.58027022211E+01 0.57315065372E+01
 0.56808435009E+01 0.56466310622E+01 0.56267258881E+01 0.56201770012E+01 0.56267258881E+01
 0.56466310622E+01 0.56808435009E+01 0.57315065372E+01 0.58027022211E+01 0.59013206160E+01
 0.60378954325E+01 0.62272302629E+01 0.64886277047E+01 0.68455220744E+01 0.73243109073E+01
 0.79522018349E+01 0.87539659819E+01 0.97476371003E+01 0.11195785540E+02 0.12873358643E+02
 0.14897462810E+02 0.17247912002E+02 0.19843599604E+02 0.22527280140E+02 0.25066453896E+02
 0.27177268842E+02 0.28583339462E+02 0.21298000718E+02 0.20994202364E+02 0.20125558066E+02
 0.18807477051E+02 0.17200770602E+02 0.15472566053E+02 0.13768569885E+02 0.12193440067E+02
 0.10638459381E+02 0.95710635469E+01 0.86590595778E+01 0.79076682563E+01 0.73087513496E+01
 0.68455220744E+01 0.64968041174E+01 0.62404028747E+01 0.60554627920E+01 0.59238861943E+01
 0.58309863822E+01 0.57655714658E+01 0.57196413367E+01 0.56878561504E+01 0.56669131105E+01
 0.56549475470E+01 0.56510484165E+01 0.56549475470E+01 0.56669131105E+01 0.56878561504E+01
 0.57196413367E+01 0.57655714658E+01 0.58309863822E+01 0.59238861943E+01 0.60554627920E+01
 0.62404028747E+01 0.64968041174E+01 0.68455220744E+01 0.73087513496E+01 0.79076682563E+01
 0.86590595778E+01 0.95710635469E+01 0.10638459381E+02 0.12193440067E+02 0.13768569885E+02
 0.15472566053E+02 0.17200770602E+02 0.18807477051E+02 0.20125558066E+02 0.20994202364E+02
 0.16223235134E+02 0.16032652777E+02 0.15484967867E+02 0.14646478945E+02 0.13612060769E+02
 0.12481637801E+02 0.11165959490E+02 0.10190756711E+02 0.92880111564E+01 0.84900651118E+01
 0.78131514479E+01 0.72599003966E+01 0.68229341053E+01 0.64886277047E+01 0.62404028747E+01
 0.60612405124E+01 0.59353556658E+01 0.58491342388E+01 0.57914977395E+01 0.57538710004E+01
 0.57299091235E+01 0.57151129692E+01 0.57064335997E+01 0.57019346417E+01 0.57005485172E+01
 0.57019346417E+01 0.57064335997E+01 0.57151129692E+01 0.57299091235E+01 0.57538710004E+01
 0.57914977395E+01 0.58491342388E+01 0.59353556658E+01 0.60612405124E+01 0.62404028747E+01
 0.64886277047E+01 0.68229341053E+01 0.72599003966E+01 0.78131514479E+01 0.84900651118E+01
 0.92880111564E+01 0.10190756711E+02 0.11165959490E+02 0.12481637801E+02 0.13612060769E+02
 0.14646478945E+02 0.15484967867E+02 0.16032652777E+02 0.12862359847E+02 0.12740082668E+02
 0.12164302902E+02 0.11672484696E+02 0.11048659387E+02 0.10344957956E+02 0.96137220916E+01
 0.89011796655E+01 0.82431746528E+01 0.76633265477E+01 0.71733844384E+01 0.67751346372E+01
 0.64630835885E+01 0.62272302629E+01 0.60554627920E+01 0.59353556658E+01 0.58553350317E+01
 0.58052962990E+01 0.57768102605E+01 0.57630637601E+01 0.57586674796E+01 0.57594367911E+01
 0.57622160218E+01 0.57647761288E+01 0.57657787077E+01 0.57647761288E+01 0.57622160218E+01
 0.57594367911E+01 0.57586674796E+01 0.57630637601E+01 0.57768102605E+01 0.58052962990E+01
 0.58553350317E+01 0.59353556658E+01 0.60554627920E+01 0.62272302629E+01 0.64630835885E+01
 0.67751346372E+01 0.71733844384E+01 0.76633265477E+01 0.82431746528E+01 0.89011796655E+01
 0.96137220916E+01 0.10344957956E+02 0.11048659387E+02 0.11672484696E+02 0.12164302902E+02
 0.12740082668E+02 0.10551575792E+02 0.10474419167E+02 0.10250456104E+02 0.99009460436E+01
 0.94574248732E+01 0.89568366225E+01 0.84363577304E+01 0.79289443477E+01 0.74603142469E+01
 0.70476251006E+01 0.66996862043E+01 0.64182586127E+01 0.61999028382E+01 0.60378954325E+01
 0.59238861943E+01 0.58491342388E+01 0.58052962990E+01 0.57848282057E+01 0.57811054920E+01
 0.57883828832E+01 0.58017035189E+01 0.58168416713E+01 0.58303222910E+01 0.58395157073E+01
 0.58427686889E+01 0.58395157073E+01 0.58303222910E+01 0.58168416713E+01 0.58017035189E+01
 0.57883828832E+01 0.57811054920E+01 0.57848282057E+01 0.58052962990E+01 0.58491342388E+01
 0.59238861943E+01 0.60378954325E+01 0.61999028382E+01 0.64182586127E+01 0.66996862043E+01
 0.70476251006E+01 0.74603142469E+01 0.79289443477E+01 0.84363577304E+01 0.89568366225E+01
 0.94574248732E+01 0.99009460436E+01 0.10250456104E+02 0.10474419167E+02 0.90497970794E+01
 0.89961940516E+01 0.88405086733E+01 0.85972700668E+01 0.82880891612E+01 0.79383966143E+01
 0.75739590589E+01 0.72178568746E+01 0.68883995023E+01 0.65981607240E+01 0.63540375435E+01
 0.61580482222E+01 0.60085162411E+01 0.59013206160E+01 0.58309863822E+01 0.57914977395E+01
 0.57768102605E+01 0.57811054920E+01 0.57988706436E+01 0.58249007144E+01 0.58543125008E+01
 0.58826318887E+01 0.59059737889E+01 0.59212891765E+01 0.59266197696E+01 0.59212891765E+01
 0.59059737889E+01 0.58826318887E+01 0.58543125008E+01 0.58249007144E+01 0.57988706436E+01
 0.57811054920E+01 0.57768102605E+01 0.57914977395E+01 0.58309863822E+01 0.59013206160E+01
 0.60085162411E+01 0.61580482222E+01 0.63540375435E+01 0.65981607240E+01 0.68883995023E+01
 0.72178568746E+01 0.75739590589E+01 0.79383966143E+01 0.82880891612E+01 0.85972700668E+01
 0.88405086733E+01 0.89961940516E+01 0.79856409338E+01 0.79486332886E+01 0.78410456456E+01
 0.76726421913E+01 0.74580175497E+01 0.72144821120E+01 0.69597827871E+01 0.67100938349E+01
 0.64785871577E+01 0.62747103992E+01 0.61041259541E+01 0.59691414129E+01 0.58694111657E+01
 0.58027022211E+01 0.57655714658E+01 0.57538710004E+01 0.57630637601E+01 0.57883828832E+01
 0.58249007144E+01 0.58675850460E+01 0.59114107512E+01 0.59515666352E+01 0.59837569596E+01
 0.60045560287E+01 0.60117453509E+01 0.60045560287E+01 0.59837569596E+01 0.59515666352E+01
 0.59114107512E+01 0.58675850460E+01 0.58249007144E+01 0.57883828832E+01 0.57630637601E+01
 0.57538710004E+01 0.57655714658E+01 0.58027022211E+01 0.58694111657E+01 0.59691414129E+01
 0.61041259541E+01 0.62747103992E+01 0.64785871577E+01 0.67100938349E+01 0.69597827871E+01
 0.72144821120E+01 0.74580175497E+01 0.76726421913E+01 0.78410456456E+01 0.79486332886E+01
 0.72571864866E+01 0.72312788128E+01 0.71558699928E+01 0.70375606004E+01 0.68862877474E+01
 0.67139733835E+01 0.65330463285E+01 0.63551077692E+01 0.61899387613E+01 0.60449412636E+01
 0.59249969477E+01 0.58326487684E+01 0.57684724036E+01 0.57315065372E+01 0.57196413367E+01
 0.57299091235E+01 0.57586674796E+01 0.58017035189E+01 0.58543125008E+01 0.59114107512E+01
 0.59677311317E+01 0.60181217726E+01 0.60579323018E+01 0.60834365153E+01 0.60922172829E+01
 0.60834365153E+01 0.60579323018E+01 0.60181217726E+01 0.59677311317E+01 0.59114107512E+01
 0.58543125008E+01 0.58017035189E+01 0.57586674796E+01 0.57299091235E+01 0.57196413367E+01
 0.57315065372E+01 0.57684724036E+01 0.58326487684E+01 0.59249969477E+01 0.60449412636E+01
 0.61899387613E+01 0.63551077692E+01 0.65330463285E+01 0.67139733835E+01 0.68862877474E+01
 0.70375606004E+01 0.71558699928E+01 0.72312788128E+01 0.67765141812E+01 0.67576661900E+01
 0.67027348600E+01 0.66163404574E+01 0.65055030660E+01 0.63787674463E+01 0.62452271571E+01
 0.61136149507E+01 0.59915879561E+01 0.58852742926E+01 0.57990824463E+01 0.57357231182E+01
 0.56963650896E+01 0.56808435009E+01 0.56878561504E+01 0.57151129692E+01 0.57594367911E+01
 0.58168416713E+01 0.58826318887E+01 0.59515666352E+01 0.60181217726E+01 0.60768540409E+01
 0.61228411579E+01 0.61521420481E+01 0.61622037888E+01 0.61521420481E+01 0.61228411579E+01
 0.60768540409E+01 0.60181217726E+01 0.59515666352E+01 0.58826318887E+01 0.58168416713E+01
 0.57594367911E+01 0.57151129692E+01 0.56878561504E+01 0.56808435009E+01 0.56963650896E+01
 0.57357231182E+01 0.57990824463E+01 0.58852742926E+01 0.59915879561E+01 0.61136149507E+01
 0.62452271571E+01 0.63787674463E+01 0.65055030660E+01 0.66163404574E+01 0.67027348600E+01
 0.67576661900E+01 0.64770812413E+01 0.64624422657E+01 0.64197282542E+01 0.63524024646E+01
 0.62657794570E+01 0.61664276636E+01 0.60614873601E+01 0.59580112736E+01 0.58624147215E+01
 0.57800859226E+01 0.57151661734E+01 0.56704747533E+01 0.56475322179E+01 0.56466310622E+01
 0.56669131105E+01 0.57064335997E+01 0.57622160218E+01 0.58303222910E+01 0.59059737889E+01
 0.59837569596E+01 0.60579323018E+01 0.61228411579E+01 0.61733766880E+01 0.62054613365E+01
 0.62164600689E+01 0.62054613365E+01 0.61733766880E+01 0.61228411579E+01 0.60579323018E+01
 0.59837569596E+01 0.59059737889E+01 0.58303222910E+01 0.57622160218E+01 0.57064335997E+01
 0.56669131105E+01 0.56466310622E+01 0.56475322179E+01 0.56704747533E+01 0.57151661734E+01
 0.57800859226E+01 0.58624147215E+01 0.59580112736E+01 0.60614873601E+01 0.61664276636E+01
 0.62657794570E+01 0.63524024646E+01 0.64197282542E+01 0.64624422657E+01 0.63141760960E+01
 0.63017359784E+01 0.62654086201E+01 0.62080643201E+01 0.61341431237E+01 0.60491995425E+01
 0.59593714998E+01 0.58708501123E+01 0.57894154531E+01 0.57200800352E+01 0.56668533213E+01
 0.56326147380E+01 0.56190656509E+01 0.56267258881E+01 0.56549475470E+01 0.57019346417E+01
 0.57647761288E+01 0.58395157073E+01 0.59212891765E+01 0.60045560287E+01 0.60834365153E+01
 0.61521420481E+01 0.62054613365E+01 0.62392439622E+01 0.62508131629E+01 0.62392439622E+01
 0.62054613365E+01 0.61521420481E+01 0.60834365153E+01 0.60045560287E+01 0.59212891765E+01
 0.58395157073E+01 0.57647761288E+01 0.57019346417E+01 0.56549475470E+01 0.56267258881E+01
 0.56190656509E+01 0.56326147380E+01 0.56668533213E+01 0.57200800352E+01 0.57894154531E+01
 0.58708501123E+01 0.59593714998E+01 0.60491995425E+01 0.61341431237E+01 0.62080643201E+01
 0.62654086201E+01 0.63017359784E+01 0.62625738292E+01 0.62508131629E+01 0.62164600689E+01
 0.61622037888E+01 0.60922172829E+01 0.60117453509E+01 0.59266197696E+01 0.58427686889E+01
 0.57657787077E+01 0.57005485172E+01 0.56510484165E+01 0.56201770012E+01 0.56096906995E+01
 0.56201770012E+01 0.56510484165E+01 0.57005485172E+01 0.57657787077E+01 0.58427686889E+01
 0.59266197696E+01 0.60117453509E+01 0.60922172829E+01 0.61622037888E+01 0.62164600689E+01
 0.62508131629E+01 0.62625738292E+01 0.62508131629E+01 0.62164600689E+01 0.61622037888E+01
 0.60922172829E+01 0.60117453509E+01 0.59266197696E+01 0.58427686889E+01 0.57657787077E+01
 0.57005485172E+01 0.56510484165E+01 0.56201770012E+01 0.56096906995E+01 0.56201770012E+01
 0.56510484165E+01 0.57005485172E+01 0.57657787077E+01 0.58427686889E+01 0.59266197696E+01
 0.60117453509E+01 0.60922172829E+01 0.61622037888E+01 0.62164600689E+01 0.62508131629E+01
 0.63141760960E+01 0.63017359784E+01 0.62654086201E+01 0.62080643201E+01 0.61341431237E+01
 0.60491995425E+01 0.59593714998E+01 0.58708501123E+01 0.57894154531E+01 0.57200800352E+01
 0.56668533213E+01 0.56326147380E+01 0.56190656509E+01 0.56267258881E+01 0.56549475470E+01
 0.57019346417E+01 0.57647761288E+01 0.58395157073E+01 0.59212891765E+01 0.60045560287E+01
 0.60834365153E+01 0.61521420481E+01 0.62054613365E+01 0.62392439622E+01 0.62508131629E+01
 0.62392439622E+01 0.62054613365E+01 0.61521420481E+01 0.60834365153E+01 0.60045560287E+01
 0.59212891765E+01 0.58395157073E+01 0.57647761288E+01 0.57019346417E+01 0.56549475470E+01
 0.56267258881E+01 0.56190656509E+01 0.56326147380E+01 0.56668533213E+01 0.57200800352E+01
 0.57894154531E+01 0.58708501123E+01 0.59593714998E+01 0.60491995425E+01 0.61341431237E+01
 0.62080643201E+01 0.62654086201E+01 0.63017359784E+01 0.64770812413E+01 0.64624422657E+01
 0.64197282542E+01 0.63524024646E+01 0.62657794570E+01 0.61664276636E+01 0.60614873601E+01
 0.59580112736E+01 0.58624147215E+01 0.57800859226E+01 0.57151661734E+01 0.56704747533E+01
 0.56475322179E+01 0.56466310622E+01 0.56669131105E+01 0.57064335997E+01 0.57622160218E+01
 0.58303222910E+01 0.59059737889E+01 0.59837569596E+01 0.60579323018E+01 0.61228411579E+01
 0.61733766880E+01 0.62054613365E+01 0.62164600689E+01 0.62054613365E+01 0.61733766880E+01
 0.61228411579E+01 0.60579323018E+01 0.59837569596E+01 0.59059737889E+01 0.58303222910E+01
 0.57622160218E+01 0.57064335997E+01 0.56669131105E+01 0.56466310622E+01 0.56475322179E+01
 0.56704747533E+01 0.57151661734E+01 0.57800859226E+01 0.58624147215E+01 0.59580112736E+01
 0.60614873601E+01 0.61664276636E+01 0.62657794570E+01 0.63524024646E+01 0.64197282542E+01
 0.64624422657E+01 0.67765141812E+01 0.67576661900E+01 0.67027348600E+01 0.66163404574E+01
 0.65055030660E+01 0.63787674463E+01 0.62452271571E+01 0.61136149507E+01 0.59915879561E+01
 0.58852742926E+01 0.57990824463E+01 0.57357231182E+01 0.56963650896E+01 0.56808435009E+01
 0.56878561504E+01 0.57151129692E+01 0.57594367911E+01 0.58168416713E+01 0.58826318887E+01
 0.59515666352E+01 0.60181217726E+01 0.60768540409E+01 0.61228411579E+01 0.61521420481E+01
 0.61622037888E+01 0.61521420481E+01 0.61228411579E+01 0.60768540409E+01 0.60181217726E+01
 0.59515666352E+01 0.58826318887E+01 0.58168416713E+01 0.57594367911E+01 0.57151129692E+01
 0.56878561504E+01 0.56808435009E+01 0.56963650896E+01 0.57357231182E+01 0.57990824463E+01
 0.58852742926E+01 0.59915879561E+01 0.61136149507E+01 0.62452271571E+01 0.63787674463E+01
 0.65055030660E+01 0.66163404574E+01 0.67027348600E+01 0.67576661900E+01 0.72571864866E+01
 0.72312788128E+01 0.71558699928E+01 0.70375606004E+01 0.68862877474E+01 0.67139733835E+01
 0.65330463285E+01 0.63551077692E+01 0.61899387613E+01 0.60449412636E+01 0.59249969477E+01
 0.58326487684E+01 0.57684724036E+01 0.57315065372E+01 0.57196413367E+01 0.57299091235E+01
 0.57586674796E+01 0.58017035189E+01 0.58543125008E+01 0.59114107512E+01 0.59677311317E+01
 0.60181217726E+01 0.60579323018E+01 0.60834365153E+01 0.60922172829E+01 0.60834365153E+01
 0.60579323018E+01 0.60181217726E+01 0.59677311317E+01 0.59114107512E+01 0.58543125008E+01
 0.58017035189E+01 0.57586674796E+01 0.57299091235E+01 0.57196413367E+01 0.57315065372E+01
 0.57684724036E+01 0.58326487684E+01 0.59249969477E+01 0.60449412636E+01 0.61899387613E+01
 0.63551077692E+01 0.65330463285E+01 0.67139733835E+01 0.68862877474E+01 0.70375606004E+01
 0.71558699928E+01 0.72312788128E+01 0.79856409338E+01 0.79486332886E+01 0.78410456456E+01
 0.76726421913E+01 0.74580175497E+01 0.72144821120E+01 0.69597827871E+01 0.67100938349E+01
 0.64785871577E+01 0.62747103992E+01 0.61041259541E+01 0.59691414129E+01 0.58694111657E+01
 0.58027022211E+01 0.57655714658E+01 0.57538710004E+01 0.57630637601E+01 0.57883828832E+01
 0.58249007144E+01 0.58675850460E+01 0.59114107512E+01 0.59515666352E+01 0.59837569596E+01
 0.60045560287E+01 0.60117453509E+01 0.60045560287E+01 0.59837569596E+01 0.59515666352E+01
 0.59114107512E+01 0.58675850460E+01 0.58249007144E+01 0.57883828832E+01 0.57630637601E+01
 0.57538710004E+01 0.57655714658E+01 0.58027022211E+01 0.58694111657E+01 0.59691414129E+01
 0.61041259541E+01 0.62747103992E+01 0.64785871577E+01 0.67100938349E+01 0.69597827871E+01
 0.72144821120E+01 0.74580175497E+01 0.76726421913E+01 0.78410456456E+01 0.79486332886E+01
 0.90497970794E+01 0.89961940516E+01 0.88405086733E+01 0.85972700668E+01 0.82880891612E+01
 0.79383966143E+01 0.75739590589E+01 0.72178568746E+01 0.68883995023E+01 0.65981607240E+01
 0.63540375435E+01 0.61580482222E+01 0.60085162411E+01 0.59013206160E+01 0.58309863822E+01
 0.57914977395E+01 0.57768102605E+01 0.57811054920E+01 0.57988706436E+01 0.58249007144E+01
 0.58543125008E+01 0.58826318887E+01 0.59059737889E+01 0.59212891765E+01 0.59266197696E+01
 0.59212891765E+01 0.59059737889E+01 0.58826318887E+01 0.58543125008E+01 0.58249007144E+01
 0.57988706436E+01 0.57811054920E+01 0.57768102605E+01 0.57914977395E+01 0.58309863822E+01
 0.59013206160E+01 0.60085162411E+01 0.61580482222E+01 0.63540375435E+01 0.65981607240E+01
 0.68883995023E+01 0.72178568746E+01 0.75739590589E+01 0.79383966143E+01 0.82880891612E+01
 0.85972700668E+01 0.88405086733E+01 0.89961940516E+01 0.10551575792E+02 0.10474419167E+02
 0.10250456104E+02 0.99009460436E+01 0.94574248732E+01 0.89568366225E+01 0.84363577304E+01
 0.79289443477E+01 0.74603142469E+01 0.70476251006E+01 0.66996862043E+01 0.64182586127E+01
 0.61999028382E+01 0.60378954325E+01 0.59238861943E+01 0.58491342388E+01 0.58052962990E+01
 0.57848282057E+01 0.57811054920E+01 0.57883828832E+01 0.58017035189E+01 0.58168416713E+01
 0.58303222910E+01 0.58395157073E+01 0.58427686889E+01 0.58395157073E+01 0.58303222910E+01
 0.58168416713E+01 0.58017035189E+01 0.57883828832E+01 0.57811054920E+01 0.57848282057E+01
 0.58052962990E+01 0.58491342388E+01 0.59238861943E+01 0.60378954325E+01 0.61999028382E+01
 0.64182586127E+01 0.66996862043E+01 0.70476251006E+01 0.74603142469E+01 0.79289443477E+01
 0.84363577304E+01 0.89568366225E+01 0.94574248732E+01 0.99009460436E+01 0.10250456104E+02
 0.10474419167E+02 0.12862359847E+02 0.12740082668E+02 0.12164302902E+02 0.11672484696E+02
 0.11048659387E+02 0.10344957956E+02 0.96137220916E+01 0.89011796655E+01 0.82431746528E+01
 0.76633265477E+01 0.71733844384E+01 0.67751346372E+01 0.64630835885E+01 0.62272302629E+01
 0.60554627920E+01 0.59353556658E+01 0.58553350317E+01 0.58052962990E+01 0.57768102605E+01
 0.57630637601E+01 0.57586674796E+01 0.57594367911E+01 0.57622160218E+01 0.57647761288E+01
 0.57657787077E+01 0.57647761288E+01 0.57622160218E+01 0.57594367911E+01 0.57586674796E+01
 0.57630637601E+01 0.57768102605E+01 0.58052962990E+01 0.58553350317E+01 0.59353556658E+01
 0.60554627920E+01 0.62272302629E+01 0.64630835885E+01 0.67751346372E+01 0.71733844384E+01
 0.76633265477E+01 0.82431746528E+01 0.89011796655E+01 0.96137220916E+01 0.10344957956E+02
 0.11048659387E+02 0.11672484696E+02 0.12164302902E+02 0.12740082668E+02 0.16223235134E+02
 0.16032652777E+02 0.15484967867E+02 0.14646478945E+02 0.13612060769E+02 0.12481637801E+02
 0.11165959490E+02 0.10190756711E+02 0.92880111564E+01 0.84900651118E+01 0.78131514479E+01
 0.72599003966E+01 0.68229341053E+01 0.64886277047E+01 0.62404028747E+01 0.60612405124E+01
 0.59353556658E+01 0.58491342388E+01 0.57914977395E+01 0.57538710004E+01 0.57299091235E+01
 0.57151129692E+01 0.57064335997E+01 0.57019346417E+01 0.57005485172E+01 0.57019346417E+01
 0.57064335997E+01 0.57151129692E+01 0.57299091235E+01 0.57538710004E+01 0.57914977395E+01
 0.58491342388E+01 0.59353556658E+01 0.60612405124E+01 0.62404028747E+01 0.64886277047E+01
 0.68229341053E+01 0.72599003966E+01 0.78131514479E+01 0.84900651118E+01 0.92880111564E+01
 0.10190756711E+02 0.11165959490E+02 0.12481637801E+02 0.13612060769E+02 0.14646478945E+02