=========================================
SLURM_JOB_ID = 43763082
SLURM_JOB_NODELIST = lnode27
SLURM_GPUS = 
SLURM_CPUS_ON_NODE = 8
SLURM_JOB_PARTITION = lenovo
SLURM_TASK_PID = 2724392
CUDA_VISIBLE_DEVICES = 
==========================================
 running on    8 total cores
 distrk:  each k-point on    8 cores,    1 groups
 distr:  one band on    4 cores,    2 groups
 using from now: INCAR     
 vasp.5.4.4.18Apr17-6-g9f103f2a35 (build Apr 28 2018 00:24:27) complex          
  
 POSCAR found type information on POSCAR  Fe
 POSCAR found :  1 types and       2 ions
 scaLAPACK will be used

 ----------------------------------------------------------------------------- 
|                                                                             |
|  ADVICE TO THIS USER RUNNING 'VASP/VAMP'   (HEAR YOUR MASTER'S VOICE ...):  |
|                                                                             |
|      You have a (more or less) 'small supercell' and for smaller cells      |
|      it is recommended  to use the reciprocal-space projection scheme!      |
|      The real space optimization is not  efficient for small cells and it   |
|      is also less accurate ...                                              |
|      Therefore set LREAL=.FALSE. in the  INCAR file                         |
|                                                                             |
 ----------------------------------------------------------------------------- 

 LDA part: xc-table for Pade appr. of Perdew
 POSCAR, INCAR and KPOINTS ok, starting setup
 FFT: planning ...
 WAVECAR not read
 entering main loop
       N       E                     dE             d eps       ncg     rms          rms(c)
DAV:   1     0.282008602375E+03    0.28201E+03   -0.17629E+04  8952   0.246E+03
DAV:   2     0.552513384655E+01   -0.27648E+03   -0.27198E+03  8686   0.564E+02
DAV:   3    -0.755063659409E+01   -0.13076E+02   -0.12889E+02  9078   0.141E+02
DAV:   4    -0.776902968230E+01   -0.21839E+00   -0.21819E+00  8868   0.179E+01
DAV:   5    -0.777446947432E+01   -0.54398E-02   -0.54400E-02  9124   0.272E+00    0.228E+01
DAV:   6    -0.650999013056E+01    0.12645E+01   -0.14025E+01  8668   0.528E+01    0.116E+01
DAV:   7    -0.706370718110E+01   -0.55372E+00   -0.16867E+00  8700   0.132E+01    0.638E+00
DAV:   8    -0.726213671568E+01   -0.19843E+00   -0.54208E-01  9124   0.524E+00    0.267E+00
DAV:   9    -0.747877594100E+01   -0.21664E+00   -0.13800E+00  9710   0.519E+00    0.165E+00
DAV:  10    -0.762812248623E+01   -0.14935E+00   -0.76050E-01  9248   0.570E+00    0.125E+00
DAV:  11    -0.770213528607E+01   -0.74013E-01   -0.54721E-01  9218   0.492E+00    0.387E-01
DAV:  12    -0.770724783166E+01   -0.51125E-02   -0.14719E-02  8668   0.117E+00    0.259E-01
DAV:  13    -0.770832583171E+01   -0.10780E-02   -0.41782E-02  9516   0.130E+00    0.236E-01
DAV:  14    -0.770910356724E+01   -0.77774E-03   -0.18359E-03  8810   0.367E-01    0.140E-01
DAV:  15    -0.770930262323E+01   -0.19906E-03   -0.43946E-03  9826   0.433E-01    0.455E-02
DAV:  16    -0.770934906997E+01   -0.46447E-04   -0.10775E-03  9744   0.266E-01    0.146E-02
DAV:  17    -0.770933599881E+01    0.13071E-04   -0.50038E-05  8936   0.782E-02    0.599E-03
DAV:  18    -0.770934683355E+01   -0.10835E-04   -0.14552E-05  9150   0.323E-02    0.474E-03
DAV:  19    -0.770935082378E+01   -0.39902E-05   -0.27492E-06  5716   0.168E-02    0.312E-03
DAV:  20    -0.770934496167E+01    0.58621E-05   -0.54122E-06  6078   0.179E-02    0.401E-04
DAV:  21    -0.770934568186E+01   -0.72019E-06   -0.13054E-07  4330   0.364E-03
   1 F= -.77093457E+01 E0= -.77093457E+01  d E =0.000000E+00  mag=    -0.0000
