<?xml version="1.0" encoding="ISO-8859-1"?>
<modeling>
 <generator>
  <i name="program" type="string">vasp </i>
  <i name="version" type="string">5.4.4.18Apr17-6-g9f103f2a35  </i>
  <i name="subversion" type="string">(build Apr 28 2018 00:24:27) complex            parallel </i>
  <i name="platform" type="string">LinuxIFC </i>
  <i name="date" type="string">2021 06 13 </i>
  <i name="time" type="string">22:46:40 </i>
 </generator>
 <incar>
  <i type="string" name="PREC">accurate</i>
  <i type="string" name="ALGO"> Normal</i>
  <i type="int" name="ISPIN">     2</i>
  <i type="int" name="ICHARG">     2</i>
  <i type="int" name="NELM">   120</i>
  <i type="int" name="IBRION">    -1</i>
  <i name="EDIFF">      0.00000100</i>
  <i type="int" name="NSW">     0</i>
  <i type="int" name="ISIF">     3</i>
  <i name="SYMPREC">      0.00000001</i>
  <i name="ENCUT">    520.00000000</i>
  <v name="MAGMOM">     -5.00000000      5.00000000</v>
  <i type="string" name="LREAL"> Auto</i>
  <i type="int" name="ISMEAR">    -5</i>
  <i name="SIGMA">      0.05000000</i>
  <i type="int" name="LMAXMIX">     4</i>
  <i type="logical" name="LWAVE"> F  </i>
  <i type="logical" name="LCHARG"> T  </i>
  <i type="logical" name="LVTOT"> F  </i>
  <i type="logical" name="LVHAR"> F  </i>
  <i type="int" name="LORBIT">    11</i>
  <i type="logical" name="LASPH"> T  </i>
  <i type="logical" name="LAECHG"> F  </i>
  <v type="int" name="KPOINT_BSE">    -1     0     0     0</v>
  <i type="int" name="NELM">   120</i>
  <i type="logical" name="LDAU"> T  </i>
  <v type="int" name="LDAUTYPE">     2</v>
  <v type="int" name="LDAUL">     2</v>
  <v name="LDAUU">      5.30000000</v>
  <v name="LDAUJ">      0.00000000</v>
  <i type="int" name="LDAUPRINT">     1</i>
  <i type="logical" name="LASPH"> T  </i>
 </incar>
 <structure name="primitive_cell" >
  <crystal>
   <varray name="basis" >
    <v>      -1.42002600       1.42002600      -1.42002600 </v>
    <v>       1.42002600       1.42002600       1.42002600 </v>
    <v>       1.42002600      -1.42002600      -1.42002600 </v>
   </varray>
   <i name="volume">     11.45378113 </i>
   <varray name="rec_basis" >
    <v>       0.00000000       0.35210623      -0.35210623 </v>
    <v>       0.35210623       0.35210623       0.00000000 </v>
    <v>       0.35210623       0.00000000      -0.35210623 </v>
   </varray>
  </crystal>
  <varray name="positions" >
   <v>       0.00000000       0.00000000       0.00000000 </v>
  </varray>
 </structure>
 <varray name="primitive_index" >
  <v type="int" >        1 </v>
 </varray>
 <kpoints>
  <generation param="Gamma">
   <v type="int" name="divisions">      14       14       14 </v>
   <v name="usershift">      0.00000000       0.00000000       0.00000000 </v>
   <v name="genvec1">      0.07142857       0.00000000       0.00000000 </v>
   <v name="genvec2">      0.00000000       0.07142857       0.00000000 </v>
   <v name="genvec3">      0.00000000       0.00000000       0.07142857 </v>
   <v name="shift">      0.00000000       0.00000000       0.00000000 </v>
  </generation>
  <varray name="kpointlist" >
   <v>       0.00000000       0.00000000       0.00000000 </v>
   <v>       0.07142857       0.00000000       0.00000000 </v>
   <v>       0.14285714       0.00000000       0.00000000 </v>
   <v>       0.21428571       0.00000000       0.00000000 </v>
   <v>       0.28571429       0.00000000       0.00000000 </v>
   <v>       0.35714286       0.00000000       0.00000000 </v>
   <v>       0.42857143       0.00000000       0.00000000 </v>
   <v>       0.50000000       0.00000000       0.00000000 </v>
   <v>       0.07142857       0.07142857       0.00000000 </v>
   <v>       0.14285714       0.07142857       0.00000000 </v>
   <v>       0.21428571       0.07142857       0.00000000 </v>
   <v>       0.28571429       0.07142857       0.00000000 </v>
   <v>       0.35714286       0.07142857       0.00000000 </v>
   <v>       0.42857143       0.07142857       0.00000000 </v>
   <v>       0.50000000       0.07142857       0.00000000 </v>
   <v>       0.14285714       0.14285714       0.00000000 </v>
   <v>       0.21428571       0.14285714       0.00000000 </v>
   <v>       0.28571429       0.14285714       0.00000000 </v>
   <v>       0.35714286       0.14285714       0.00000000 </v>
   <v>       0.42857143       0.14285714       0.00000000 </v>
   <v>       0.50000000       0.14285714       0.00000000 </v>
   <v>       0.21428571       0.21428571       0.00000000 </v>
   <v>       0.28571429       0.21428571       0.00000000 </v>
   <v>       0.35714286       0.21428571       0.00000000 </v>
   <v>       0.42857143       0.21428571       0.00000000 </v>
   <v>       0.50000000       0.21428571       0.00000000 </v>
   <v>       0.28571429       0.28571429       0.00000000 </v>
   <v>       0.35714286       0.28571429       0.00000000 </v>
   <v>       0.42857143       0.28571429       0.00000000 </v>
   <v>       0.50000000       0.28571429       0.00000000 </v>
   <v>       0.35714286       0.35714286       0.00000000 </v>
   <v>       0.42857143       0.35714286       0.00000000 </v>
   <v>       0.50000000       0.35714286       0.00000000 </v>
   <v>       0.42857143       0.42857143       0.00000000 </v>
   <v>       0.50000000       0.42857143       0.00000000 </v>
   <v>       0.50000000       0.50000000       0.00000000 </v>
   <v>       0.07142857       0.07142857       0.07142857 </v>
   <v>       0.14285714       0.07142857       0.07142857 </v>
   <v>       0.21428571       0.07142857       0.07142857 </v>
   <v>       0.28571429       0.07142857       0.07142857 </v>
   <v>       0.35714286       0.07142857       0.07142857 </v>
   <v>       0.42857143       0.07142857       0.07142857 </v>
   <v>       0.50000000       0.07142857       0.07142857 </v>
   <v>       0.14285714       0.14285714       0.07142857 </v>
   <v>       0.21428571       0.14285714       0.07142857 </v>
   <v>       0.28571429       0.14285714       0.07142857 </v>
   <v>       0.35714286       0.14285714       0.07142857 </v>
   <v>       0.42857143       0.14285714       0.07142857 </v>
   <v>       0.50000000       0.14285714       0.07142857 </v>
   <v>       0.21428571       0.21428571       0.07142857 </v>
   <v>       0.28571429       0.21428571       0.07142857 </v>
   <v>       0.35714286       0.21428571       0.07142857 </v>
   <v>       0.42857143       0.21428571       0.07142857 </v>
   <v>       0.50000000       0.21428571       0.07142857 </v>
   <v>       0.28571429       0.28571429       0.07142857 </v>
   <v>       0.35714286       0.28571429       0.07142857 </v>
   <v>       0.42857143       0.28571429       0.07142857 </v>
   <v>       0.50000000       0.28571429       0.07142857 </v>
   <v>       0.35714286       0.35714286       0.07142857 </v>
   <v>       0.42857143       0.35714286       0.07142857 </v>
   <v>       0.50000000       0.35714286       0.07142857 </v>
   <v>       0.42857143       0.42857143       0.07142857 </v>
   <v>       0.50000000       0.42857143       0.07142857 </v>
   <v>       0.50000000       0.50000000       0.07142857 </v>
   <v>       0.14285714       0.14285714       0.14285714 </v>
   <v>       0.21428571       0.14285714       0.14285714 </v>
   <v>       0.28571429       0.14285714       0.14285714 </v>
   <v>       0.35714286       0.14285714       0.14285714 </v>
   <v>       0.42857143       0.14285714       0.14285714 </v>
   <v>       0.50000000       0.14285714       0.14285714 </v>
   <v>       0.21428571       0.21428571       0.14285714 </v>
   <v>       0.28571429       0.21428571       0.14285714 </v>
   <v>       0.35714286       0.21428571       0.14285714 </v>
   <v>       0.42857143       0.21428571       0.14285714 </v>
   <v>       0.50000000       0.21428571       0.14285714 </v>
   <v>       0.28571429       0.28571429       0.14285714 </v>
   <v>       0.35714286       0.28571429       0.14285714 </v>
   <v>       0.42857143       0.28571429       0.14285714 </v>
   <v>       0.50000000       0.28571429       0.14285714 </v>
   <v>       0.35714286       0.35714286       0.14285714 </v>
   <v>       0.42857143       0.35714286       0.14285714 </v>
   <v>       0.50000000       0.35714286       0.14285714 </v>
   <v>       0.42857143       0.42857143       0.14285714 </v>
   <v>       0.50000000       0.42857143       0.14285714 </v>
   <v>       0.50000000       0.50000000       0.14285714 </v>
   <v>       0.21428571       0.21428571       0.21428571 </v>
   <v>       0.28571429       0.21428571       0.21428571 </v>
   <v>       0.35714286       0.21428571       0.21428571 </v>
   <v>       0.42857143       0.21428571       0.21428571 </v>
   <v>       0.50000000       0.21428571       0.21428571 </v>
   <v>       0.28571429       0.28571429       0.21428571 </v>
   <v>       0.35714286       0.28571429       0.21428571 </v>
   <v>       0.42857143       0.28571429       0.21428571 </v>
   <v>       0.50000000       0.28571429       0.21428571 </v>
   <v>       0.35714286       0.35714286       0.21428571 </v>
   <v>       0.42857143       0.35714286       0.21428571 </v>
   <v>       0.50000000       0.35714286       0.21428571 </v>
   <v>       0.42857143       0.42857143       0.21428571 </v>
   <v>       0.50000000       0.42857143       0.21428571 </v>
   <v>       0.50000000       0.50000000       0.21428571 </v>
   <v>       0.28571429       0.28571429       0.28571429 </v>
   <v>       0.35714286       0.28571429       0.28571429 </v>
   <v>       0.42857143       0.28571429       0.28571429 </v>
   <v>       0.50000000       0.28571429       0.28571429 </v>
   <v>       0.35714286       0.35714286       0.28571429 </v>
   <v>       0.42857143       0.35714286       0.28571429 </v>
   <v>       0.50000000       0.35714286       0.28571429 </v>
   <v>       0.42857143       0.42857143       0.28571429 </v>
   <v>       0.50000000       0.42857143       0.28571429 </v>
   <v>       0.50000000       0.50000000       0.28571429 </v>
   <v>       0.35714286       0.35714286       0.35714286 </v>
   <v>       0.42857143       0.35714286       0.35714286 </v>
   <v>       0.50000000       0.35714286       0.35714286 </v>
   <v>       0.42857143       0.42857143       0.35714286 </v>
   <v>       0.50000000       0.42857143       0.35714286 </v>
   <v>       0.50000000       0.50000000       0.35714286 </v>
   <v>       0.42857143       0.42857143       0.42857143 </v>
   <v>       0.50000000       0.42857143       0.42857143 </v>
   <v>       0.50000000       0.50000000       0.42857143 </v>
   <v>       0.50000000       0.50000000       0.50000000 </v>
  </varray>
  <varray name="weights" >
   <v>       0.00036443 </v>
   <v>       0.00218659 </v>
   <v>       0.00218659 </v>
   <v>       0.00218659 </v>
   <v>       0.00218659 </v>
   <v>       0.00218659 </v>
   <v>       0.00218659 </v>
   <v>       0.00109329 </v>
   <v>       0.00437318 </v>
   <v>       0.00874636 </v>
   <v>       0.00874636 </v>
   <v>       0.00874636 </v>
   <v>       0.00874636 </v>
   <v>       0.00874636 </v>
   <v>       0.00437318 </v>
   <v>       0.00437318 </v>
   <v>       0.00874636 </v>
   <v>       0.00874636 </v>
   <v>       0.00874636 </v>
   <v>       0.00874636 </v>
   <v>       0.00437318 </v>
   <v>       0.00437318 </v>
   <v>       0.00874636 </v>
   <v>       0.00874636 </v>
   <v>       0.00874636 </v>
   <v>       0.00437318 </v>
   <v>       0.00437318 </v>
   <v>       0.00874636 </v>
   <v>       0.00874636 </v>
   <v>       0.00437318 </v>
   <v>       0.00437318 </v>
   <v>       0.00874636 </v>
   <v>       0.00437318 </v>
   <v>       0.00437318 </v>
   <v>       0.00437318 </v>
   <v>       0.00109329 </v>
   <v>       0.00291545 </v>
   <v>       0.00874636 </v>
   <v>       0.00874636 </v>
   <v>       0.00874636 </v>
   <v>       0.00874636 </v>
   <v>       0.00874636 </v>
   <v>       0.00437318 </v>
   <v>       0.00874636 </v>
   <v>       0.01749271 </v>
   <v>       0.01749271 </v>
   <v>       0.01749271 </v>
   <v>       0.01749271 </v>
   <v>       0.00874636 </v>
   <v>       0.00874636 </v>
   <v>       0.01749271 </v>
   <v>       0.01749271 </v>
   <v>       0.01749271 </v>
   <v>       0.00874636 </v>
   <v>       0.00874636 </v>
   <v>       0.01749271 </v>
   <v>       0.01749271 </v>
   <v>       0.00874636 </v>
   <v>       0.00874636 </v>
   <v>       0.01749271 </v>
   <v>       0.00874636 </v>
   <v>       0.00874636 </v>
   <v>       0.00874636 </v>
   <v>       0.00218659 </v>
   <v>       0.00291545 </v>
   <v>       0.00874636 </v>
   <v>       0.00874636 </v>
   <v>       0.00874636 </v>
   <v>       0.00874636 </v>
   <v>       0.00437318 </v>
   <v>       0.00874636 </v>
   <v>       0.01749271 </v>
   <v>       0.01749271 </v>
   <v>       0.01749271 </v>
   <v>       0.00874636 </v>
   <v>       0.00874636 </v>
   <v>       0.01749271 </v>
   <v>       0.01749271 </v>
   <v>       0.00874636 </v>
   <v>       0.00874636 </v>
   <v>       0.01749271 </v>
   <v>       0.00874636 </v>
   <v>       0.00874636 </v>
   <v>       0.00874636 </v>
   <v>       0.00218659 </v>
   <v>       0.00291545 </v>
   <v>       0.00874636 </v>
   <v>       0.00874636 </v>
   <v>       0.00874636 </v>
   <v>       0.00437318 </v>
   <v>       0.00874636 </v>
   <v>       0.01749271 </v>
   <v>       0.01749271 </v>
   <v>       0.00874636 </v>
   <v>       0.00874636 </v>
   <v>       0.01749271 </v>
   <v>       0.00874636 </v>
   <v>       0.00874636 </v>
   <v>       0.00874636 </v>
   <v>       0.00218659 </v>
   <v>       0.00291545 </v>
   <v>       0.00874636 </v>
   <v>       0.00874636 </v>
   <v>       0.00437318 </v>
   <v>       0.00874636 </v>
   <v>       0.01749271 </v>
   <v>       0.00874636 </v>
   <v>       0.00874636 </v>
   <v>       0.00874636 </v>
   <v>       0.00218659 </v>
   <v>       0.00291545 </v>
   <v>       0.00874636 </v>
   <v>       0.00437318 </v>
   <v>       0.00874636 </v>
   <v>       0.00874636 </v>
   <v>       0.00218659 </v>
   <v>       0.00291545 </v>
   <v>       0.00437318 </v>
   <v>       0.00218659 </v>
   <v>       0.00036443 </v>
  </varray>
  <varray name="tetrahedronlist"  type="int" >
   <v type="int" >       12        2        2        9        9 </v>
   <v type="int" >       12        1        2        2        9 </v>
   <v type="int" >       12        2        9        9       37 </v>
   <v type="int" >       12        3        9       10       37 </v>
   <v type="int" >       12        2        3        9       37 </v>
   <v type="int" >       12        3       10       37       38 </v>
   <v type="int" >       12        4       10       11       38 </v>
   <v type="int" >       12        3        4       10       38 </v>
   <v type="int" >       12        4       11       38       39 </v>
   <v type="int" >       12        5       11       12       39 </v>
   <v type="int" >       12        4        5       11       39 </v>
   <v type="int" >       12        5       12       39       40 </v>
   <v type="int" >       12        6       12       13       40 </v>
   <v type="int" >       12        5        6       12       40 </v>
   <v type="int" >       12        6       13       40       41 </v>
   <v type="int" >       12        7       13       14       41 </v>
   <v type="int" >       12        6        7       13       41 </v>
   <v type="int" >       12        7       14       41       42 </v>
   <v type="int" >       12        8       14       15       42 </v>
   <v type="int" >       12        7        8       14       42 </v>
   <v type="int" >       12        8       15       42       43 </v>
   <v type="int" >       12        7       14       15       43 </v>
   <v type="int" >       12        7        8       15       43 </v>
   <v type="int" >       12        7       14       42       43 </v>
   <v type="int" >       12        6       13       14       42 </v>
   <v type="int" >       12        6        7       14       42 </v>
   <v type="int" >       12        6       13       41       42 </v>
   <v type="int" >       12        5       12       13       41 </v>
   <v type="int" >       12        5        6       13       41 </v>
   <v type="int" >       12        5       12       40       41 </v>
   <v type="int" >       12        4       11       12       40 </v>
   <v type="int" >       12        4        5       12       40 </v>
   <v type="int" >       12        4       11       39       40 </v>
   <v type="int" >       12        3       10       11       39 </v>
   <v type="int" >       12        3        4       11       39 </v>
   <v type="int" >       12        3       10       38       39 </v>
   <v type="int" >       12        2        9       10       38 </v>
   <v type="int" >       12        2        3       10       38 </v>
   <v type="int" >       12        2        9       37       38 </v>
   <v type="int" >       12        1        2        9       37 </v>
   <v type="int" >       12        3        9       10       10 </v>
   <v type="int" >       12        2        3        9       10 </v>
   <v type="int" >       12        2        9        9       10 </v>
   <v type="int" >       24        9       10       10       38 </v>
   <v type="int" >       24        9       10       37       38 </v>
   <v type="int" >       12        9        9       10       37 </v>
   <v type="int" >       12       10       10       16       38 </v>
   <v type="int" >       12       10       16       38       44 </v>
   <v type="int" >       12       10       38       38       44 </v>
   <v type="int" >       12       10       37       38       38 </v>
   <v type="int" >       12       11       16       17       44 </v>
   <v type="int" >       12       10       11       16       44 </v>
   <v type="int" >       12       10       11       38       44 </v>
   <v type="int" >       12       11       17       44       45 </v>
   <v type="int" >       12       11       39       44       45 </v>
   <v type="int" >       12       11       38       39       44 </v>
   <v type="int" >       12       12       17       18       45 </v>
   <v type="int" >       12       11       12       17       45 </v>
   <v type="int" >       12       11       12       39       45 </v>
   <v type="int" >       12       12       18       45       46 </v>
   <v type="int" >       12       12       40       45       46 </v>
   <v type="int" >       12       12       39       40       45 </v>
   <v type="int" >       12       13       18       19       46 </v>
   <v type="int" >       12       12       13       18       46 </v>
   <v type="int" >       12       12       13       40       46 </v>
   <v type="int" >       12       13       19       46       47 </v>
   <v type="int" >       12       13       41       46       47 </v>
   <v type="int" >       12       13       40       41       46 </v>
   <v type="int" >       12       14       19       20       47 </v>
   <v type="int" >       12       13       14       19       47 </v>
   <v type="int" >       12       13       14       41       47 </v>
   <v type="int" >       12       14       20       47       48 </v>
   <v type="int" >       12       14       42       47       48 </v>
   <v type="int" >       12       14       41       42       47 </v>
   <v type="int" >       12       15       20       21       48 </v>
   <v type="int" >       12       14       15       20       48 </v>
   <v type="int" >       12       14       15       42       48 </v>
   <v type="int" >       12       15       21       48       49 </v>
   <v type="int" >       12       15       43       48       49 </v>
   <v type="int" >       12       15       42       43       48 </v>
   <v type="int" >       12       14       20       21       49 </v>
   <v type="int" >       12       14       15       21       49 </v>
   <v type="int" >       12       14       15       43       49 </v>
   <v type="int" >       12       14       20       48       49 </v>
   <v type="int" >       12       14       42       48       49 </v>
   <v type="int" >       12       14       42       43       49 </v>
   <v type="int" >       12       13       19       20       48 </v>
   <v type="int" >       12       13       14       20       48 </v>
   <v type="int" >       12       13       14       42       48 </v>
   <v type="int" >       12       13       19       47       48 </v>
   <v type="int" >       12       13       41       47       48 </v>
   <v type="int" >       12       13       41       42       48 </v>
   <v type="int" >       12       12       18       19       47 </v>
   <v type="int" >       12       12       13       19       47 </v>
   <v type="int" >       12       12       13       41       47 </v>
   <v type="int" >       12       12       18       46       47 </v>
   <v type="int" >       12       12       40       46       47 </v>
   <v type="int" >       12       12       40       41       47 </v>
   <v type="int" >       12       11       17       18       46 </v>
   <v type="int" >       12       11       12       18       46 </v>
   <v type="int" >       12       11       12       40       46 </v>
   <v type="int" >       12       11       17       45       46 </v>
   <v type="int" >       12       11       39       45       46 </v>
   <v type="int" >       12       11       39       40       46 </v>
   <v type="int" >       12       10       16       17       45 </v>
   <v type="int" >       12       10       11       17       45 </v>
   <v type="int" >       12       10       11       39       45 </v>
   <v type="int" >       12       10       16       44       45 </v>
   <v type="int" >       12       10       38       44       45 </v>
   <v type="int" >       12       10       38       39       45 </v>
   <v type="int" >       12        9       10       16       44 </v>
   <v type="int" >       12        9       10       38       44 </v>
   <v type="int" >       12        9       37       38       44 </v>
   <v type="int" >       12        4       10       11       11 </v>
   <v type="int" >       12        3        4       10       11 </v>
   <v type="int" >       12        3       10       10       11 </v>
   <v type="int" >       12       10       11       11       39 </v>
   <v type="int" >       12       10       11       38       39 </v>
   <v type="int" >       12       10       10       11       38 </v>
   <v type="int" >       12       11       16       17       39 </v>
   <v type="int" >       12       10       11       16       39 </v>
   <v type="int" >       12       10       16       38       39 </v>
   <v type="int" >       12       16       17       39       45 </v>
   <v type="int" >       12       16       39       44       45 </v>
   <v type="int" >       12       16       38       39       44 </v>
   <v type="int" >       12       17       17       22       45 </v>
   <v type="int" >       12       16       17       17       45 </v>
   <v type="int" >       12       16       17       44       45 </v>
   <v type="int" >       12       17       22       45       50 </v>
   <v type="int" >       12       17       45       45       50 </v>
   <v type="int" >       12       17       44       45       45 </v>
   <v type="int" >       12       18       22       23       50 </v>
   <v type="int" >       12       17       18       22       50 </v>
   <v type="int" >       12       17       18       45       50 </v>
   <v type="int" >       12       18       23       50       51 </v>
   <v type="int" >       12       18       46       50       51 </v>
   <v type="int" >       12       18       45       46       50 </v>
   <v type="int" >       12       19       23       24       51 </v>
   <v type="int" >       12       18       19       23       51 </v>
   <v type="int" >       12       18       19       46       51 </v>
   <v type="int" >       12       19       24       51       52 </v>
   <v type="int" >       12       19       47       51       52 </v>
   <v type="int" >       12       19       46       47       51 </v>
   <v type="int" >       12       20       24       25       52 </v>
   <v type="int" >       12       19       20       24       52 </v>
   <v type="int" >       12       19       20       47       52 </v>
   <v type="int" >       12       20       25       52       53 </v>
   <v type="int" >       12       20       48       52       53 </v>
   <v type="int" >       12       20       47       48       52 </v>
   <v type="int" >       12       21       25       26       53 </v>
   <v type="int" >       12       20       21       25       53 </v>
   <v type="int" >       12       20       21       48       53 </v>
   <v type="int" >       12       21       26       53       54 </v>
   <v type="int" >       12       21       49       53       54 </v>
   <v type="int" >       12       21       48       49       53 </v>
   <v type="int" >       12       20       25       26       54 </v>
   <v type="int" >       12       20       21       26       54 </v>
   <v type="int" >       12       20       21       49       54 </v>
   <v type="int" >       12       20       25       53       54 </v>
   <v type="int" >       12       20       48       53       54 </v>
   <v type="int" >       12       20       48       49       54 </v>
   <v type="int" >       12       19       24       25       53 </v>
   <v type="int" >       12       19       20       25       53 </v>
   <v type="int" >       12       19       20       48       53 </v>
   <v type="int" >       12       19       24       52       53 </v>
   <v type="int" >       12       19       47       52       53 </v>
   <v type="int" >       12       19       47       48       53 </v>
   <v type="int" >       12       18       23       24       52 </v>
   <v type="int" >       12       18       19       24       52 </v>
   <v type="int" >       12       18       19       47       52 </v>
   <v type="int" >       12       18       23       51       52 </v>
   <v type="int" >       12       18       46       51       52 </v>
   <v type="int" >       12       18       46       47       52 </v>
   <v type="int" >       12       17       22       23       51 </v>
   <v type="int" >       12       17       18       23       51 </v>
   <v type="int" >       12       17       18       46       51 </v>
   <v type="int" >       12       17       22       50       51 </v>
   <v type="int" >       12       17       45       50       51 </v>
   <v type="int" >       12       17       45       46       51 </v>
   <v type="int" >       12       16       17       22       50 </v>
   <v type="int" >       12       16       17       45       50 </v>
   <v type="int" >       12       16       44       45       50 </v>
   <v type="int" >       12        5       11       12       12 </v>
   <v type="int" >       12        4        5       11       12 </v>
   <v type="int" >       12        4       11       11       12 </v>
   <v type="int" >       12       11       12       12       40 </v>
   <v type="int" >       12       11       12       39       40 </v>
   <v type="int" >       12       11       11       12       39 </v>
   <v type="int" >       12       12       17       18       40 </v>
   <v type="int" >       12       11       12       17       40 </v>
   <v type="int" >       12       11       17       39       40 </v>
   <v type="int" >       12       17       18       40       46 </v>
   <v type="int" >       12       17       40       45       46 </v>
   <v type="int" >       12       17       39       40       45 </v>
   <v type="int" >       12       18       22       23       46 </v>
   <v type="int" >       12       17       18       22       46 </v>
   <v type="int" >       12       17       22       45       46 </v>
   <v type="int" >       12       22       23       46       51 </v>
   <v type="int" >       12       22       46       50       51 </v>
   <v type="int" >       12       22       45       46       50 </v>
   <v type="int" >       12       23       23       27       51 </v>
   <v type="int" >       12       22       23       23       51 </v>
   <v type="int" >       12       22       23       50       51 </v>
   <v type="int" >       12       23       27       51       55 </v>
   <v type="int" >       12       23       51       51       55 </v>
   <v type="int" >       12       23       50       51       51 </v>
   <v type="int" >       12       24       27       28       55 </v>
   <v type="int" >       12       23       24       27       55 </v>
   <v type="int" >       12       23       24       51       55 </v>
   <v type="int" >       12       24       28       55       56 </v>
   <v type="int" >       12       24       52       55       56 </v>
   <v type="int" >       12       24       51       52       55 </v>
   <v type="int" >       12       25       28       29       56 </v>
   <v type="int" >       12       24       25       28       56 </v>
   <v type="int" >       12       24       25       52       56 </v>
   <v type="int" >       12       25       29       56       57 </v>
   <v type="int" >       12       25       53       56       57 </v>
   <v type="int" >       12       25       52       53       56 </v>
   <v type="int" >       12       26       29       30       57 </v>
   <v type="int" >       12       25       26       29       57 </v>
   <v type="int" >       12       25       26       53       57 </v>
   <v type="int" >       12       26       30       57       58 </v>
   <v type="int" >       12       26       54       57       58 </v>
   <v type="int" >       12       26       53       54       57 </v>
   <v type="int" >       12       25       29       30       58 </v>
   <v type="int" >       12       25       26       30       58 </v>
   <v type="int" >       12       25       26       54       58 </v>
   <v type="int" >       12       25       29       57       58 </v>
   <v type="int" >       12       25       53       57       58 </v>
   <v type="int" >       12       25       53       54       58 </v>
   <v type="int" >       12       24       28       29       57 </v>
   <v type="int" >       12       24       25       29       57 </v>
   <v type="int" >       12       24       25       53       57 </v>
   <v type="int" >       12       24       28       56       57 </v>
   <v type="int" >       12       24       52       56       57 </v>
   <v type="int" >       12       24       52       53       57 </v>
   <v type="int" >       12       23       27       28       56 </v>
   <v type="int" >       12       23       24       28       56 </v>
   <v type="int" >       12       23       24       52       56 </v>
   <v type="int" >       12       23       27       55       56 </v>
   <v type="int" >       12       23       51       55       56 </v>
   <v type="int" >       12       23       51       52       56 </v>
   <v type="int" >       12       22       23       27       55 </v>
   <v type="int" >       12       22       23       51       55 </v>
   <v type="int" >       12       22       50       51       55 </v>
   <v type="int" >       12        6       12       13       13 </v>
   <v type="int" >       12        5        6       12       13 </v>
   <v type="int" >       12        5       12       12       13 </v>
   <v type="int" >       12       12       13       13       41 </v>
   <v type="int" >       12       12       13       40       41 </v>
   <v type="int" >       12       12       12       13       40 </v>
   <v type="int" >       12       13       18       19       41 </v>
   <v type="int" >       12       12       13       18       41 </v>
   <v type="int" >       12       12       18       40       41 </v>
   <v type="int" >       12       18       19       41       47 </v>
   <v type="int" >       12       18       41       46       47 </v>
   <v type="int" >       12       18       40       41       46 </v>
   <v type="int" >       12       19       23       24       47 </v>
   <v type="int" >       12       18       19       23       47 </v>
   <v type="int" >       12       18       23       46       47 </v>
   <v type="int" >       12       23       24       47       52 </v>
   <v type="int" >       12       23       47       51       52 </v>
   <v type="int" >       12       23       46       47       51 </v>
   <v type="int" >       12       24       27       28       52 </v>
   <v type="int" >       12       23       24       27       52 </v>
   <v type="int" >       12       23       27       51       52 </v>
   <v type="int" >       12       27       28       52       56 </v>
   <v type="int" >       12       27       52       55       56 </v>
   <v type="int" >       12       27       51       52       55 </v>
   <v type="int" >       12       28       28       31       56 </v>
   <v type="int" >       12       27       28       28       56 </v>
   <v type="int" >       12       27       28       55       56 </v>
   <v type="int" >       12       28       31       56       59 </v>
   <v type="int" >       12       28       56       56       59 </v>
   <v type="int" >       12       28       55       56       56 </v>
   <v type="int" >       12       29       31       32       59 </v>
   <v type="int" >       12       28       29       31       59 </v>
   <v type="int" >       12       28       29       56       59 </v>
   <v type="int" >       12       29       32       59       60 </v>
   <v type="int" >       12       29       57       59       60 </v>
   <v type="int" >       12       29       56       57       59 </v>
   <v type="int" >       12       30       32       33       60 </v>
   <v type="int" >       12       29       30       32       60 </v>
   <v type="int" >       12       29       30       57       60 </v>
   <v type="int" >       12       30       33       60       61 </v>
   <v type="int" >       12       30       58       60       61 </v>
   <v type="int" >       12       30       57       58       60 </v>
   <v type="int" >       12       29       32       33       61 </v>
   <v type="int" >       12       29       30       33       61 </v>
   <v type="int" >       12       29       30       58       61 </v>
   <v type="int" >       12       29       32       60       61 </v>
   <v type="int" >       12       29       57       60       61 </v>
   <v type="int" >       12       29       57       58       61 </v>
   <v type="int" >       12       28       31       32       60 </v>
   <v type="int" >       12       28       29       32       60 </v>
   <v type="int" >       12       28       29       57       60 </v>
   <v type="int" >       12       28       31       59       60 </v>
   <v type="int" >       12       28       56       59       60 </v>
   <v type="int" >       12       28       56       57       60 </v>
   <v type="int" >       12       27       28       31       59 </v>
   <v type="int" >       12       27       28       56       59 </v>
   <v type="int" >       12       27       55       56       59 </v>
   <v type="int" >       12        7       13       14       14 </v>
   <v type="int" >       12        6        7       13       14 </v>
   <v type="int" >       12        6       13       13       14 </v>
   <v type="int" >       12       13       14       14       42 </v>
   <v type="int" >       12       13       14       41       42 </v>
   <v type="int" >       12       13       13       14       41 </v>
   <v type="int" >       12       14       19       20       42 </v>
   <v type="int" >       12       13       14       19       42 </v>
   <v type="int" >       12       13       19       41       42 </v>
   <v type="int" >       12       19       20       42       48 </v>
   <v type="int" >       12       19       42       47       48 </v>
   <v type="int" >       12       19       41       42       47 </v>
   <v type="int" >       12       20       24       25       48 </v>
   <v type="int" >       12       19       20       24       48 </v>
   <v type="int" >       12       19       24       47       48 </v>
   <v type="int" >       12       24       25       48       53 </v>
   <v type="int" >       12       24       48       52       53 </v>
   <v type="int" >       12       24       47       48       52 </v>
   <v type="int" >       12       25       28       29       53 </v>
   <v type="int" >       12       24       25       28       53 </v>
   <v type="int" >       12       24       28       52       53 </v>
   <v type="int" >       12       28       29       53       57 </v>
   <v type="int" >       12       28       53       56       57 </v>
   <v type="int" >       12       28       52       53       56 </v>
   <v type="int" >       12       29       31       32       57 </v>
   <v type="int" >       12       28       29       31       57 </v>
   <v type="int" >       12       28       31       56       57 </v>
   <v type="int" >       12       31       32       57       60 </v>
   <v type="int" >       12       31       57       59       60 </v>
   <v type="int" >       12       31       56       57       59 </v>
   <v type="int" >       12       32       32       34       60 </v>
   <v type="int" >       12       31       32       32       60 </v>
   <v type="int" >       12       31       32       59       60 </v>
   <v type="int" >       12       32       34       60       62 </v>
   <v type="int" >       12       32       60       60       62 </v>
   <v type="int" >       12       32       59       60       60 </v>
   <v type="int" >       12       33       34       35       62 </v>
   <v type="int" >       12       32       33       34       62 </v>
   <v type="int" >       12       32       33       60       62 </v>
   <v type="int" >       12       33       35       62       63 </v>
   <v type="int" >       12       33       61       62       63 </v>
   <v type="int" >       12       33       60       61       62 </v>
   <v type="int" >       12       32       34       35       63 </v>
   <v type="int" >       12       32       33       35       63 </v>
   <v type="int" >       12       32       33       61       63 </v>
   <v type="int" >       12       32       34       62       63 </v>
   <v type="int" >       12       32       60       62       63 </v>
   <v type="int" >       12       32       60       61       63 </v>
   <v type="int" >       12       31       32       34       62 </v>
   <v type="int" >       12       31       32       60       62 </v>
   <v type="int" >       12       31       59       60       62 </v>
   <v type="int" >       12        8       14       15       15 </v>
   <v type="int" >       12        7        8       14       15 </v>
   <v type="int" >       12        7       14       14       15 </v>
   <v type="int" >       12       14       15       15       43 </v>
   <v type="int" >       12       14       15       42       43 </v>
   <v type="int" >       12       14       14       15       42 </v>
   <v type="int" >       12       15       20       21       43 </v>
   <v type="int" >       12       14       15       20       43 </v>
   <v type="int" >       12       14       20       42       43 </v>
   <v type="int" >       12       20       21       43       49 </v>
   <v type="int" >       12       20       43       48       49 </v>
   <v type="int" >       12       20       42       43       48 </v>
   <v type="int" >       12       21       25       26       49 </v>
   <v type="int" >       12       20       21       25       49 </v>
   <v type="int" >       12       20       25       48       49 </v>
   <v type="int" >       12       25       26       49       54 </v>
   <v type="int" >       12       25       49       53       54 </v>
   <v type="int" >       12       25       48       49       53 </v>
   <v type="int" >       12       26       29       30       54 </v>
   <v type="int" >       12       25       26       29       54 </v>
   <v type="int" >       12       25       29       53       54 </v>
   <v type="int" >       12       29       30       54       58 </v>
   <v type="int" >       12       29       54       57       58 </v>
   <v type="int" >       12       29       53       54       57 </v>
   <v type="int" >       12       30       32       33       58 </v>
   <v type="int" >       12       29       30       32       58 </v>
   <v type="int" >       12       29       32       57       58 </v>
   <v type="int" >       12       32       33       58       61 </v>
   <v type="int" >       12       32       58       60       61 </v>
   <v type="int" >       12       32       57       58       60 </v>
   <v type="int" >       12       33       34       35       61 </v>
   <v type="int" >       12       32       33       34       61 </v>
   <v type="int" >       12       32       34       60       61 </v>
   <v type="int" >       12       34       35       61       63 </v>
   <v type="int" >       12       34       61       62       63 </v>
   <v type="int" >       12       34       60       61       62 </v>
   <v type="int" >       12       35       35       36       63 </v>
   <v type="int" >       12       34       35       35       63 </v>
   <v type="int" >       12       34       35       62       63 </v>
   <v type="int" >       12       35       36       63       64 </v>
   <v type="int" >       12       35       63       63       64 </v>
   <v type="int" >       12       35       62       63       63 </v>
   <v type="int" >       12       34       35       36       64 </v>
   <v type="int" >       12       34       35       63       64 </v>
   <v type="int" >       12       34       62       63       64 </v>
   <v type="int" >       12       14       20       21       42 </v>
   <v type="int" >       12       14       15       21       42 </v>
   <v type="int" >       12       15       21       42       43 </v>
   <v type="int" >       12       20       21       42       48 </v>
   <v type="int" >       12       21       42       48       49 </v>
   <v type="int" >       12       21       42       43       49 </v>
   <v type="int" >       12       20       25       26       48 </v>
   <v type="int" >       12       20       21       26       48 </v>
   <v type="int" >       12       21       26       48       49 </v>
   <v type="int" >       12       25       26       48       53 </v>
   <v type="int" >       12       26       48       53       54 </v>
   <v type="int" >       12       26       48       49       54 </v>
   <v type="int" >       12       25       29       30       53 </v>
   <v type="int" >       12       25       26       30       53 </v>
   <v type="int" >       12       26       30       53       54 </v>
   <v type="int" >       12       29       30       53       57 </v>
   <v type="int" >       12       30       53       57       58 </v>
   <v type="int" >       12       30       53       54       58 </v>
   <v type="int" >       12       29       32       33       57 </v>
   <v type="int" >       12       29       30       33       57 </v>
   <v type="int" >       12       30       33       57       58 </v>
   <v type="int" >       12       32       33       57       60 </v>
   <v type="int" >       12       33       57       60       61 </v>
   <v type="int" >       12       33       57       58       61 </v>
   <v type="int" >       12       32       34       35       60 </v>
   <v type="int" >       12       32       33       35       60 </v>
   <v type="int" >       12       33       35       60       61 </v>
   <v type="int" >       12       34       35       60       62 </v>
   <v type="int" >       12       35       60       62       63 </v>
   <v type="int" >       12       35       60       61       63 </v>
   <v type="int" >       12       34       35       36       62 </v>
   <v type="int" >       12       35       36       62       63 </v>
   <v type="int" >       12       36       62       63       64 </v>
   <v type="int" >       12       13       19       20       41 </v>
   <v type="int" >       12       13       14       20       41 </v>
   <v type="int" >       12       14       20       41       42 </v>
   <v type="int" >       12       19       20       41       47 </v>
   <v type="int" >       12       20       41       47       48 </v>
   <v type="int" >       12       20       41       42       48 </v>
   <v type="int" >       12       19       24       25       47 </v>
   <v type="int" >       12       19       20       25       47 </v>
   <v type="int" >       12       20       25       47       48 </v>
   <v type="int" >       12       24       25       47       52 </v>
   <v type="int" >       12       25       47       52       53 </v>
   <v type="int" >       12       25       47       48       53 </v>
   <v type="int" >       12       24       28       29       52 </v>
   <v type="int" >       12       24       25       29       52 </v>
   <v type="int" >       12       25       29       52       53 </v>
   <v type="int" >       12       28       29       52       56 </v>
   <v type="int" >       12       29       52       56       57 </v>
   <v type="int" >       12       29       52       53       57 </v>
   <v type="int" >       12       28       31       32       56 </v>
   <v type="int" >       12       28       29       32       56 </v>
   <v type="int" >       12       29       32       56       57 </v>
   <v type="int" >       12       31       32       56       59 </v>
   <v type="int" >       12       32       56       59       60 </v>
   <v type="int" >       12       32       56       57       60 </v>
   <v type="int" >       12       31       32       34       59 </v>
   <v type="int" >       12       32       34       59       60 </v>
   <v type="int" >       12       34       59       60       62 </v>
   <v type="int" >       12       12       18       19       40 </v>
   <v type="int" >       12       12       13       19       40 </v>
   <v type="int" >       12       13       19       40       41 </v>
   <v type="int" >       12       18       19       40       46 </v>
   <v type="int" >       12       19       40       46       47 </v>
   <v type="int" >       12       19       40       41       47 </v>
   <v type="int" >       12       18       23       24       46 </v>
   <v type="int" >       12       18       19       24       46 </v>
   <v type="int" >       12       19       24       46       47 </v>
   <v type="int" >       12       23       24       46       51 </v>
   <v type="int" >       12       24       46       51       52 </v>
   <v type="int" >       12       24       46       47       52 </v>
   <v type="int" >       12       23       27       28       51 </v>
   <v type="int" >       12       23       24       28       51 </v>
   <v type="int" >       12       24       28       51       52 </v>
   <v type="int" >       12       27       28       51       55 </v>
   <v type="int" >       12       28       51       55       56 </v>
   <v type="int" >       12       28       51       52       56 </v>
   <v type="int" >       12       27       28       31       55 </v>
   <v type="int" >       12       28       31       55       56 </v>
   <v type="int" >       12       31       55       56       59 </v>
   <v type="int" >       12       11       17       18       39 </v>
   <v type="int" >       12       11       12       18       39 </v>
   <v type="int" >       12       12       18       39       40 </v>
   <v type="int" >       12       17       18       39       45 </v>
   <v type="int" >       12       18       39       45       46 </v>
   <v type="int" >       12       18       39       40       46 </v>
   <v type="int" >       12       17       22       23       45 </v>
   <v type="int" >       12       17       18       23       45 </v>
   <v type="int" >       12       18       23       45       46 </v>
   <v type="int" >       12       22       23       45       50 </v>
   <v type="int" >       12       23       45       50       51 </v>
   <v type="int" >       12       23       45       46       51 </v>
   <v type="int" >       12       22       23       27       50 </v>
   <v type="int" >       12       23       27       50       51 </v>
   <v type="int" >       12       27       50       51       55 </v>
   <v type="int" >       12       10       16       17       38 </v>
   <v type="int" >       12       10       11       17       38 </v>
   <v type="int" >       12       11       17       38       39 </v>
   <v type="int" >       12       16       17       38       44 </v>
   <v type="int" >       12       17       38       44       45 </v>
   <v type="int" >       12       17       38       39       45 </v>
   <v type="int" >       12       16       17       22       44 </v>
   <v type="int" >       12       17       22       44       45 </v>
   <v type="int" >       12       22       44       45       50 </v>
   <v type="int" >       12        9       10       16       37 </v>
   <v type="int" >       12       10       16       37       38 </v>
   <v type="int" >       12       16       37       38       44 </v>
   <v type="int" >       12       38       38       44       44 </v>
   <v type="int" >       12       37       38       38       44 </v>
   <v type="int" >       12       38       44       44       65 </v>
   <v type="int" >       12       39       44       45       65 </v>
   <v type="int" >       12       38       39       44       65 </v>
   <v type="int" >       12       39       45       65       66 </v>
   <v type="int" >       12       40       45       46       66 </v>
   <v type="int" >       12       39       40       45       66 </v>
   <v type="int" >       12       40       46       66       67 </v>
   <v type="int" >       12       41       46       47       67 </v>
   <v type="int" >       12       40       41       46       67 </v>
   <v type="int" >       12       41       47       67       68 </v>
   <v type="int" >       12       42       47       48       68 </v>
   <v type="int" >       12       41       42       47       68 </v>
   <v type="int" >       12       42       48       68       69 </v>
   <v type="int" >       12       43       48       49       69 </v>
   <v type="int" >       12       42       43       48       69 </v>
   <v type="int" >       12       43       49       69       70 </v>
   <v type="int" >       12       42       48       49       70 </v>
   <v type="int" >       12       42       43       49       70 </v>
   <v type="int" >       12       42       48       69       70 </v>
   <v type="int" >       12       41       47       48       69 </v>
   <v type="int" >       12       41       42       48       69 </v>
   <v type="int" >       12       41       47       68       69 </v>
   <v type="int" >       12       40       46       47       68 </v>
   <v type="int" >       12       40       41       47       68 </v>
   <v type="int" >       12       40       46       67       68 </v>
   <v type="int" >       12       39       45       46       67 </v>
   <v type="int" >       12       39       40       46       67 </v>
   <v type="int" >       12       39       45       66       67 </v>
   <v type="int" >       12       38       44       45       66 </v>
   <v type="int" >       12       38       39       45       66 </v>
   <v type="int" >       12       38       44       65       66 </v>
   <v type="int" >       12       37       38       44       65 </v>
   <v type="int" >       12       39       44       45       45 </v>
   <v type="int" >       12       38       39       44       45 </v>
   <v type="int" >       12       38       44       44       45 </v>
   <v type="int" >       24       44       45       45       66 </v>
   <v type="int" >       24       44       45       65       66 </v>
   <v type="int" >       12       44       44       45       65 </v>
   <v type="int" >       12       45       45       50       66 </v>
   <v type="int" >       12       45       50       66       71 </v>
   <v type="int" >       12       45       66       66       71 </v>
   <v type="int" >       12       45       65       66       66 </v>
   <v type="int" >       12       46       50       51       71 </v>
   <v type="int" >       12       45       46       50       71 </v>
   <v type="int" >       12       45       46       66       71 </v>
   <v type="int" >       12       46       51       71       72 </v>
   <v type="int" >       12       46       67       71       72 </v>
   <v type="int" >       12       46       66       67       71 </v>
   <v type="int" >       12       47       51       52       72 </v>
   <v type="int" >       12       46       47       51       72 </v>
   <v type="int" >       12       46       47       67       72 </v>
   <v type="int" >       12       47       52       72       73 </v>
   <v type="int" >       12       47       68       72       73 </v>
   <v type="int" >       12       47       67       68       72 </v>
   <v type="int" >       12       48       52       53       73 </v>
   <v type="int" >       12       47       48       52       73 </v>
   <v type="int" >       12       47       48       68       73 </v>
   <v type="int" >       12       48       53       73       74 </v>
   <v type="int" >       12       48       69       73       74 </v>
   <v type="int" >       12       48       68       69       73 </v>
   <v type="int" >       12       49       53       54       74 </v>
   <v type="int" >       12       48       49       53       74 </v>
   <v type="int" >       12       48       49       69       74 </v>
   <v type="int" >       12       49       54       74       75 </v>
   <v type="int" >       12       49       70       74       75 </v>
   <v type="int" >       12       49       69       70       74 </v>
   <v type="int" >       12       48       53       54       75 </v>
   <v type="int" >       12       48       49       54       75 </v>
   <v type="int" >       12       48       49       70       75 </v>
   <v type="int" >       12       48       53       74       75 </v>
   <v type="int" >       12       48       69       74       75 </v>
   <v type="int" >       12       48       69       70       75 </v>
   <v type="int" >       12       47       52       53       74 </v>
   <v type="int" >       12       47       48       53       74 </v>
   <v type="int" >       12       47       48       69       74 </v>
   <v type="int" >       12       47       52       73       74 </v>
   <v type="int" >       12       47       68       73       74 </v>
   <v type="int" >       12       47       68       69       74 </v>
   <v type="int" >       12       46       51       52       73 </v>
   <v type="int" >       12       46       47       52       73 </v>
   <v type="int" >       12       46       47       68       73 </v>
   <v type="int" >       12       46       51       72       73 </v>
   <v type="int" >       12       46       67       72       73 </v>
   <v type="int" >       12       46       67       68       73 </v>
   <v type="int" >       12       45       50       51       72 </v>
   <v type="int" >       12       45       46       51       72 </v>
   <v type="int" >       12       45       46       67       72 </v>
   <v type="int" >       12       45       50       71       72 </v>
   <v type="int" >       12       45       66       71       72 </v>
   <v type="int" >       12       45       66       67       72 </v>
   <v type="int" >       12       44       45       50       71 </v>
   <v type="int" >       12       44       45       66       71 </v>
   <v type="int" >       12       44       65       66       71 </v>
   <v type="int" >       12       40       45       46       46 </v>
   <v type="int" >       12       39       40       45       46 </v>
   <v type="int" >       12       39       45       45       46 </v>
   <v type="int" >       12       45       46       46       67 </v>
   <v type="int" >       12       45       46       66       67 </v>
   <v type="int" >       12       45       45       46       66 </v>
   <v type="int" >       12       46       50       51       67 </v>
   <v type="int" >       12       45       46       50       67 </v>
   <v type="int" >       12       45       50       66       67 </v>
   <v type="int" >       12       50       51       67       72 </v>
   <v type="int" >       12       50       67       71       72 </v>
   <v type="int" >       12       50       66       67       71 </v>
   <v type="int" >       12       51       51       55       72 </v>
   <v type="int" >       12       50       51       51       72 </v>
   <v type="int" >       12       50       51       71       72 </v>
   <v type="int" >       12       51       55       72       76 </v>
   <v type="int" >       12       51       72       72       76 </v>
   <v type="int" >       12       51       71       72       72 </v>
   <v type="int" >       12       52       55       56       76 </v>
   <v type="int" >       12       51       52       55       76 </v>
   <v type="int" >       12       51       52       72       76 </v>
   <v type="int" >       12       52       56       76       77 </v>
   <v type="int" >       12       52       73       76       77 </v>
   <v type="int" >       12       52       72       73       76 </v>
   <v type="int" >       12       53       56       57       77 </v>
   <v type="int" >       12       52       53       56       77 </v>
   <v type="int" >       12       52       53       73       77 </v>
   <v type="int" >       12       53       57       77       78 </v>
   <v type="int" >       12       53       74       77       78 </v>
   <v type="int" >       12       53       73       74       77 </v>
   <v type="int" >       12       54       57       58       78 </v>
   <v type="int" >       12       53       54       57       78 </v>
   <v type="int" >       12       53       54       74       78 </v>
   <v type="int" >       12       54       58       78       79 </v>
   <v type="int" >       12       54       75       78       79 </v>
   <v type="int" >       12       54       74       75       78 </v>
   <v type="int" >       12       53       57       58       79 </v>
   <v type="int" >       12       53       54       58       79 </v>
   <v type="int" >       12       53       54       75       79 </v>
   <v type="int" >       12       53       57       78       79 </v>
   <v type="int" >       12       53       74       78       79 </v>
   <v type="int" >       12       53       74       75       79 </v>
   <v type="int" >       12       52       56       57       78 </v>
   <v type="int" >       12       52       53       57       78 </v>
   <v type="int" >       12       52       53       74       78 </v>
   <v type="int" >       12       52       56       77       78 </v>
   <v type="int" >       12       52       73       77       78 </v>
   <v type="int" >       12       52       73       74       78 </v>
   <v type="int" >       12       51       55       56       77 </v>
   <v type="int" >       12       51       52       56       77 </v>
   <v type="int" >       12       51       52       73       77 </v>
   <v type="int" >       12       51       55       76       77 </v>
   <v type="int" >       12       51       72       76       77 </v>
   <v type="int" >       12       51       72       73       77 </v>
   <v type="int" >       12       50       51       55       76 </v>
   <v type="int" >       12       50       51       72       76 </v>
   <v type="int" >       12       50       71       72       76 </v>
   <v type="int" >       12       41       46       47       47 </v>
   <v type="int" >       12       40       41       46       47 </v>
   <v type="int" >       12       40       46       46       47 </v>
   <v type="int" >       12       46       47       47       68 </v>
   <v type="int" >       12       46       47       67       68 </v>
   <v type="int" >       12       46       46       47       67 </v>
   <v type="int" >       12       47       51       52       68 </v>
   <v type="int" >       12       46       47       51       68 </v>
   <v type="int" >       12       46       51       67       68 </v>
   <v type="int" >       12       51       52       68       73 </v>
   <v type="int" >       12       51       68       72       73 </v>
   <v type="int" >       12       51       67       68       72 </v>
   <v type="int" >       12       52       55       56       73 </v>
   <v type="int" >       12       51       52       55       73 </v>
   <v type="int" >       12       51       55       72       73 </v>
   <v type="int" >       12       55       56       73       77 </v>
   <v type="int" >       12       55       73       76       77 </v>
   <v type="int" >       12       55       72       73       76 </v>
   <v type="int" >       12       56       56       59       77 </v>
   <v type="int" >       12       55       56       56       77 </v>
   <v type="int" >       12       55       56       76       77 </v>
   <v type="int" >       12       56       59       77       80 </v>
   <v type="int" >       12       56       77       77       80 </v>
   <v type="int" >       12       56       76       77       77 </v>
   <v type="int" >       12       57       59       60       80 </v>
   <v type="int" >       12       56       57       59       80 </v>
   <v type="int" >       12       56       57       77       80 </v>
   <v type="int" >       12       57       60       80       81 </v>
   <v type="int" >       12       57       78       80       81 </v>
   <v type="int" >       12       57       77       78       80 </v>
   <v type="int" >       12       58       60       61       81 </v>
   <v type="int" >       12       57       58       60       81 </v>
   <v type="int" >       12       57       58       78       81 </v>
   <v type="int" >       12       58       61       81       82 </v>
   <v type="int" >       12       58       79       81       82 </v>
   <v type="int" >       12       58       78       79       81 </v>
   <v type="int" >       12       57       60       61       82 </v>
   <v type="int" >       12       57       58       61       82 </v>
   <v type="int" >       12       57       58       79       82 </v>
   <v type="int" >       12       57       60       81       82 </v>
   <v type="int" >       12       57       78       81       82 </v>
   <v type="int" >       12       57       78       79       82 </v>
   <v type="int" >       12       56       59       60       81 </v>
   <v type="int" >       12       56       57       60       81 </v>
   <v type="int" >       12       56       57       78       81 </v>
   <v type="int" >       12       56       59       80       81 </v>
   <v type="int" >       12       56       77       80       81 </v>
   <v type="int" >       12       56       77       78       81 </v>
   <v type="int" >       12       55       56       59       80 </v>
   <v type="int" >       12       55       56       77       80 </v>
   <v type="int" >       12       55       76       77       80 </v>
   <v type="int" >       12       42       47       48       48 </v>
   <v type="int" >       12       41       42       47       48 </v>
   <v type="int" >       12       41       47       47       48 </v>
   <v type="int" >       12       47       48       48       69 </v>
   <v type="int" >       12       47       48       68       69 </v>
   <v type="int" >       12       47       47       48       68 </v>
   <v type="int" >       12       48       52       53       69 </v>
   <v type="int" >       12       47       48       52       69 </v>
   <v type="int" >       12       47       52       68       69 </v>
   <v type="int" >       12       52       53       69       74 </v>
   <v type="int" >       12       52       69       73       74 </v>
   <v type="int" >       12       52       68       69       73 </v>
   <v type="int" >       12       53       56       57       74 </v>
   <v type="int" >       12       52       53       56       74 </v>
   <v type="int" >       12       52       56       73       74 </v>
   <v type="int" >       12       56       57       74       78 </v>
   <v type="int" >       12       56       74       77       78 </v>
   <v type="int" >       12       56       73       74       77 </v>
   <v type="int" >       12       57       59       60       78 </v>
   <v type="int" >       12       56       57       59       78 </v>
   <v type="int" >       12       56       59       77       78 </v>
   <v type="int" >       12       59       60       78       81 </v>
   <v type="int" >       12       59       78       80       81 </v>
   <v type="int" >       12       59       77       78       80 </v>
   <v type="int" >       12       60       60       62       81 </v>
   <v type="int" >       12       59       60       60       81 </v>
   <v type="int" >       12       59       60       80       81 </v>
   <v type="int" >       12       60       62       81       83 </v>
   <v type="int" >       12       60       81       81       83 </v>
   <v type="int" >       12       60       80       81       81 </v>
   <v type="int" >       12       61       62       63       83 </v>
   <v type="int" >       12       60       61       62       83 </v>
   <v type="int" >       12       60       61       81       83 </v>
   <v type="int" >       12       61       63       83       84 </v>
   <v type="int" >       12       61       82       83       84 </v>
   <v type="int" >       12       61       81       82       83 </v>
   <v type="int" >       12       60       62       63       84 </v>
   <v type="int" >       12       60       61       63       84 </v>
   <v type="int" >       12       60       61       82       84 </v>
   <v type="int" >       12       60       62       83       84 </v>
   <v type="int" >       12       60       81       83       84 </v>
   <v type="int" >       12       60       81       82       84 </v>
   <v type="int" >       12       59       60       62       83 </v>
   <v type="int" >       12       59       60       81       83 </v>
   <v type="int" >       12       59       80       81       83 </v>
   <v type="int" >       12       43       48       49       49 </v>
   <v type="int" >       12       42       43       48       49 </v>
   <v type="int" >       12       42       48       48       49 </v>
   <v type="int" >       12       48       49       49       70 </v>
   <v type="int" >       12       48       49       69       70 </v>
   <v type="int" >       12       48       48       49       69 </v>
   <v type="int" >       12       49       53       54       70 </v>
   <v type="int" >       12       48       49       53       70 </v>
   <v type="int" >       12       48       53       69       70 </v>
   <v type="int" >       12       53       54       70       75 </v>
   <v type="int" >       12       53       70       74       75 </v>
   <v type="int" >       12       53       69       70       74 </v>
   <v type="int" >       12       54       57       58       75 </v>
   <v type="int" >       12       53       54       57       75 </v>
   <v type="int" >       12       53       57       74       75 </v>
   <v type="int" >       12       57       58       75       79 </v>
   <v type="int" >       12       57       75       78       79 </v>
   <v type="int" >       12       57       74       75       78 </v>
   <v type="int" >       12       58       60       61       79 </v>
   <v type="int" >       12       57       58       60       79 </v>
   <v type="int" >       12       57       60       78       79 </v>
   <v type="int" >       12       60       61       79       82 </v>
   <v type="int" >       12       60       79       81       82 </v>
   <v type="int" >       12       60       78       79       81 </v>
   <v type="int" >       12       61       62       63       82 </v>
   <v type="int" >       12       60       61       62       82 </v>
   <v type="int" >       12       60       62       81       82 </v>
   <v type="int" >       12       62       63       82       84 </v>
   <v type="int" >       12       62       82       83       84 </v>
   <v type="int" >       12       62       81       82       83 </v>
   <v type="int" >       12       63       63       64       84 </v>
   <v type="int" >       12       62       63       63       84 </v>
   <v type="int" >       12       62       63       83       84 </v>
   <v type="int" >       12       63       64       84       85 </v>
   <v type="int" >       12       63       84       84       85 </v>
   <v type="int" >       12       63       83       84       84 </v>
   <v type="int" >       12       62       63       64       85 </v>
   <v type="int" >       12       62       63       84       85 </v>
   <v type="int" >       12       62       83       84       85 </v>
   <v type="int" >       12       48       53       54       69 </v>
   <v type="int" >       12       48       49       54       69 </v>
   <v type="int" >       12       49       54       69       70 </v>
   <v type="int" >       12       53       54       69       74 </v>
   <v type="int" >       12       54       69       74       75 </v>
   <v type="int" >       12       54       69       70       75 </v>
   <v type="int" >       12       53       57       58       74 </v>
   <v type="int" >       12       53       54       58       74 </v>
   <v type="int" >       12       54       58       74       75 </v>
   <v type="int" >       12       57       58       74       78 </v>
   <v type="int" >       12       58       74       78       79 </v>
   <v type="int" >       12       58       74       75       79 </v>
   <v type="int" >       12       57       60       61       78 </v>
   <v type="int" >       12       57       58       61       78 </v>
   <v type="int" >       12       58       61       78       79 </v>
   <v type="int" >       12       60       61       78       81 </v>
   <v type="int" >       12       61       78       81       82 </v>
   <v type="int" >       12       61       78       79       82 </v>
   <v type="int" >       12       60       62       63       81 </v>
   <v type="int" >       12       60       61       63       81 </v>
   <v type="int" >       12       61       63       81       82 </v>
   <v type="int" >       12       62       63       81       83 </v>
   <v type="int" >       12       63       81       83       84 </v>
   <v type="int" >       12       63       81       82       84 </v>
   <v type="int" >       12       62       63       64       83 </v>
   <v type="int" >       12       63       64       83       84 </v>
   <v type="int" >       12       64       83       84       85 </v>
   <v type="int" >       12       47       52       53       68 </v>
   <v type="int" >       12       47       48       53       68 </v>
   <v type="int" >       12       48       53       68       69 </v>
   <v type="int" >       12       52       53       68       73 </v>
   <v type="int" >       12       53       68       73       74 </v>
   <v type="int" >       12       53       68       69       74 </v>
   <v type="int" >       12       52       56       57       73 </v>
   <v type="int" >       12       52       53       57       73 </v>
   <v type="int" >       12       53       57       73       74 </v>
   <v type="int" >       12       56       57       73       77 </v>
   <v type="int" >       12       57       73       77       78 </v>
   <v type="int" >       12       57       73       74       78 </v>
   <v type="int" >       12       56       59       60       77 </v>
   <v type="int" >       12       56       57       60       77 </v>
   <v type="int" >       12       57       60       77       78 </v>
   <v type="int" >       12       59       60       77       80 </v>
   <v type="int" >       12       60       77       80       81 </v>
   <v type="int" >       12       60       77       78       81 </v>
   <v type="int" >       12       59       60       62       80 </v>
   <v type="int" >       12       60       62       80       81 </v>
   <v type="int" >       12       62       80       81       83 </v>
   <v type="int" >       12       46       51       52       67 </v>
   <v type="int" >       12       46       47       52       67 </v>
   <v type="int" >       12       47       52       67       68 </v>
   <v type="int" >       12       51       52       67       72 </v>
   <v type="int" >       12       52       67       72       73 </v>
   <v type="int" >       12       52       67       68       73 </v>
   <v type="int" >       12       51       55       56       72 </v>
   <v type="int" >       12       51       52       56       72 </v>
   <v type="int" >       12       52       56       72       73 </v>
   <v type="int" >       12       55       56       72       76 </v>
   <v type="int" >       12       56       72       76       77 </v>
   <v type="int" >       12       56       72       73       77 </v>
   <v type="int" >       12       55       56       59       76 </v>
   <v type="int" >       12       56       59       76       77 </v>
   <v type="int" >       12       59       76       77       80 </v>
   <v type="int" >       12       45       50       51       66 </v>
   <v type="int" >       12       45       46       51       66 </v>
   <v type="int" >       12       46       51       66       67 </v>
   <v type="int" >       12       50       51       66       71 </v>
   <v type="int" >       12       51       66       71       72 </v>
   <v type="int" >       12       51       66       67       72 </v>
   <v type="int" >       12       50       51       55       71 </v>
   <v type="int" >       12       51       55       71       72 </v>
   <v type="int" >       12       55       71       72       76 </v>
   <v type="int" >       12       44       45       50       65 </v>
   <v type="int" >       12       45       50       65       66 </v>
   <v type="int" >       12       50       65       66       71 </v>
   <v type="int" >       12       66       66       71       71 </v>
   <v type="int" >       12       65       66       66       71 </v>
   <v type="int" >       12       66       71       71       86 </v>
   <v type="int" >       12       67       71       72       86 </v>
   <v type="int" >       12       66       67       71       86 </v>
   <v type="int" >       12       67       72       86       87 </v>
   <v type="int" >       12       68       72       73       87 </v>
   <v type="int" >       12       67       68       72       87 </v>
   <v type="int" >       12       68       73       87       88 </v>
   <v type="int" >       12       69       73       74       88 </v>
   <v type="int" >       12       68       69       73       88 </v>
   <v type="int" >       12       69       74       88       89 </v>
   <v type="int" >       12       70       74       75       89 </v>
   <v type="int" >       12       69       70       74       89 </v>
   <v type="int" >       12       70       75       89       90 </v>
   <v type="int" >       12       69       74       75       90 </v>
   <v type="int" >       12       69       70       75       90 </v>
   <v type="int" >       12       69       74       89       90 </v>
   <v type="int" >       12       68       73       74       89 </v>
   <v type="int" >       12       68       69       74       89 </v>
   <v type="int" >       12       68       73       88       89 </v>
   <v type="int" >       12       67       72       73       88 </v>
   <v type="int" >       12       67       68       73       88 </v>
   <v type="int" >       12       67       72       87       88 </v>
   <v type="int" >       12       66       71       72       87 </v>
   <v type="int" >       12       66       67       72       87 </v>
   <v type="int" >       12       66       71       86       87 </v>
   <v type="int" >       12       65       66       71       86 </v>
   <v type="int" >       12       67       71       72       72 </v>
   <v type="int" >       12       66       67       71       72 </v>
   <v type="int" >       12       66       71       71       72 </v>
   <v type="int" >       24       71       72       72       87 </v>
   <v type="int" >       24       71       72       86       87 </v>
   <v type="int" >       12       71       71       72       86 </v>
   <v type="int" >       12       72       72       76       87 </v>
   <v type="int" >       12       72       76       87       91 </v>
   <v type="int" >       12       72       87       87       91 </v>
   <v type="int" >       12       72       86       87       87 </v>
   <v type="int" >       12       73       76       77       91 </v>
   <v type="int" >       12       72       73       76       91 </v>
   <v type="int" >       12       72       73       87       91 </v>
   <v type="int" >       12       73       77       91       92 </v>
   <v type="int" >       12       73       88       91       92 </v>
   <v type="int" >       12       73       87       88       91 </v>
   <v type="int" >       12       74       77       78       92 </v>
   <v type="int" >       12       73       74       77       92 </v>
   <v type="int" >       12       73       74       88       92 </v>
   <v type="int" >       12       74       78       92       93 </v>
   <v type="int" >       12       74       89       92       93 </v>
   <v type="int" >       12       74       88       89       92 </v>
   <v type="int" >       12       75       78       79       93 </v>
   <v type="int" >       12       74       75       78       93 </v>
   <v type="int" >       12       74       75       89       93 </v>
   <v type="int" >       12       75       79       93       94 </v>
   <v type="int" >       12       75       90       93       94 </v>
   <v type="int" >       12       75       89       90       93 </v>
   <v type="int" >       12       74       78       79       94 </v>
   <v type="int" >       12       74       75       79       94 </v>
   <v type="int" >       12       74       75       90       94 </v>
   <v type="int" >       12       74       78       93       94 </v>
   <v type="int" >       12       74       89       93       94 </v>
   <v type="int" >       12       74       89       90       94 </v>
   <v type="int" >       12       73       77       78       93 </v>
   <v type="int" >       12       73       74       78       93 </v>
   <v type="int" >       12       73       74       89       93 </v>
   <v type="int" >       12       73       77       92       93 </v>
   <v type="int" >       12       73       88       92       93 </v>
   <v type="int" >       12       73       88       89       93 </v>
   <v type="int" >       12       72       76       77       92 </v>
   <v type="int" >       12       72       73       77       92 </v>
   <v type="int" >       12       72       73       88       92 </v>
   <v type="int" >       12       72       76       91       92 </v>
   <v type="int" >       12       72       87       91       92 </v>
   <v type="int" >       12       72       87       88       92 </v>
   <v type="int" >       12       71       72       76       91 </v>
   <v type="int" >       12       71       72       87       91 </v>
   <v type="int" >       12       71       86       87       91 </v>
   <v type="int" >       12       68       72       73       73 </v>
   <v type="int" >       12       67       68       72       73 </v>
   <v type="int" >       12       67       72       72       73 </v>
   <v type="int" >       12       72       73       73       88 </v>
   <v type="int" >       12       72       73       87       88 </v>
   <v type="int" >       12       72       72       73       87 </v>
   <v type="int" >       12       73       76       77       88 </v>
   <v type="int" >       12       72       73       76       88 </v>
[...]
       </set>
       <set comment="band 6">
        <r>  0.0000  0.0000  0.0000  0.0000  0.0000  0.0003  0.0000  0.0000  0.0000 </r>
        <r>  0.0000  0.0000  0.0000  0.9953  0.0000  0.0000  0.0000  0.0000  0.0000 </r>
       </set>
       <set comment="band 7">
        <r>  0.0000  0.0000  0.0000  0.0000  0.0000  0.8021  0.0000  0.0000  0.0000 </r>
        <r>  0.0167  0.0000  0.0000  0.0469  0.0000  0.0000  0.0035  0.0000  0.0106 </r>
       </set>
       <set comment="band 8">
        <r>  0.0000  0.0000  0.0010  0.0000  0.0000  0.0000  0.0000  0.8377  0.0000 </r>
        <r>  0.0000  0.0500  0.0000  0.0000  0.0065  0.0000  0.0000  0.0000  0.0000 </r>
       </set>
       <set comment="band 9">
        <r>  0.0000  0.0010  0.0000  0.0000  0.8377  0.0000  0.0000  0.0000  0.0000 </r>
        <r>  0.0000  0.0000  0.0500  0.0000  0.0000  0.0000  0.0000  0.0065  0.0000 </r>
       </set>
       <set comment="band 10">
        <r>  0.0073  0.0000  0.0000  0.0216  0.0000  0.0000  0.2137  0.0000  0.6414 </r>
        <r>  0.0000  0.0000  0.0000  0.0000  0.0000  0.0458  0.0000  0.0000  0.0000 </r>
       </set>
       <set comment="band 11">
        <r>  0.0000  0.0000  0.0000  0.0000  0.0000  0.0000  0.7395  0.0000  0.2464 </r>
        <r>  0.0000  0.0000  0.0000  0.0000  0.0000  0.0000  0.0000  0.0000  0.0000 </r>
       </set>
       <set comment="band 12">
        <r>  0.0000  0.0000  0.2097  0.0000  0.0000  0.0000  0.0000  0.0015  0.0000 </r>
        <r>  0.0000  0.0300  0.0000  0.0000  0.4950  0.0000  0.0000  0.0000  0.0000 </r>
       </set>
       <set comment="band 13">
        <r>  0.0000  0.2098  0.0000  0.0000  0.0015  0.0000  0.0000  0.0000  0.0000 </r>
        <r>  0.0000  0.0000  0.0300  0.0000  0.0000  0.0000  0.0000  0.4949  0.0000 </r>
       </set>
       <set comment="band 14">
        <r>  0.0597  0.0000  0.0000  0.1255  0.0000  0.0000  0.0318  0.0000  0.0953 </r>
        <r>  0.0000  0.0000  0.0000  0.0000  0.0000  0.4921  0.0000  0.0000  0.0000 </r>
       </set>
       <set comment="band 15">
        <r>  0.0000  0.0000  0.0000  0.0000  0.0000  0.0397  0.0000  0.0000  0.0000 </r>
        <r>  0.0008  0.0000  0.0000  0.0035  0.0000  0.0000  0.2326  0.0000  0.6922 </r>
       </set>
       <set comment="band 16">
        <r>  0.0000  0.0000  0.0000  0.0000  0.0000  0.0000  0.0000  0.0000  0.0000 </r>
        <r>  0.0000  0.0000  0.0000  0.0000  0.0000  0.0000  0.7374  0.0000  0.2476 </r>
       </set>
       <set comment="band 17">
        <r>  0.0000  0.0000  0.0554  0.0000  0.0000  0.0000  0.0000  0.2163  0.0000 </r>
        <r>  0.0000  0.2494  0.0000  0.0000  0.2557  0.0000  0.0000  0.0000  0.0000 </r>
       </set>
       <set comment="band 18">
        <r>  0.0000  0.0554  0.0000  0.0000  0.2163  0.0000  0.0000  0.0000  0.0000 </r>
        <r>  0.0000  0.0000  0.2494  0.0000  0.0000  0.0000  0.0000  0.2557  0.0000 </r>
       </set>
      </set>
      <set comment="kpoint 117">
       <set comment="band 1">
        <r>  0.0000  0.3322  0.3322  0.3297  0.0000  0.0000  0.0000  0.0000  0.0000 </r>
        <r>  0.0000  0.0002  0.0002  0.0002  0.0001  0.0001  0.0000  0.0001  0.0000 </r>
       </set>
       <set comment="band 2">
        <r>  0.0000  0.4973  0.4975  0.0000  0.0000  0.0000  0.0000  0.0000  0.0000 </r>
        <r>  0.0000  0.0001  0.0001  0.0000  0.0001  0.0000  0.0000  0.0001  0.0000 </r>
       </set>
       <set comment="band 3">
        <r>  0.0000  0.1651  0.1649  0.6648  0.0000  0.0000  0.0000  0.0000  0.0000 </r>
        <r>  0.0000  0.0000  0.0000  0.0001  0.0000  0.0002  0.0000  0.0000  0.0000 </r>
       </set>
       <set comment="band 4">
        <r>  0.0000  0.0001  0.0000  0.0001  0.0000  0.0003  0.0000  0.0001  0.0000 </r>
        <r>  0.0000  0.2306  0.0756  0.6885  0.0000  0.0000  0.0000  0.0000  0.0000 </r>
       </set>
       <set comment="band 5">
        <r>  0.0000  0.0001  0.0001  0.0000  0.0002  0.0000  0.0000  0.0002  0.0000 </r>
        <r>  0.0000  0.4253  0.5522  0.0172  0.0000  0.0000  0.0000  0.0000  0.0000 </r>
       </set>
       <set comment="band 6">
        <r>  0.0000  0.0003  0.0003  0.0003  0.0001  0.0001  0.0000  0.0001  0.0000 </r>
        <r>  0.0000  0.3386  0.3668  0.2888  0.0000  0.0000  0.0000  0.0000  0.0000 </r>
       </set>
       <set comment="band 7">
        <r>  0.0000  0.0005  0.0005  0.0005  0.2727  0.2732  0.0000  0.2732  0.0000 </r>
        <r>  0.0125  0.0159  0.0158  0.0159  0.0017  0.0017  0.0000  0.0017  0.0000 </r>
       </set>
       <set comment="band 8">
        <r>  0.0000  0.0001  0.0000  0.0002  0.0018  0.4413  0.0000  0.3874  0.0001 </r>
        <r>  0.0000  0.0249  0.0001  0.0283  0.0000  0.0008  0.0000  0.0007  0.0052 </r>
       </set>
       <set comment="band 9">
        <r>  0.0000  0.0001  0.0002  0.0000  0.5522  0.1122  0.0001  0.1661  0.0000 </r>
        <r>  0.0000  0.0107  0.0355  0.0072  0.0010  0.0002  0.0052  0.0003  0.0000 </r>
       </set>
       <set comment="band 10">
        <r>  0.0000  0.0061  0.0000  0.0053  0.0000  0.0001  0.0032  0.0002  0.9277 </r>
        <r>  0.0000  0.0002  0.0000  0.0002  0.0000  0.0088  0.0000  0.0101  0.0001 </r>
       </set>
       <set comment="band 11">
        <r>  0.0000  0.0015  0.0076  0.0023  0.0002  0.0001  0.9277  0.0000  0.0032 </r>
        <r>  0.0000  0.0000  0.0002  0.0001  0.0126  0.0038  0.0001  0.0025  0.0000 </r>
       </set>
       <set comment="band 12">
        <r>  0.0526  0.0600  0.0601  0.0600  0.0013  0.0013  0.0000  0.0013  0.0000 </r>
        <r>  0.0031  0.0086  0.0086  0.0086  0.1529  0.1526  0.0000  0.1526  0.0000 </r>
       </set>
       <set comment="band 13">
        <r>  0.0000  0.0306  0.1159  0.0275  0.0011  0.0003  0.0520  0.0003  0.0000 </r>
        <r>  0.0000  0.0013  0.0051  0.0012  0.3389  0.0804  0.0441  0.0893  0.0000 </r>
       </set>
       <set comment="band 14">
        <r>  0.0000  0.0855  0.0000  0.0885  0.0000  0.0009  0.0000  0.0008  0.0520 </r>
        <r>  0.0000  0.0037  0.0000  0.0039  0.0001  0.2587  0.0000  0.2498  0.0440 </r>
       </set>
       <set comment="band 15">
        <r>  0.0000  0.0009  0.0051  0.0017  0.0090  0.0030  0.0012  0.0016  0.0000 </r>
        <r>  0.0000  0.0001  0.0004  0.0001  0.0213  0.0070  0.9093  0.0039  0.0066 </r>
       </set>
       <set comment="band 16">
        <r>  0.0000  0.0042  0.0000  0.0034  0.0001  0.0061  0.0000  0.0074  0.0012 </r>
        <r>  0.0000  0.0004  0.0000  0.0003  0.0002  0.0144  0.0066  0.0175  0.9094 </r>
       </set>
       <set comment="band 17">
        <r>  0.0019  0.0118  0.0118  0.0118  0.0807  0.0807  0.0000  0.0807  0.0000 </r>
        <r>  0.0758  0.0647  0.0646  0.0647  0.0783  0.0783  0.0000  0.0783  0.0000 </r>
       </set>
       <set comment="band 18">
        <r>  0.0000  0.0185  0.0057  0.0111  0.0417  0.0805  0.0003  0.1343  0.0009 </r>
        <r>  0.0000  0.1669  0.0518  0.1001  0.0171  0.0331  0.0055  0.0552  0.0170 </r>
       </set>
      </set>
      <set comment="kpoint 118">
       <set comment="band 1">
        <r>  0.0000  0.9944  0.0000  0.0000  0.0000  0.0000  0.0000  0.0000  0.0000 </r>
        <r>  0.0000  0.0000  0.0002  0.0002  0.0000  0.0000  0.0000  0.0002  0.0000 </r>
       </set>
       <set comment="band 2">
        <r>  0.0000  0.0000  0.4997  0.4948  0.0000  0.0000  0.0000  0.0000  0.0000 </r>
        <r>  0.0000  0.0004  0.0000  0.0000  0.0001  0.0001  0.0000  0.0000  0.0000 </r>
       </set>
       <set comment="band 3">
        <r>  0.0000  0.0000  0.4950  0.4999  0.0000  0.0000  0.0000  0.0000  0.0000 </r>
        <r>  0.0000  0.0000  0.0000  0.0000  0.0001  0.0001  0.0000  0.0000  0.0000 </r>
       </set>
       <set comment="band 4">
        <r>  0.0000  0.0000  0.0002  0.0002  0.0000  0.0000  0.0000  0.0004  0.0000 </r>
        <r>  0.0000  0.9944  0.0000  0.0000  0.0000  0.0000  0.0000  0.0000  0.0000 </r>
       </set>
       <set comment="band 5">
        <r>  0.0000  0.0000  0.0000  0.0000  0.0002  0.0002  0.0000  0.0000  0.0000 </r>
        <r>  0.0000  0.0000  0.4195  0.5755  0.0000  0.0000  0.0000  0.0000  0.0000 </r>
       </set>
       <set comment="band 6">
        <r>  0.0000  0.0004  0.0000  0.0000  0.0002  0.0001  0.0000  0.0000  0.0000 </r>
        <r>  0.0000  0.0000  0.5753  0.4193  0.0000  0.0000  0.0000  0.0000  0.0000 </r>
       </set>
       <set comment="band 7">
        <r>  0.0000  0.0007  0.0000  0.0000  0.4102  0.4112  0.0000  0.0000  0.0000 </r>
        <r>  0.0085  0.0000  0.0253  0.0254  0.0000  0.0000  0.0004  0.0029  0.0013 </r>
       </set>
       <set comment="band 8">
        <r>  0.0000  0.0000  0.0000  0.0000  0.4150  0.4140  0.0000  0.0000  0.0000 </r>
        <r>  0.0000  0.0000  0.0275  0.0274  0.0000  0.0000  0.0040  0.0000  0.0013 </r>
       </set>
       <set comment="band 9">
        <r>  0.0000  0.0000  0.0003  0.0003  0.0000  0.0000  0.0000  0.8342  0.0000 </r>
        <r>  0.0000  0.0536  0.0000  0.0000  0.0015  0.0015  0.0000  0.0000  0.0000 </r>
       </set>
       <set comment="band 10">
        <r>  0.0000  0.0000  0.0057  0.0057  0.0000  0.0000  0.6986  0.0000  0.2331 </r>
        <r>  0.0000  0.0000  0.0000  0.0000  0.0098  0.0098  0.0000  0.0000  0.0000 </r>
       </set>
       <set comment="band 11">
        <r>  0.0009  0.0000  0.0028  0.0028  0.0000  0.0000  0.2395  0.0002  0.7179 </r>
        <r>  0.0000  0.0004  0.0000  0.0000  0.0050  0.0050  0.0000  0.0000  0.0000 </r>
       </set>
       <set comment="band 12">
        <r>  0.0358  0.0000  0.0883  0.0881  0.0000  0.0000  0.0071  0.0008  0.0212 </r>
        <r>  0.0000  0.0136  0.0000  0.0000  0.2483  0.2475  0.0000  0.0000  0.0000 </r>
       </set>
       <set comment="band 13">
        <r>  0.0000  0.2007  0.0000  0.0000  0.0011  0.0011  0.0000  0.0000  0.0000 </r>
        <r>  0.0012  0.0000  0.0072  0.0072  0.0000  0.0000  0.0037  0.5163  0.0110 </r>
       </set>
       <set comment="band 14">
        <r>  0.0000  0.0000  0.0894  0.0897  0.0000  0.0000  0.0395  0.0000  0.0132 </r>
        <r>  0.0000  0.0000  0.0000  0.0000  0.2766  0.2773  0.0000  0.0000  0.0000 </r>
       </set>
       <set comment="band 15">
        <r>  0.0000  0.0000  0.0000  0.0000  0.0077  0.0076  0.0000  0.0000  0.0000 </r>
        <r>  0.0000  0.0000  0.0010  0.0010  0.0000  0.0000  0.7240  0.0000  0.2367 </r>
       </set>
       <set comment="band 16">
        <r>  0.0000  0.0027  0.0000  0.0000  0.0024  0.0025  0.0000  0.0000  0.0000 </r>
        <r>  0.0000  0.0000  0.0001  0.0001  0.0000  0.0000  0.2368  0.0116  0.7245 </r>
       </set>
       <set comment="band 17">
        <r>  0.0000  0.0333  0.0000  0.0000  0.1296  0.1296  0.0000  0.0000  0.0000 </r>
        <r>  0.0746  0.0000  0.1183  0.1183  0.0000  0.0000  0.0020  0.1462  0.0060 </r>
       </set>
       <set comment="band 18">
        <r>  0.0050  0.0000  0.0201  0.0200  0.0000  0.0000  0.0001  0.2441  0.0004 </r>
        <r>  0.0000  0.2863  0.0000  0.0000  0.0897  0.0896  0.0000  0.0000  0.0000 </r>
       </set>
      </set>
      <set comment="kpoint 119">
       <set comment="band 1">
        <r>  0.0000  0.0000  0.9946  0.0000  0.0000  0.0000  0.0000  0.0000  0.0000 </r>
        <r>  0.0000  0.0002  0.0000  0.0000  0.0002  0.0000  0.0000  0.0000  0.0000 </r>
       </set>
       <set comment="band 2">
        <r>  0.0000  0.9946  0.0000  0.0000  0.0000  0.0000  0.0000  0.0000  0.0000 </r>
        <r>  0.0000  0.0000  0.0002  0.0000  0.0000  0.0000  0.0000  0.0002  0.0000 </r>
       </set>
       <set comment="band 3">
        <r>  0.0000  0.0000  0.0000  0.9950  0.0000  0.0000  0.0000  0.0000  0.0000 </r>
        <r>  0.0000  0.0000  0.0000  0.0000  0.0000  0.0002  0.0000  0.0000  0.0000 </r>
       </set>
       <set comment="band 4">
        <r>  0.0000  0.0000  0.0002  0.0000  0.0000  0.0000  0.0000  0.0004  0.0000 </r>
        <r>  0.0000  0.9946  0.0000  0.0000  0.0000  0.0000  0.0000  0.0000  0.0000 </r>
       </set>
       <set comment="band 5">
        <r>  0.0000  0.0002  0.0000  0.0000  0.0004  0.0000  0.0000  0.0000  0.0000 </r>
        <r>  0.0000  0.0000  0.9946  0.0000  0.0000  0.0000  0.0000  0.0000  0.0000 </r>
       </set>
       <set comment="band 6">
        <r>  0.0000  0.0000  0.0000  0.0000  0.0000  0.0004  0.0000  0.0000  0.0000 </r>
        <r>  0.0000  0.0000  0.0000  0.9949  0.0000  0.0000  0.0000  0.0000  0.0000 </r>
       </set>
       <set comment="band 7">
        <r>  0.0000  0.0000  0.0000  0.0000  0.0000  0.8235  0.0000  0.0000  0.0000 </r>
        <r>  0.0044  0.0000  0.0000  0.0543  0.0000  0.0000  0.0009  0.0000  0.0027 </r>
       </set>
       <set comment="band 8">
        <r>  0.0000  0.0000  0.0003  0.0000  0.0000  0.0000  0.0000  0.8327  0.0000 </r>
        <r>  0.0000  0.0552  0.0000  0.0000  0.0016  0.0000  0.0000  0.0000  0.0000 </r>
       </set>
       <set comment="band 9">
        <r>  0.0000  0.0003  0.0000  0.0000  0.8327  0.0000  0.0000  0.0000  0.0000 </r>
        <r>  0.0000  0.0000  0.0552  0.0000  0.0000  0.0000  0.0000  0.0016  0.0000 </r>
       </set>
       <set comment="band 10">
        <r>  0.0007  0.0000  0.0000  0.0090  0.0000  0.0000  0.2351  0.0000  0.7062 </r>
        <r>  0.0000  0.0000  0.0000  0.0000  0.0000  0.0166  0.0000  0.0000  0.0000 </r>
       </set>
       <set comment="band 11">
        <r>  0.0000  0.0000  0.0000  0.0000  0.0000  0.0000  0.7399  0.0000  0.2464 </r>
        <r>  0.0000  0.0000  0.0000  0.0000  0.0000  0.0000  0.0000  0.0000  0.0000 </r>
       </set>
       <set comment="band 12">
        <r>  0.0000  0.0000  0.2007  0.0000  0.0000  0.0000  0.0000  0.0004  0.0000 </r>
        <r>  0.0000  0.0074  0.0000  0.0000  0.5441  0.0000  0.0000  0.0000  0.0000 </r>
       </set>
       <set comment="band 13">
        <r>  0.0000  0.2007  0.0000  0.0000  0.0004  0.0000  0.0000  0.0000  0.0000 </r>
        <r>  0.0000  0.0000  0.0074  0.0000  0.0000  0.0000  0.0000  0.5440  0.0000 </r>
       </set>
       <set comment="band 14">
        <r>  0.0183  0.0000  0.0000  0.1745  0.0000  0.0000  0.0110  0.0000  0.0329 </r>
        <r>  0.0000  0.0000  0.0000  0.0000  0.0000  0.5371  0.0000  0.0000  0.0000 </r>
       </set>
       <set comment="band 15">
        <r>  0.0000  0.0000  0.0000  0.0000  0.0000  0.0108  0.0000  0.0000  0.0000 </r>
        <r>  0.0001  0.0000  0.0000  0.0013  0.0000  0.0000  0.2473  0.0000  0.7209 </r>
       </set>
       <set comment="band 16">
        <r>  0.0000  0.0000  0.0000  0.0000  0.0000  0.0000  0.0000  0.0000  0.0000 </r>
        <r>  0.0000  0.0000  0.0000  0.0000  0.0000  0.0000  0.7337  0.0000  0.2516 </r>
       </set>
       <set comment="band 17">
        <r>  0.0000  0.0000  0.0307  0.0000  0.0000  0.0000  0.0000  0.2730  0.0000 </r>
        <r>  0.0000  0.3237  0.0000  0.0000  0.1051  0.0000  0.0000  0.0000  0.0000 </r>
       </set>
       <set comment="band 18">
        <r>  0.0000  0.0307  0.0000  0.0000  0.2731  0.0000  0.0000  0.0000  0.0000 </r>
        <r>  0.0000  0.0000  0.3237  0.0000  0.0000  0.0000  0.0000  0.1051  0.0000 </r>
       </set>
      </set>
      <set comment="kpoint 120">
       <set comment="band 1">
        <r>  0.0000  0.0000  0.9949  0.0000  0.0000  0.0000  0.0000  0.0000  0.0000 </r>
        <r>  0.0000  0.0000  0.0000  0.0000  0.0002  0.0000  0.0000  0.0000  0.0000 </r>
       </set>
       <set comment="band 2">
        <r>  0.0000  0.9949  0.0000  0.0000  0.0000  0.0000  0.0000  0.0000  0.0000 </r>
        <r>  0.0000  0.0000  0.0000  0.0000  0.0000  0.0000  0.0000  0.0002  0.0000 </r>
       </set>
       <set comment="band 3">
        <r>  0.0000  0.0000  0.0000  0.9949  0.0000  0.0000  0.0000  0.0000  0.0000 </r>
        <r>  0.0000  0.0000  0.0000  0.0000  0.0000  0.0002  0.0000  0.0000  0.0000 </r>
       </set>
       <set comment="band 4">
        <r>  0.0000  0.0000  0.0000  0.0000  0.0000  0.0004  0.0000  0.0000  0.0000 </r>
        <r>  0.0000  0.0000  0.0000  0.9948  0.0000  0.0000  0.0000  0.0000  0.0000 </r>
       </set>
       <set comment="band 5">
        <r>  0.0000  0.0000  0.0000  0.0000  0.0000  0.0000  0.0000  0.0004  0.0000 </r>
        <r>  0.0000  0.9948  0.0000  0.0000  0.0000  0.0000  0.0000  0.0000  0.0000 </r>
       </set>
       <set comment="band 6">
        <r>  0.0000  0.0000  0.0000  0.0000  0.0004  0.0000  0.0000  0.0000  0.0000 </r>
        <r>  0.0000  0.0000  0.9948  0.0000  0.0000  0.0000  0.0000  0.0000  0.0000 </r>
       </set>
       <set comment="band 7">
        <r>  0.0000  0.0000  0.0000  0.0000  0.0000  0.8311  0.0000  0.0000  0.0000 </r>
        <r>  0.0000  0.0000  0.0000  0.0569  0.0000  0.0000  0.0000  0.0000  0.0000 </r>
       </set>
       <set comment="band 8">
        <r>  0.0000  0.0000  0.0000  0.0000  0.0000  0.0000  0.0000  0.8311  0.0000 </r>
        <r>  0.0000  0.0569  0.0000  0.0000  0.0000  0.0000  0.0000  0.0000  0.0000 </r>
       </set>
       <set comment="band 9">
        <r>  0.0000  0.0000  0.0000  0.0000  0.8311  0.0000  0.0000  0.0000  0.0000 </r>
        <r>  0.0000  0.0000  0.0569  0.0000  0.0000  0.0000  0.0000  0.0000  0.0000 </r>
       </set>
       <set comment="band 10">
        <r>  0.0000  0.0000  0.0000  0.0000  0.0000  0.0000  0.0018  0.0000  0.9845 </r>
        <r>  0.0000  0.0000  0.0000  0.0000  0.0000  0.0000  0.0000  0.0000  0.0000 </r>
       </set>
       <set comment="band 11">
        <r>  0.0000  0.0000  0.0000  0.0000  0.0000  0.0000  0.9845  0.0000  0.0018 </r>
        <r>  0.0000  0.0000  0.0000  0.0000  0.0000  0.0000  0.0000  0.0000  0.0000 </r>
       </set>
       <set comment="band 12">
        <r>  0.0000  0.0000  0.1977  0.0000  0.0000  0.0000  0.0000  0.0000  0.0000 </r>
        <r>  0.0000  0.0000  0.0000  0.0000  0.5601  0.0000  0.0000  0.0000  0.0000 </r>
       </set>
       <set comment="band 13">
        <r>  0.0000  0.1977  0.0000  0.0000  0.0000  0.0000  0.0000  0.0000  0.0000 </r>
        <r>  0.0000  0.0000  0.0000  0.0000  0.0000  0.0000  0.0000  0.5600  0.0000 </r>
       </set>
       <set comment="band 14">
        <r>  0.0000  0.0000  0.0000  0.1977  0.0000  0.0000  0.0000  0.0000  0.0000 </r>
        <r>  0.0000  0.0000  0.0000  0.0000  0.0000  0.5600  0.0000  0.0000  0.0000 </r>
       </set>
       <set comment="band 15">
        <r>  0.0000  0.0000  0.0000  0.0000  0.0000  0.0000  0.0000  0.0000  0.0000 </r>
        <r>  0.0000  0.0000  0.0000  0.0000  0.0000  0.0000  0.9780  0.0000  0.0075 </r>
       </set>
       <set comment="band 16">
        <r>  0.0000  0.0000  0.0000  0.0000  0.0000  0.0000  0.0000  0.0000  0.0000 </r>
        <r>  0.0000  0.0000  0.0000  0.0000  0.0000  0.0000  0.0075  0.0000  0.9780 </r>
       </set>
       <set comment="band 17">
        <r>  0.0000  0.0000  0.0000  0.0000  0.0003  0.1001  0.0000  0.2197  0.0000 </r>
        <r>  0.0000  0.2615  0.0004  0.1192  0.0000  0.0000  0.0000  0.0000  0.0000 </r>
       </set>
       <set comment="band 18">
        <r>  0.0000  0.0000  0.0000  0.0000  0.3158  0.0018  0.0000  0.0025  0.0000 </r>
        <r>  0.0000  0.0030  0.3759  0.0022  0.0000  0.0000  0.0000  0.0000  0.0000 </r>
       </set>
      </set>
     </set>
    </set>
   </array>
  </projected>
 </calculation>
 <structure name="finalpos" >
  <crystal>
   <varray name="basis" >
    <v>       0.00000000       2.84005200       0.00000000 </v>
    <v>       0.00000000       0.00000000      -2.84005200 </v>
    <v>      -2.84005200       0.00000000       0.00000000 </v>
   </varray>
   <i name="volume">     22.90756226 </i>
   <varray name="rec_basis" >
    <v>       0.00000000       0.35210623       0.00000000 </v>
    <v>       0.00000000       0.00000000      -0.35210623 </v>
    <v>      -0.35210623       0.00000000       0.00000000 </v>
   </varray>
  </crystal>
  <varray name="positions" >
   <v>       0.50000000       0.50000000       0.50000000 </v>
   <v>       0.00000000       0.00000000       0.00000000 </v>
  </varray>
 </structure>
</modeling>
