       N       E                     dE             d eps       ncg     rms          rms(c)
DAV:   1     0.441314725388E+03    0.44131E+03   -0.17835E+04 26504   0.314E+03
DAV:   2     0.485029252301E+02   -0.39281E+03   -0.37024E+03 35864   0.393E+02
DAV:   3    -0.260219894105E+02   -0.74525E+02   -0.73353E+02 37744   0.248E+02
DAV:   4    -0.317066660427E+02   -0.56847E+01   -0.55314E+01 43164   0.554E+01
DAV:   5    -0.322194557128E+02   -0.51279E+00   -0.50530E+00 42536   0.152E+01    0.186E+01
DAV:   6    -0.385996822901E+02   -0.63802E+01   -0.85509E+01 37020   0.983E+01    0.224E+01
DAV:   7    -0.383797045549E+02    0.21998E+00   -0.12010E+01 36516   0.616E+01    0.989E+00
DAV:   8    -0.374502517182E+02    0.92945E+00   -0.42666E+00 39712   0.325E+01    0.423E+00
DAV:   9    -0.376035571207E+02   -0.15331E+00   -0.37137E+00 41824   0.169E+01    0.479E+00
DAV:  10    -0.374379644066E+02    0.16559E+00   -0.21230E+00 38444   0.120E+01    0.181E+00
DAV:  11    -0.374766664420E+02   -0.38702E-01   -0.98991E-02 45992   0.251E+00    0.972E-01
DAV:  12    -0.374738815281E+02    0.27849E-02   -0.27187E-02 37352   0.131E+00    0.819E-01
DAV:  13    -0.374700501510E+02    0.38314E-02   -0.12686E-02 40924   0.944E-01    0.507E-01
DAV:  14    -0.374684254163E+02    0.16247E-02   -0.61653E-03 42084   0.611E-01    0.218E-01
DAV:  15    -0.374682981197E+02    0.12730E-03   -0.17662E-03 43672   0.344E-01    0.817E-02
DAV:  16    -0.374683590412E+02   -0.60921E-04   -0.11384E-03 39276   0.300E-01    0.706E-02
DAV:  17    -0.374683558385E+02    0.32027E-05   -0.13159E-04 39668   0.806E-02    0.514E-02
DAV:  18    -0.374683334183E+02    0.22420E-04   -0.53861E-05 37088   0.626E-02    0.255E-02
DAV:  19    -0.374683229142E+02    0.10504E-04   -0.16609E-05 30772   0.341E-02    0.106E-02
DAV:  20    -0.374683168935E+02    0.60207E-05   -0.71035E-06 23248   0.242E-02    0.124E-03
DAV:  21    -0.374683160838E+02    0.80970E-06   -0.84079E-07 17988   0.132E-02
   1 F= -.37468316E+02 E0= -.37468316E+02  d E =0.000000E+00  mag=     0.0000
