=========================================
SLURM_JOB_ID = 63601031
SLURM_JOB_NODELIST = lnode18
SLURM_GPUS = 
SLURM_CPUS_ON_NODE = 8
SLURM_JOB_PARTITION = lenovo
SLURM_TASK_PID = 223826
CUDA_VISIBLE_DEVICES = 
==========================================
 running on    8 total cores
 distrk:  each k-point on    8 cores,    1 groups
 distr:  one band on    4 cores,    2 groups
 using from now: INCAR     
 vasp.5.4.4.18Apr17-6-g9f103f2a35 (build Apr 28 2018 00:24:27) complex          
  
 POSCAR found type information on POSCAR  Ni O 
 POSCAR found :  2 types and      32 ions
 scaLAPACK will be used

 ----------------------------------------------------------------------------- 
|                                                                             |
|  ADVICE TO THIS USER RUNNING 'VASP/VAMP'   (HEAR YOUR MASTER'S VOICE ...):  |
|                                                                             |
|      You have a (more or less) 'large supercell' and for larger cells       |
|      it might be more efficient to use real space projection opertators     |
|      So try LREAL= Auto  in the INCAR   file.                               |
|      Mind:          For very  accurate calculation you might also keep the  |
|      reciprocal projection scheme          (i.e. LREAL=.FALSE.)             |
|                                                                             |
 ----------------------------------------------------------------------------- 

 LDA part: xc-table for Pade appr. of Perdew
 POSCAR, INCAR and KPOINTS ok, starting setup
 FFT: planning ...
 WAVECAR not read
 entering main loop
       N       E                     dE             d eps       ncg     rms          rms(c)
DAV:   1     0.528479026439E+04    0.52848E+04   -0.18103E+05 10080   0.187E+03
DAV:   2     0.398530525212E+03   -0.48863E+04   -0.46200E+04  8816   0.639E+02
DAV:   3    -0.187652165707E+03   -0.58618E+03   -0.54299E+03  9456   0.235E+02
DAV:   4    -0.220089583982E+03   -0.32437E+02   -0.31516E+02  9848   0.510E+01
DAV:   5    -0.220807815473E+03   -0.71823E+00   -0.71296E+00  9632   0.846E+00    0.606E+01
DAV:   6    -0.201877388053E+03    0.18930E+02   -0.25453E+02 11340   0.775E+01    0.690E+01
DAV:   7    -0.186569461760E+03    0.15308E+02   -0.57579E+01 10640   0.509E+01    0.288E+01
DAV:   8    -0.186906765639E+03   -0.33730E+00   -0.99620E+00  9568   0.707E+00    0.141E+01
DAV:   9    -0.186853271484E+03    0.53494E-01   -0.20485E-01 10392   0.208E+00    0.250E+00
DAV:  10    -0.186850182995E+03    0.30885E-02   -0.10651E-01  9704   0.142E+00    0.117E+00
DAV:  11    -0.186851251689E+03   -0.10687E-02   -0.71178E-03 11360   0.361E-01    0.834E-01
DAV:  12    -0.186854155880E+03   -0.29042E-02   -0.82285E-03 11472   0.432E-01    0.365E-01
DAV:  13    -0.186857194890E+03   -0.30390E-02   -0.14920E-03 10656   0.124E-01    0.220E-01
DAV:  14    -0.186858287197E+03   -0.10923E-02   -0.70976E-04 10568   0.114E-01    0.839E-02
DAV:  15    -0.186858438868E+03   -0.15167E-03   -0.18207E-04 10704   0.470E-02    0.481E-02
DAV:  16    -0.186858474658E+03   -0.35790E-04   -0.50961E-05 11080   0.346E-02    0.140E-02
DAV:  17    -0.186858489281E+03   -0.14622E-04   -0.11229E-05  8184   0.120E-02    0.430E-03
DAV:  18    -0.186858489688E+03   -0.40697E-06   -0.36067E-07  5120   0.253E-03
   1 F= -.18685849E+03 E0= -.18661732E+03  d E =-.482334E+00  mag=    11.4790
 writing wavefunctions
