       N       E                     dE             d eps       ncg     rms          rms(c)
DAV:   1     0.755409823432E+03    0.75541E+03   -0.34603E+04  4360   0.162E+03
DAV:   2     0.220226184400E+02   -0.73339E+03   -0.69225E+03  3936   0.522E+02
DAV:   3    -0.188027912260E+02   -0.40825E+02   -0.39511E+02  4264   0.141E+02
DAV:   4    -0.193875673612E+02   -0.58478E+00   -0.58411E+00  4216   0.172E+01
DAV:   5    -0.193991681217E+02   -0.11601E-01   -0.11600E-01  4312   0.234E+00    0.548E+01
DAV:   6    -0.297765301539E+02   -0.10377E+02   -0.33338E+01  4208   0.684E+01    0.225E+01
DAV:   7    -0.268116329381E+02    0.29649E+01   -0.12116E+01  4160   0.400E+01    0.352E+00
DAV:   8    -0.267276821595E+02    0.83951E-01   -0.19745E-01  4352   0.503E+00    0.132E+00
DAV:   9    -0.267254420037E+02    0.22402E-02   -0.74583E-03  4264   0.512E-01    0.602E-01
DAV:  10    -0.267226039705E+02    0.28380E-02   -0.66808E-04  4680   0.237E-01    0.192E-01
DAV:  11    -0.267224310025E+02    0.17297E-03   -0.42166E-04  4216   0.172E-01    0.835E-02
DAV:  12    -0.267224510520E+02   -0.20049E-04   -0.31991E-05  4208   0.428E-02    0.465E-02
DAV:  13    -0.267224549530E+02   -0.39010E-05   -0.36248E-06  3848   0.181E-02    0.100E-02
DAV:  14    -0.267224547856E+02    0.16739E-06   -0.71695E-07  2480   0.765E-03
   1 F= -.26722455E+02 E0= -.26654268E+02  d E =-.136373E+00  mag=     2.3578
