       N       E                     dE             d eps       ncg     rms          rms(c)
DAV:   1     0.514446020619E+02    0.51445E+02   -0.58317E+03  5874   0.844E+02
DAV:   2    -0.139498250428E+02   -0.65394E+02   -0.60548E+02  5532   0.171E+02
DAV:   3    -0.156252941417E+02   -0.16755E+01   -0.16509E+01  6192   0.336E+01
DAV:   4    -0.156464284914E+02   -0.21134E-01   -0.21129E-01  6476   0.327E+00
DAV:   5    -0.156469971815E+02   -0.56869E-03   -0.56867E-03  6248   0.509E-01    0.239E+01
DAV:   6    -0.172378316569E+02   -0.15908E+01   -0.75308E+00  5856   0.503E+01    0.521E+00
DAV:   7    -0.170362720297E+02    0.20156E+00   -0.10934E+00  6026   0.182E+01    0.302E+00
DAV:   8    -0.170109891400E+02    0.25283E-01   -0.27286E-02  7308   0.227E+00    0.140E+00
DAV:   9    -0.170035844566E+02    0.74047E-02   -0.22296E-03  8142   0.589E-01    0.708E-01
DAV:  10    -0.170003541066E+02    0.32304E-02   -0.43643E-04  6744   0.205E-01    0.813E-02
DAV:  11    -0.170003892231E+02   -0.35117E-04   -0.81956E-05  7300   0.128E-01    0.343E-02
DAV:  12    -0.170003833583E+02    0.58648E-05   -0.62971E-06  6268   0.265E-02    0.150E-02
DAV:  13    -0.170003812080E+02    0.21503E-05   -0.70808E-07  3758   0.101E-02    0.472E-03
DAV:  14    -0.170003815614E+02   -0.35337E-06   -0.32837E-07  2974   0.544E-03
   1 F= -.17000382E+02 E0= -.16981325E+02  d E =-.381131E-01  mag=     3.1842
