       N       E                     dE             d eps       ncg     rms          rms(c)
DAV:   1     0.146459692785E+03    0.14646E+03   -0.10040E+04  4352   0.256E+03
DAV:   2    -0.507599591993E+01   -0.15154E+03   -0.13382E+03  3960   0.297E+02
DAV:   3    -0.197097912526E+02   -0.14634E+02   -0.14056E+02  4080   0.983E+01
DAV:   4    -0.204756070541E+02   -0.76582E+00   -0.74687E+00  5696   0.201E+01
DAV:   5    -0.204961362287E+02   -0.20529E-01   -0.20490E-01  4728   0.247E+00    0.184E+01
DAV:   6    -0.256011137121E+02   -0.51050E+01   -0.99019E+01  5316   0.107E+02    0.271E+01
DAV:   7    -0.209655398636E+02    0.46356E+01   -0.19656E+01  4536   0.800E+01    0.989E+00
DAV:   8    -0.209446417751E+02    0.20898E-01   -0.12834E+00  5084   0.101E+01    0.463E+00
DAV:   9    -0.209119511338E+02    0.32691E-01   -0.16839E+00  5408   0.115E+01    0.253E+00
DAV:  10    -0.208601776573E+02    0.51773E-01   -0.22700E-01  4956   0.429E+00    0.916E-01
DAV:  11    -0.208570320672E+02    0.31456E-02   -0.14262E-02  5120   0.124E+00    0.758E-01
DAV:  12    -0.208560983534E+02    0.93371E-03   -0.25925E-02  5276   0.155E+00    0.351E-01
DAV:  13    -0.208564780056E+02   -0.37965E-03   -0.18257E-03  4740   0.295E-01    0.178E-01
DAV:  14    -0.208566235652E+02   -0.14556E-03   -0.12667E-03  5296   0.359E-01    0.729E-02
DAV:  15    -0.208565820914E+02    0.41474E-04   -0.18885E-04  5016   0.116E-01    0.334E-02
DAV:  16    -0.208566003133E+02   -0.18222E-04   -0.14290E-05  5172   0.329E-02    0.101E-02
DAV:  17    -0.208566004233E+02   -0.10999E-06   -0.18506E-06  5956   0.916E-03    0.412E-03
DAV:  18    -0.208565998137E+02    0.60961E-06   -0.28750E-07  4180   0.349E-03    0.315E-03
DAV:  19    -0.208565983578E+02    0.14559E-05   -0.12289E-07  2372   0.389E-03    0.109E-03
DAV:  20    -0.208565994174E+02   -0.10595E-05   -0.44196E-08  2044   0.243E-03    0.381E-04
DAV:  21    -0.208565991667E+02    0.25065E-06   -0.21115E-08  1928   0.137E-03    0.255E-04
DAV:  22    -0.208565990121E+02    0.15461E-06   -0.11568E-08  1928   0.100E-03    0.147E-04
DAV:  23    -0.208565988363E+02    0.17584E-06   -0.59827E-09  1916   0.809E-04    0.109E-04
DAV:  24    -0.208565988986E+02   -0.62338E-07   -0.31498E-09  1904   0.511E-04
   1 F= -.20856599E+02 E0= -.20856599E+02  d E =0.000000E+00  mag=     6.9960
