       N       E                     dE             d eps       ncg     rms          rms(c)
DAV:   1     0.141300796618E+03    0.14130E+03   -0.87304E+03  6740   0.204E+03
DAV:   2    -0.636556973605E+00   -0.14194E+03   -0.12663E+03  6308   0.255E+02
DAV:   3    -0.151819903262E+02   -0.14545E+02   -0.14086E+02  6780   0.887E+01
DAV:   4    -0.159978176107E+02   -0.81583E+00   -0.80241E+00  9364   0.190E+01
DAV:   5    -0.160330377969E+02   -0.35220E-01   -0.35078E-01  8512   0.324E+00    0.133E+01
DAV:   6    -0.202953747993E+02   -0.42623E+01   -0.47835E+01  8376   0.686E+01    0.180E+01
DAV:   7    -0.191126275626E+02    0.11827E+01   -0.29441E+00  6980   0.384E+01    0.667E+00
DAV:   8    -0.187671139087E+02    0.34551E+00   -0.14178E+00  9824   0.144E+01    0.258E+00
DAV:   9    -0.188396988028E+02   -0.72585E-01   -0.15003E+00  7712   0.103E+01    0.359E+00
DAV:  10    -0.187464808557E+02    0.93218E-01   -0.80676E-01  7464   0.726E+00    0.105E+00
DAV:  11    -0.187626679463E+02   -0.16187E-01   -0.24175E-02  8952   0.121E+00    0.570E-01
DAV:  12    -0.187609504176E+02    0.17175E-02   -0.52710E-03  8904   0.685E-01    0.546E-01
DAV:  13    -0.187588685713E+02    0.20818E-02   -0.41882E-03  8660   0.542E-01    0.307E-01
DAV:  14    -0.187583074980E+02    0.56107E-03   -0.15767E-03  9216   0.330E-01    0.184E-01
DAV:  15    -0.187581007768E+02    0.20672E-03   -0.25331E-03  7736   0.422E-01    0.103E-02
DAV:  16    -0.187581132100E+02   -0.12433E-04   -0.11932E-04  8676   0.531E-02    0.113E-02
DAV:  17    -0.187581138150E+02   -0.60499E-06   -0.31211E-06  9008   0.901E-03    0.121E-02
DAV:  18    -0.187580943854E+02    0.19430E-04   -0.44861E-05  7340   0.556E-02    0.249E-02
DAV:  19    -0.187581019939E+02   -0.76085E-05   -0.78087E-06  8260   0.240E-02    0.129E-02
DAV:  20    -0.187581072858E+02   -0.52919E-05   -0.34730E-06  7368   0.151E-02    0.476E-03
DAV:  21    -0.187581095949E+02   -0.23091E-05   -0.84924E-07  6460   0.731E-03    0.180E-03
DAV:  22    -0.187581088438E+02    0.75108E-06   -0.74610E-08  3724   0.308E-03    0.977E-04
DAV:  23    -0.187581082287E+02    0.61509E-06   -0.58241E-08  3652   0.175E-03    0.328E-04
DAV:  24    -0.187581078784E+02    0.35036E-06   -0.20006E-08  3592   0.121E-03    0.265E-04
DAV:  25    -0.187581081346E+02   -0.25623E-06   -0.10311E-08  3276   0.112E-03    0.141E-04
DAV:  26    -0.187581081276E+02    0.70181E-08   -0.23145E-09  3228   0.409E-04
   1 F= -.18758108E+02 E0= -.18758108E+02  d E =0.000000E+00  mag=     6.9895
