       N       E                     dE             d eps       ncg     rms          rms(c)
DAV:   1     0.168419433830E+03    0.16842E+03   -0.11824E+04  8432   0.314E+03
DAV:   2    -0.105465396672E+01   -0.16947E+03   -0.14728E+03  7484   0.322E+02
DAV:   3    -0.195114913400E+02   -0.18457E+02   -0.17756E+02  7704   0.114E+02
DAV:   4    -0.204679806656E+02   -0.95649E+00   -0.92909E+00 10892   0.229E+01
DAV:   5    -0.204985268816E+02   -0.30546E-01   -0.30300E-01  9532   0.318E+00    0.185E+01
DAV:   6    -0.257351138430E+02   -0.52366E+01   -0.10097E+02 10288   0.109E+02    0.275E+01
DAV:   7    -0.209056892368E+02    0.48294E+01   -0.23813E+01  8708   0.832E+01    0.101E+01
DAV:   8    -0.209359760829E+02   -0.30287E-01   -0.13374E+00  9776   0.101E+01    0.486E+00
DAV:   9    -0.209216999790E+02    0.14276E-01   -0.16611E+00 10772   0.112E+01    0.268E+00
DAV:  10    -0.208641651960E+02    0.57535E-01   -0.22432E-01  9636   0.431E+00    0.975E-01
DAV:  11    -0.208601714299E+02    0.39938E-02   -0.14424E-02  9508   0.119E+00    0.802E-01
DAV:  12    -0.208599155553E+02    0.25587E-03   -0.25095E-02 10304   0.148E+00    0.364E-01
DAV:  13    -0.208602352035E+02   -0.31965E-03   -0.20644E-03  9644   0.296E-01    0.203E-01
DAV:  14    -0.208603372032E+02   -0.10200E-03   -0.15370E-03 10248   0.376E-01    0.829E-02
DAV:  15    -0.208602730180E+02    0.64185E-04   -0.20040E-04  9804   0.117E-01    0.435E-02
DAV:  16    -0.208602923718E+02   -0.19354E-04   -0.22746E-05 10228   0.399E-02    0.140E-02
DAV:  17    -0.208602937257E+02   -0.13540E-05   -0.29793E-06 11324   0.125E-02    0.520E-03
DAV:  18    -0.208602939429E+02   -0.21722E-06   -0.65285E-07  8744   0.582E-03    0.502E-03
DAV:  19    -0.208602924041E+02    0.15389E-05   -0.17831E-07  6668   0.466E-03    0.189E-03
DAV:  20    -0.208602937290E+02   -0.13250E-05   -0.82983E-08  4560   0.308E-03    0.441E-04
DAV:  21    -0.208602934918E+02    0.23720E-06   -0.34505E-08  3920   0.173E-03    0.286E-04
DAV:  22    -0.208602933851E+02    0.10678E-06   -0.13834E-08  3716   0.110E-03    0.243E-04
DAV:  23    -0.208602933007E+02    0.84396E-07   -0.63441E-09  3624   0.915E-04
   1 F= -.20860293E+02 E0= -.20860293E+02  d E =0.000000E+00  mag=     6.9930
