       N       E                     dE             d eps       ncg     rms          rms(c)
DAV:   1     0.267298693573E+03    0.26730E+03   -0.24146E+04 27792   0.265E+03
DAV:   2    -0.825584091345E+01   -0.27555E+03   -0.26425E+03 28116   0.487E+02
DAV:   3    -0.162011533506E+02   -0.79453E+01   -0.79289E+01 30132   0.888E+01
DAV:   4    -0.162717748952E+02   -0.70622E-01   -0.70619E-01 32316   0.801E+00
DAV:   5    -0.162730863347E+02   -0.13114E-02   -0.13114E-02 30192   0.103E+00    0.249E+01
DAV:   6    -0.164617308396E+02   -0.18864E+00   -0.74559E+00 27900   0.398E+01    0.687E+00
DAV:   7    -0.165139501230E+02   -0.52219E-01   -0.61873E-01 28116   0.989E+00    0.433E+00
DAV:   8    -0.165241535063E+02   -0.10203E-01   -0.15074E-02 31164   0.148E+00    0.137E+00
DAV:   9    -0.165159190138E+02    0.82345E-02   -0.50656E-03 29988   0.880E-01    0.347E-01
DAV:  10    -0.165156073088E+02    0.31171E-03   -0.21922E-03 28776   0.606E-01    0.429E-02
DAV:  11    -0.165156527487E+02   -0.45440E-04   -0.57893E-05 29592   0.721E-02    0.242E-02
DAV:  12    -0.165156507293E+02    0.20194E-05   -0.52585E-06 32220   0.263E-02    0.106E-02
DAV:  13    -0.165156517999E+02   -0.10706E-05   -0.19540E-06 29340   0.153E-02    0.213E-03
DAV:  14    -0.165156521178E+02   -0.31796E-06   -0.91070E-08 22716   0.290E-03    0.789E-04
DAV:  15    -0.165156521133E+02    0.45229E-08   -0.93986E-09 14940   0.112E-03
   1 F= -.16515652E+02 E0= -.16515652E+02  d E =0.000000E+00  mag=     4.4273
