=========================================
SLURM_JOB_ID = 63455419
SLURM_JOB_NODELIST = lnode46
SLURM_GPUS = 
SLURM_CPUS_ON_NODE = 8
SLURM_JOB_PARTITION = lenovo
SLURM_TASK_PID = 2565378
CUDA_VISIBLE_DEVICES = 
==========================================
 running on    8 total cores
 distrk:  each k-point on    8 cores,    1 groups
 distr:  one band on    4 cores,    2 groups
 using from now: INCAR     
 vasp.5.4.4.18Apr17-6-g9f103f2a35 (build Apr 28 2018 00:24:27) complex          
  
 POSCAR found type information on POSCAR  Co
 POSCAR found :  1 types and       2 ions
 scaLAPACK will be used

 ----------------------------------------------------------------------------- 
|                                                                             |
|  ADVICE TO THIS USER RUNNING 'VASP/VAMP'   (HEAR YOUR MASTER'S VOICE ...):  |
|                                                                             |
|      You have a (more or less) 'small supercell' and for smaller cells      |
|      it is recommended  to use the reciprocal-space projection scheme!      |
|      The real space optimization is not  efficient for small cells and it   |
|      is also less accurate ...                                              |
|      Therefore set LREAL=.FALSE. in the  INCAR file                         |
|                                                                             |
 ----------------------------------------------------------------------------- 

 LDA part: xc-table for Pade appr. of Perdew
 POSCAR, INCAR and KPOINTS ok, starting setup
 FFT: planning ...
 WAVECAR not read
 entering main loop
       N       E                     dE             d eps       ncg     rms          rms(c)
DAV:   1     0.100434888263E+03    0.10043E+03   -0.10746E+04  4304   0.227E+03
DAV:   2    -0.134284397642E+02   -0.11386E+03   -0.10652E+03  4256   0.307E+02
DAV:   3    -0.161922717098E+02   -0.27638E+01   -0.26644E+01  4706   0.706E+01
DAV:   4    -0.162278145275E+02   -0.35543E-01   -0.35552E-01  5932   0.628E+00
DAV:   5    -0.162283890906E+02   -0.57456E-03   -0.57653E-03  5070   0.736E-01    0.145E+01
DAV:   6    -0.142645053379E+02    0.19639E+01   -0.16535E+01  4460   0.845E+01    0.796E+00
DAV:   7    -0.139292209033E+02    0.33528E+00   -0.22949E+00  4676   0.302E+01    0.482E+00
DAV:   8    -0.140788046733E+02   -0.14958E+00   -0.15154E-01  5724   0.642E+00    0.217E+00
DAV:   9    -0.140358881003E+02    0.42917E-01   -0.34421E-02  6190   0.282E+00    0.237E+00
DAV:  10    -0.140256913587E+02    0.10197E-01   -0.95426E-04  6056   0.453E-01    0.266E+00
DAV:  11    -0.140703818900E+02   -0.44691E-01   -0.32478E-02  5266   0.305E+00    0.424E-01
DAV:  12    -0.140708279454E+02   -0.44606E-03   -0.97957E-04  6126   0.387E-01    0.154E-01
DAV:  13    -0.140706255539E+02    0.20239E-03   -0.16507E-04  5674   0.211E-01    0.867E-03
DAV:  14    -0.140706138138E+02    0.11740E-04   -0.62682E-06  4858   0.285E-02    0.811E-03
DAV:  15    -0.140706196926E+02   -0.58788E-05   -0.31766E-07  4734   0.733E-03    0.432E-03
DAV:  16    -0.140706273949E+02   -0.77023E-05   -0.17716E-07  3056   0.639E-03    0.500E-04
DAV:  17    -0.140706266819E+02    0.71298E-06   -0.10899E-08  2332   0.140E-03    0.364E-04
DAV:  18    -0.140706275760E+02   -0.89412E-06   -0.28750E-09  2284   0.805E-04    0.667E-05
DAV:  19    -0.140706275513E+02    0.24711E-07   -0.80421E-10  2206   0.303E-04
   1 F= -.14070628E+02 E0= -.14070628E+02  d E =0.000000E+00  mag=     3.1560
