 vasp.5.4.4.18Apr17-6-g9f103f2a35 (build Apr 28 2018 00:24:27) complex          
  
 executed on             LinuxIFC date 2021.03.31  16:16:27
 running on    8 total cores
 distrk:  each k-point on    8 cores,    1 groups
 distr:  one band on NCORES_PER_BAND=   4 cores,    2 groups


--------------------------------------------------------------------------------------------------------


 INCAR:
 POTCAR:    PAW_PBE Eu 23Dec2003                  
 POTCAR:    PAW_PBE O 08Apr2002                   
 POTCAR:    PAW_PBE Eu 23Dec2003                  
   VRHFIN =Eu : [core=Kr4d]                                                     
   LEXCH  = PE                                                                  
   EATOM  =  2619.8085 eV,  192.5505 Ry                                         
                                                                                
   TITEL  = PAW_PBE Eu 23Dec2003                                                
   LULTRA =        F    use ultrasoft PP ?                                      
   IUNSCR =        1    unscreen: 0-lin 1-nonlin 2-no                           
   RPACOR =    2.300    partial core radius                                     
   POMASS =  151.965; ZVAL   =   17.000    mass and valenz                      
   RCORE  =    2.800    outmost cutoff radius                                   
   RWIGS  =    2.800; RWIGS  =    1.482    wigner-seitz radius (au A)           
   ENMAX  =  249.668; ENMIN  =  187.251 eV                                      
   RCLOC  =    2.308    cutoff for local pot                                    
   LCOR   =        T    correct aug charges                                     
   LPAW   =        T    paw PP                                                  
   EAUG   =  549.628                                                            
   DEXC   =    0.000                                                            
   RMAX   =    2.870    core radius for proj-oper                               
   RAUG   =    1.300    factor for augmentation sphere                          
   RDEP   =    2.887    radius for radial grids                                 
   RDEPT  =    2.221    core radius for aug-charge                              
                                                                                
   Atomic configuration                                                         
   14 entries                                                                   
     n  l   j            E        occ.                                          
     1  0  0.50    -48354.7667   2.0000                                         
     2  0  0.50     -7939.6472   2.0000                                         
     2  1  1.50     -7072.6637   6.0000                                         
     3  0  0.50     -1747.1875   2.0000                                         
     3  1  1.50     -1477.5221   6.0000                                         
     3  2  2.50     -1117.4686  10.0000                                         
     4  0  0.50      -346.8682   2.0000                                         
     4  1  1.50      -258.1962   6.0000                                         
     4  2  2.50      -134.7724  10.0000                                         
     5  0  0.50       -44.6510   2.0000                                         
     6  0  0.50        -3.6227   2.0000                                         
     5  1  1.50       -23.7639   6.0000                                         
     5  2  2.50        -1.3130   0.0000                                         
     4  3  2.50        -2.7310   7.0000                                         
   Description                                                                  
     l       E           TYP  RCUT    TYP  RCUT                                 
     0    -44.6510453     23  2.400                                             
     0     -3.6226685     23  2.400                                             
     1    -23.7638687     23  2.400                                             
     1     27.2116520     23  2.400                                             
     2     -1.3129622     23  2.500                                             
     2     13.6058260     23  2.500                                             
     3     -2.7309948     23  2.800                                             
     3     -3.4014565     23  2.800                                             
  local pseudopotential read in
  partial core-charges read in
  partial kinetic energy density read in
  atomic valenz-charges read in
  non local Contribution for L=           0  read in
    real space projection operators read in
  non local Contribution for L=           0  read in
    real space projection operators read in
  non local Contribution for L=           1  read in
    real space projection operators read in
  non local Contribution for L=           1  read in
    real space projection operators read in
  non local Contribution for L=           2  read in
    real space projection operators read in
  non local Contribution for L=           2  read in
    real space projection operators read in
  non local Contribution for L=           3  read in
    real space projection operators read in
  non local Contribution for L=           3  read in
    real space projection operators read in
    PAW grid and wavefunctions read in
 
   number of l-projection  operators is LMAX  =           8
   number of lm-projection operators is LMMAX =          32
 
 POTCAR:    PAW_PBE O 08Apr2002                   
   VRHFIN =O: s2p4                                                              
   LEXCH  = PE                                                                  
   EATOM  =   432.3788 eV,   31.7789 Ry                                         
                                                                                
   TITEL  = PAW_PBE O 08Apr2002                                                 
   LULTRA =        F    use ultrasoft PP ?                                      
   IUNSCR =        1    unscreen: 0-lin 1-nonlin 2-no                           
   RPACOR =    1.200    partial core radius                                     
   POMASS =   16.000; ZVAL   =    6.000    mass and valenz                      
   RCORE  =    1.520    outmost cutoff radius                                   
   RWIGS  =    1.550; RWIGS  =    0.820    wigner-seitz radius (au A)           
   ENMAX  =  400.000; ENMIN  =  300.000 eV                                      
   ICORE  =        2    local potential                                         
   LCOR   =        T    correct aug charges                                     
   LPAW   =        T    paw PP                                                  
   EAUG   =  605.392                                                            
   DEXC   =    0.000                                                            
   RMAX   =    1.553    core radius for proj-oper                               
   RAUG   =    1.300    factor for augmentation sphere                          
   RDEP   =    1.550    radius for radial grids                                 
   RDEPT  =    1.329    core radius for aug-charge                              
                                                                                
   Atomic configuration                                                         
    4 entries                                                                   
     n  l   j            E        occ.                                          
     1  0  0.50      -514.6923   2.0000                                         
     2  0  0.50       -23.9615   2.0000                                         
     2  1  0.50        -9.0305   4.0000                                         
     3  2  1.50        -9.5241   0.0000                                         
   Description                                                                  
     l       E           TYP  RCUT    TYP  RCUT                                 
     0    -23.9615318     23  1.200                                             
     0     -9.5240782     23  1.200                                             
     1     -9.0304911     23  1.520                                             
     1      8.1634956     23  1.520                                             
     2     -9.5240782      7  1.500                                             
  local pseudopotential read in
  partial core-charges read in
  partial kinetic energy density read in
  kinetic energy density of atom read in
  atomic valenz-charges read in
  non local Contribution for L=           0  read in
    real space projection operators read in
  non local Contribution for L=           0  read in
    real space projection operators read in
  non local Contribution for L=           1  read in
    real space projection operators read in
  non local Contribution for L=           1  read in
    real space projection operators read in
    PAW grid and wavefunctions read in
 
   number of l-projection  operators is LMAX  =           4
   number of lm-projection operators is LMMAX =           8
 

 ----------------------------------------------------------------------------- 
|                                                                             |
|  ADVICE TO THIS USER RUNNING 'VASP/VAMP'   (HEAR YOUR MASTER'S VOICE ...):  |
|                                                                             |
|      You have a (more or less) 'small supercell' and for smaller cells      |
|      it is recommended  to use the reciprocal-space projection scheme!      |
|      The real space optimization is not  efficient for small cells and it   |
|      is also less accurate ...                                              |
|      Therefore set LREAL=.FALSE. in the  INCAR file                         |
|                                                                             |
 ----------------------------------------------------------------------------- 

 Optimization of the real space projectors (new method)

 maximal supplied QI-value         = 13.42
 optimisation between [QCUT,QGAM] = [ 11.67, 23.35] = [ 38.16,152.62] Ry 
 Optimized for a Real-space Cutoff    1.63 Angstroem

   l    n(q)    QCUT    max X(q) W(low)/X(q) W(high)/X(q)  e(spline) 
   0     11    11.673    10.400    0.14E-04    0.18E-05    0.24E-07
   0     11    11.673    10.768    0.21E-04    0.32E-05    0.49E-07
   1     11    11.673     4.094    0.40E-05    0.13E-04    0.93E-07
   1     11    11.673     4.009    0.11E-04    0.46E-04    0.33E-06
   2     10    11.673    29.030    0.79E-04    0.60E-04    0.70E-06
   2     10    11.673    19.941    0.80E-04    0.60E-04    0.71E-06
   3     10    11.673    88.889    0.23E-03    0.29E-03    0.30E-06
   3     10    11.673    76.102    0.23E-03    0.30E-03    0.30E-06
 Optimization of the real space projectors (new method)

 maximal supplied QI-value         = 24.76
 optimisation between [QCUT,QGAM] = [ 11.64, 23.27] = [ 37.91,151.63] Ry 
 Optimized for a Real-space Cutoff    1.14 Angstroem

   l    n(q)    QCUT    max X(q) W(low)/X(q) W(high)/X(q)  e(spline) 
   0      8    11.635    20.381    0.10E-03    0.33E-03    0.24E-06
   0      8    11.635    15.268    0.11E-03    0.35E-03    0.26E-06
   1      7    11.635     5.964    0.24E-03    0.31E-03    0.30E-06
   1      7    11.635     5.382    0.22E-03    0.25E-03    0.26E-06
  PAW_PBE Eu 23Dec2003                  :
 energy of atom  1       EATOM=-2619.8085
 kinetic energy error for atom=    0.0015 (will be added to EATOM!!)
  PAW_PBE O 08Apr2002                   :
 energy of atom  2       EATOM= -432.3788
 kinetic energy error for atom=    0.0208 (will be added to EATOM!!)
 
 
 POSCAR: Eu4 O4                                  
  positions in direct lattice
  velocities in cartesian coordinates
 exchange correlation table for  LEXCH =        8
   RHO(1)=    0.500       N(1)  =     2000
   RHO(2)=  100.500       N(2)  =     4000
 


--------------------------------------------------------------------------------------------------------


 ion  position               nearest neighbor table
   1  0.000  0.000  0.501-   8 2.54   8 2.54   8 2.54   8 2.54   5 2.55   7 2.55
   2  0.500  0.500  0.749-   5 2.54   5 2.54   5 2.54   5 2.54   8 2.55   6 2.55
   3  1.000  0.000  0.001-   6 2.54   6 2.54   6 2.54   6 2.54   7 2.55   5 2.55
   4  0.500  0.500  0.249-   7 2.54   7 2.54   7 2.54   7 2.54   6 2.55   8 2.55
   5  0.000  0.000  0.750-   2 2.54   2 2.54   2 2.54   2 2.54   1 2.55   3 2.55
   6  0.500  0.500  1.000-   3 2.54   3 2.54   3 2.54   3 2.54   4 2.55   2 2.55
   7  0.000  1.000  0.250-   4 2.54   4 2.54   4 2.54   4 2.54   3 2.55   1 2.55
   8  0.500  0.500  0.500-   1 2.54   1 2.54   1 2.54   1 2.54   2 2.55   4 2.55
 
  LATTYP: Found a triclinic cell.
 ALAT       =     3.5874926392
 B/A-ratio  =     1.4142274466
 C/A-ratio  =     4.0085212770
 COS(alpha) =     0.0000007808
 COS(beta)  =     0.4989202480
 COS(gamma) =     0.7071124494
  
  Lattice vectors:
  
 A1 = (   0.0000279949,   2.0712443089,  -2.9291723145)
 A2 = (   3.5875270962,   2.0712047523,  -2.9292443564)
 A3 = (  -7.1749959212,  -4.1779322291, -11.7415613550)


Analysis of symmetry for initial positions (statically):
=====================================================================
 Subroutine PRICEL returns:
 Original cell was already a primitive cell.
 

 Routine SETGRP: Setting up the symmetry group for a 
 triclinic supercell.


 Subroutine GETGRP returns: Found  2 space group operations
 (whereof  1 operations were pure point group operations)
 out of a pool of  2 trial point group operations.


The static configuration has the point symmetry C_1 .
 The point group associated with its full space group is S_2 .


Analysis of symmetry for dynamics (positions and initial velocities):
=====================================================================
 Subroutine PRICEL returns:
 Original cell was already a primitive cell.
 

 Routine SETGRP: Setting up the symmetry group for a 
 triclinic supercell.


 Subroutine GETGRP returns: Found  2 space group operations
 (whereof  1 operations were pure point group operations)
 out of a pool of  2 trial point group operations.


The dynamic configuration has the point symmetry C_1 .
 The point group associated with its full space group is S_2 .


Analysis of structural, dynamic, and magnetic symmetry:
=====================================================================
 Subroutine PRICEL returns:
 Original cell was already a primitive cell.
 

 Routine SETGRP: Setting up the symmetry group for a 
 triclinic supercell.


 Subroutine GETGRP returns: Found  2 space group operations
 (whereof  1 operations were pure point group operations)
 out of a pool of  2 trial point group operations.


The magnetic configuration has the point symmetry C_1 .
 The point group associated with its full space group is S_2 .


 Subroutine INISYM returns: Found  2 space group operations
 (whereof  1 operations are pure point group operations),
 and found     1 'primitive' translations

 
 
 KPOINTS: pymatgen v2019.10.16 with grid density =

Automatic generation of k-mesh.
Space group operators:
 irot       det(A)        alpha          n_x          n_y          n_z        tau_x        tau_y        tau_z
    1     1.000000     0.000000     1.000000     0.000000     0.000000     0.000000     0.000000     0.000000
    2    -1.000000     0.000000     1.000000     0.000000     0.000000    -1.500000    -1.500000    -0.750000
 
 Subroutine IBZKPT returns following result:
 ===========================================
 
 Found    243 irreducible k-points:
 
 Following reciprocal coordinates:
            Coordinates               Weight
  0.000000  0.000000  0.000000      1.000000
  0.090909  0.000000 -0.000000      2.000000
  0.181818  0.000000 -0.000000      2.000000
  0.272727  0.000000  0.000000      2.000000
  0.363636  0.000000 -0.000000      2.000000
  0.454545  0.000000 -0.000000      2.000000
  0.000000  0.090909 -0.000000      2.000000
  0.090909  0.090909 -0.000000      2.000000
  0.181818  0.090909 -0.000000      2.000000
  0.272727  0.090909  0.000000      2.000000
  0.363636  0.090909 -0.000000      2.000000
  0.454545  0.090909  0.000000      2.000000
 -0.454545  0.090909  0.000000      2.000000
 -0.363636  0.090909  0.000000      2.000000
 -0.272727  0.090909  0.000000      2.000000
 -0.181818  0.090909  0.000000      2.000000
 -0.090909  0.090909  0.000000      2.000000
  0.000000  0.181818 -0.000000      2.000000
  0.090909  0.181818 -0.000000      2.000000
  0.181818  0.181818 -0.000000      2.000000
  0.272727  0.181818  0.000000      2.000000
  0.363636  0.181818 -0.000000      2.000000
  0.454545  0.181818 -0.000000      2.000000
 -0.454545  0.181818  0.000000      2.000000
 -0.363636  0.181818  0.000000      2.000000
 -0.272727  0.181818  0.000000      2.000000
 -0.181818  0.181818  0.000000      2.000000
 -0.090909  0.181818  0.000000      2.000000
  0.000000  0.272727 -0.000000      2.000000
  0.090909  0.272727 -0.000000      2.000000
  0.181818  0.272727 -0.000000      2.000000
  0.272727  0.272727 -0.000000      2.000000
  0.363636  0.272727 -0.000000      2.000000
  0.454545  0.272727 -0.000000      2.000000
 -0.454545  0.272727  0.000000      2.000000
 -0.363636  0.272727  0.000000      2.000000
 -0.272727  0.272727 -0.000000      2.000000
 -0.181818  0.272727  0.000000      2.000000
 -0.090909  0.272727  0.000000      2.000000
  0.000000  0.363636 -0.000000      2.000000
  0.090909  0.363636 -0.000000      2.000000
  0.181818  0.363636 -0.000000      2.000000
  0.272727  0.363636  0.000000      2.000000
  0.363636  0.363636 -0.000000      2.000000
  0.454545  0.363636 -0.000000      2.000000
 -0.454545  0.363636  0.000000      2.000000
 -0.363636  0.363636  0.000000      2.000000
 -0.272727  0.363636  0.000000      2.000000
 -0.181818  0.363636  0.000000      2.000000
 -0.090909  0.363636  0.000000      2.000000
  0.000000  0.454545 -0.000000      2.000000
  0.090909  0.454545 -0.000000      2.000000
  0.181818  0.454545 -0.000000      2.000000
  0.272727  0.454545  0.000000      2.000000
  0.363636  0.454545 -0.000000      2.000000
  0.454545  0.454545 -0.000000      2.000000
 -0.454545  0.454545  0.000000      2.000000
 -0.363636  0.454545  0.000000      2.000000
 -0.272727  0.454545  0.000000      2.000000
 -0.181818  0.454545  0.000000      2.000000
 -0.090909  0.454545  0.000000      2.000000
 -0.000000  0.000000  0.250000      2.000000
  0.090909  0.000000  0.250000      2.000000
  0.181818  0.000000  0.250000      2.000000
  0.272727  0.000000  0.250000      2.000000
  0.363636  0.000000  0.250000      2.000000
  0.454545  0.000000  0.250000      2.000000
 -0.454545 -0.000000  0.250000      2.000000
 -0.363636 -0.000000  0.250000      2.000000
 -0.272727 -0.000000  0.250000      2.000000
 -0.181818 -0.000000  0.250000      2.000000
 -0.090909 -0.000000  0.250000      2.000000
 -0.000000  0.090909  0.250000      2.000000
  0.090909  0.090909  0.250000      2.000000
  0.181818  0.090909  0.250000      2.000000
  0.272727  0.090909  0.250000      2.000000
  0.363636  0.090909  0.250000      2.000000
  0.454545  0.090909  0.250000      2.000000
 -0.454545  0.090909  0.250000      2.000000
 -0.363636  0.090909  0.250000      2.000000
 -0.272727  0.090909  0.250000      2.000000
 -0.181818  0.090909  0.250000      2.000000
 -0.090909  0.090909  0.250000      2.000000
 -0.000000  0.181818  0.250000      2.000000
  0.090909  0.181818  0.250000      2.000000
  0.181818  0.181818  0.250000      2.000000
  0.272727  0.181818  0.250000      2.000000
  0.363636  0.181818  0.250000      2.000000
  0.454545  0.181818  0.250000      2.000000
 -0.454545  0.181818  0.250000      2.000000
 -0.363636  0.181818  0.250000      2.000000
 -0.272727  0.181818  0.250000      2.000000
 -0.181818  0.181818  0.250000      2.000000
 -0.090909  0.181818  0.250000      2.000000
  0.000000  0.272727  0.250000      2.000000
  0.090909  0.272727  0.250000      2.000000
  0.181818  0.272727  0.250000      2.000000
  0.272727  0.272727  0.250000      2.000000
  0.363636  0.272727  0.250000      2.000000
  0.454545  0.272727  0.250000      2.000000
 -0.454545  0.272727  0.250000      2.000000
 -0.363636  0.272727  0.250000      2.000000
 -0.272727  0.272727  0.250000      2.000000
 -0.181818  0.272727  0.250000      2.000000
 -0.090909  0.272727  0.250000      2.000000
 -0.000000  0.363636  0.250000      2.000000
  0.090909  0.363636  0.250000      2.000000
  0.181818  0.363636  0.250000      2.000000
  0.272727  0.363636  0.250000      2.000000
  0.363636  0.363636  0.250000      2.000000
  0.454545  0.363636  0.250000      2.000000
 -0.454545  0.363636  0.250000      2.000000
 -0.363636  0.363636  0.250000      2.000000
 -0.272727  0.363636  0.250000      2.000000
 -0.181818  0.363636  0.250000      2.000000
 -0.090909  0.363636  0.250000      2.000000
  0.000000  0.454545  0.250000      2.000000
  0.090909  0.454545  0.250000      2.000000
  0.181818  0.454545  0.250000      2.000000
  0.272727  0.454545  0.250000      2.000000
  0.363636  0.454545  0.250000      2.000000
  0.454545  0.454545  0.250000      2.000000
 -0.454545  0.454545  0.250000      2.000000
 -0.363636  0.454545  0.250000      2.000000
 -0.272727  0.454545  0.250000      2.000000
 -0.181818  0.454545  0.250000      2.000000
 -0.090909  0.454545  0.250000      2.000000
 -0.000000 -0.454545  0.250000      2.000000
  0.090909 -0.454545  0.250000      2.000000
  0.181818 -0.454545  0.250000      2.000000
  0.272727 -0.454545  0.250000      2.000000
  0.363636 -0.454545  0.250000      2.000000
  0.454545 -0.454545  0.250000      2.000000
 -0.454545 -0.454545  0.250000      2.000000
 -0.363636 -0.454545  0.250000      2.000000
 -0.272727 -0.454545  0.250000      2.000000
 -0.181818 -0.454545  0.250000      2.000000
 -0.090909 -0.454545  0.250000      2.000000
  0.000000 -0.363636  0.250000      2.000000
  0.090909 -0.363636  0.250000      2.000000
  0.181818 -0.363636  0.250000      2.000000
  0.272727 -0.363636  0.250000      2.000000
  0.363636 -0.363636  0.250000      2.000000
  0.454545 -0.363636  0.250000      2.000000
 -0.454545 -0.363636  0.250000      2.000000
 -0.363636 -0.363636  0.250000      2.000000
 -0.272727 -0.363636  0.250000      2.000000
 -0.181818 -0.363636  0.250000      2.000000
 -0.090909 -0.363636  0.250000      2.000000
 -0.000000 -0.272727  0.250000      2.000000
  0.090909 -0.272727  0.250000      2.000000
  0.181818 -0.272727  0.250000      2.000000
  0.272727 -0.272727  0.250000      2.000000
  0.363636 -0.272727  0.250000      2.000000
  0.454545 -0.272727  0.250000      2.000000
 -0.454545 -0.272727  0.250000      2.000000
 -0.363636 -0.272727  0.250000      2.000000
 -0.272727 -0.272727  0.250000      2.000000
 -0.181818 -0.272727  0.250000      2.000000
 -0.090909 -0.272727  0.250000      2.000000
 -0.000000 -0.181818  0.250000      2.000000
  0.090909 -0.181818  0.250000      2.000000
  0.181818 -0.181818  0.250000      2.000000
  0.272727 -0.181818  0.250000      2.000000
  0.363636 -0.181818  0.250000      2.000000
  0.454545 -0.181818  0.250000      2.000000
 -0.454545 -0.181818  0.250000      2.000000
 -0.363636 -0.181818  0.250000      2.000000
 -0.272727 -0.181818  0.250000      2.000000
 -0.181818 -0.181818  0.250000      2.000000
 -0.090909 -0.181818  0.250000      2.000000
  0.000000 -0.090909  0.250000      2.000000
  0.090909 -0.090909  0.250000      2.000000
  0.181818 -0.090909  0.250000      2.000000
  0.272727 -0.090909  0.250000      2.000000
  0.363636 -0.090909  0.250000      2.000000
  0.454545 -0.090909  0.250000      2.000000
 -0.454545 -0.090909  0.250000      2.000000
 -0.363636 -0.090909  0.250000      2.000000
 -0.272727 -0.090909  0.250000      2.000000
 -0.181818 -0.090909  0.250000      2.000000
 -0.090909 -0.090909  0.250000      2.000000
 -0.000000  0.000000  0.500000      1.000000
  0.090909  0.000000  0.500000      2.000000
  0.181818  0.000000  0.500000      2.000000
  0.272727  0.000000  0.500000      2.000000
  0.363636  0.000000  0.500000      2.000000
  0.454545  0.000000  0.500000      2.000000
  0.000000  0.090909  0.500000      2.000000
  0.090909  0.090909  0.500000      2.000000
  0.181818  0.090909  0.500000      2.000000
  0.272727  0.090909  0.500000      2.000000
  0.363636  0.090909  0.500000      2.000000
  0.454545  0.090909  0.500000      2.000000
 -0.454545  0.090909  0.500000      2.000000
 -0.363636  0.090909  0.500000      2.000000
 -0.272727  0.090909  0.500000      2.000000
 -0.181818  0.090909  0.500000      2.000000
 -0.090909  0.090909  0.500000      2.000000
 -0.000000  0.181818  0.500000      2.000000
  0.090909  0.181818  0.500000      2.000000
  0.181818  0.181818  0.500000      2.000000
  0.272727  0.181818  0.500000      2.000000
  0.363636  0.181818  0.500000      2.000000
  0.454545  0.181818  0.500000      2.000000
 -0.454545  0.181818  0.500000      2.000000
 -0.363636  0.181818  0.500000      2.000000
 -0.272727  0.181818  0.500000      2.000000
 -0.181818  0.181818  0.500000      2.000000
 -0.090909  0.181818  0.500000      2.000000
  0.000000  0.272727  0.500000      2.000000
  0.090909  0.272727  0.500000      2.000000
  0.181818  0.272727  0.500000      2.000000
  0.272727  0.272727  0.500000      2.000000
  0.363636  0.272727  0.500000      2.000000
  0.454545  0.272727  0.500000      2.000000
 -0.454545  0.272727  0.500000      2.000000
 -0.363636  0.272727  0.500000      2.000000
 -0.272727  0.272727  0.500000      2.000000
 -0.181818  0.272727  0.500000      2.000000
 -0.090909  0.272727  0.500000      2.000000
 -0.000000  0.363636  0.500000      2.000000
  0.090909  0.363636  0.500000      2.000000
  0.181818  0.363636  0.500000      2.000000
  0.272727  0.363636  0.500000      2.000000
  0.363636  0.363636  0.500000      2.000000
  0.454545  0.363636  0.500000      2.000000
 -0.454545  0.363636  0.500000      2.000000
 -0.363636  0.363636  0.500000      2.000000
 -0.272727  0.363636  0.500000      2.000000
 -0.181818  0.363636  0.500000      2.000000
 -0.090909  0.363636  0.500000      2.000000
 -0.000000  0.454545  0.500000      2.000000
  0.090909  0.454545  0.500000      2.000000
  0.181818  0.454545  0.500000      2.000000
  0.272727  0.454545  0.500000      2.000000
  0.363636  0.454545  0.500000      2.000000
  0.454545  0.454545  0.500000      2.000000
 -0.454545  0.454545  0.500000      2.000000
 -0.363636  0.454545  0.500000      2.000000
 -0.272727  0.454545  0.500000      2.000000
 -0.181818  0.454545  0.500000      2.000000
 -0.090909  0.454545  0.500000      2.000000
 
 Following cartesian coordinates:
            Coordinates               Weight
  0.000000  0.000000  0.000000      1.000000
  0.000000 -0.014630  0.020691      2.000000
  0.000001 -0.029260  0.041381      2.000000
  0.000001 -0.043891  0.062072      2.000000
  0.000001 -0.058521  0.082763      2.000000
  0.000001 -0.073151  0.103453      2.000000
  0.025341 -0.000000  0.000000      2.000000
  0.025341 -0.014630  0.020691      2.000000
  0.025341 -0.029261  0.041381      2.000000
  0.025341 -0.043891  0.062072      2.000000
  0.025342 -0.058521  0.082763      2.000000
  0.025342 -0.073151  0.103453      2.000000
  0.025339  0.073151 -0.103453      2.000000
  0.025340  0.058521 -0.082762      2.000000
  0.025340  0.043890 -0.062072      2.000000
  0.025340  0.029260 -0.041381      2.000000
  0.025340  0.014630 -0.020691      2.000000
  0.050681 -0.000000  0.000000      2.000000
  0.050681 -0.014631  0.020691      2.000000
  0.050682 -0.029261  0.041381      2.000000
  0.050682 -0.043891  0.062072      2.000000
  0.050682 -0.058521  0.082763      2.000000
  0.050682 -0.073151  0.103453      2.000000
  0.050680  0.073150 -0.103453      2.000000
  0.050680  0.058520 -0.082762      2.000000
  0.050680  0.043890 -0.062072      2.000000
  0.050681  0.029260 -0.041381      2.000000
  0.050681  0.014630 -0.020690      2.000000
  0.076022 -0.000001  0.000000      2.000000
  0.076022 -0.014631  0.020691      2.000000
  0.076022 -0.029261  0.041382      2.000000
  0.076022 -0.043891  0.062072      2.000000
  0.076023 -0.058521  0.082763      2.000000
  0.076023 -0.073152  0.103453      2.000000
  0.076020  0.073150 -0.103453      2.000000
  0.076021  0.058520 -0.082762      2.000000
  0.076021  0.043890 -0.062072      2.000000
  0.076021  0.029260 -0.041381      2.000000
  0.076021  0.014630 -0.020690      2.000000
  0.101362 -0.000001  0.000000      2.000000
  0.101362 -0.014631  0.020691      2.000000
  0.101363 -0.029261  0.041382      2.000000
  0.101363 -0.043891  0.062072      2.000000
  0.101363 -0.058522  0.082763      2.000000
  0.101363 -0.073152  0.103453      2.000000
  0.101361  0.073150 -0.103453      2.000000
  0.101361  0.058520 -0.082762      2.000000
  0.101361  0.043890 -0.062072      2.000000
  0.101362  0.029259 -0.041381      2.000000
  0.101362  0.014629 -0.020690      2.000000
  0.126703 -0.000001  0.000000      2.000000
  0.126703 -0.014631  0.020691      2.000000
  0.126703 -0.029261  0.041382      2.000000
  0.126703 -0.043892  0.062072      2.000000
  0.126704 -0.058522  0.082763      2.000000
  0.126704 -0.073152  0.103454      2.000000
  0.126701  0.073150 -0.103453      2.000000
  0.126702  0.058520 -0.082762      2.000000
  0.126702  0.043889 -0.062071      2.000000
  0.126702  0.029259 -0.041381      2.000000
  0.126702  0.014629 -0.020690      2.000000
  0.000001  0.020031  0.014164      2.000000
  0.000001  0.005401  0.034855      2.000000
  0.000001 -0.009229  0.055545      2.000000
  0.000001 -0.023860  0.076236      2.000000
  0.000002 -0.038490  0.096927      2.000000
  0.000002 -0.053120  0.117617      2.000000
 -0.000001  0.093182 -0.089289      2.000000
 -0.000001  0.078552 -0.068598      2.000000
 -0.000000  0.063922 -0.047908      2.000000
 -0.000000  0.049291 -0.027217      2.000000
  0.000000  0.034661 -0.006527      2.000000
  0.025341  0.020031  0.014164      2.000000
  0.025341  0.005401  0.034855      2.000000
  0.025342 -0.009230  0.055545      2.000000
  0.025342 -0.023860  0.076236      2.000000
  0.025342 -0.038490  0.096927      2.000000
  0.025342 -0.053120  0.117617      2.000000
  0.025340  0.093182 -0.089289      2.000000
  0.025340  0.078551 -0.068598      2.000000
  0.025340  0.063921 -0.047908      2.000000
  0.025341  0.049291 -0.027217      2.000000
  0.025341  0.034661 -0.006526      2.000000
  0.050682  0.020031  0.014164      2.000000
  0.050682  0.005400  0.034855      2.000000
  0.050682 -0.009230  0.055545      2.000000
  0.050682 -0.023860  0.076236      2.000000
  0.050683 -0.038490  0.096927      2.000000
  0.050683 -0.053120  0.117617      2.000000
  0.050680  0.093181 -0.089289      2.000000
  0.050681  0.078551 -0.068598      2.000000
  0.050681  0.063921 -0.047908      2.000000
  0.050681  0.049291 -0.027217      2.000000
  0.050681  0.034661 -0.006526      2.000000
  0.076022  0.020030  0.014164      2.000000
  0.076022  0.005400  0.034855      2.000000
  0.076023 -0.009230  0.055546      2.000000
  0.076023 -0.023860  0.076236      2.000000
  0.076023 -0.038490  0.096927      2.000000
  0.076023 -0.053121  0.117617      2.000000
  0.076021  0.093181 -0.089289      2.000000
  0.076021  0.078551 -0.068598      2.000000
  0.076021  0.063921 -0.047908      2.000000
  0.076022  0.049291 -0.027217      2.000000
  0.076022  0.034660 -0.006526      2.000000
  0.101363  0.020030  0.014164      2.000000
  0.101363  0.005400  0.034855      2.000000
  0.101363 -0.009230  0.055546      2.000000
  0.101363 -0.023860  0.076236      2.000000
  0.101364 -0.038491  0.096927      2.000000
  0.101364 -0.053121  0.117618      2.000000
  0.101361  0.093181 -0.089289      2.000000
  0.101362  0.078551 -0.068598      2.000000
  0.101362  0.063921 -0.047907      2.000000
  0.101362  0.049290 -0.027217      2.000000
  0.101362  0.034660 -0.006526      2.000000
  0.126703  0.020030  0.014164      2.000000
  0.126703  0.005400  0.034855      2.000000
  0.126704 -0.009231  0.055546      2.000000
  0.126704 -0.023861  0.076236      2.000000
  0.126704 -0.038491  0.096927      2.000000
  0.126704 -0.053121  0.117618      2.000000
  0.126702  0.093181 -0.089289      2.000000
  0.126702  0.078551 -0.068598      2.000000
  0.126702  0.063920 -0.047907      2.000000
  0.126703  0.049290 -0.027217      2.000000
  0.126703  0.034660 -0.006526      2.000000
 -0.126702  0.020032  0.014164      2.000000
 -0.126702  0.005402  0.034854      2.000000
 -0.126702 -0.009228  0.055545      2.000000
 -0.126701 -0.023858  0.076236      2.000000
 -0.126701 -0.038489  0.096926      2.000000
 -0.126701 -0.053119  0.117617      2.000000
 -0.126703  0.093183 -0.089289      2.000000
 -0.126703  0.078553 -0.068599      2.000000
 -0.126703  0.063923 -0.047908      2.000000
 -0.126703  0.049292 -0.027218      2.000000
 -0.126702  0.034662 -0.006527      2.000000
 -0.101362  0.020032  0.014164      2.000000
 -0.101361  0.005402  0.034854      2.000000
 -0.101361 -0.009229  0.055545      2.000000
 -0.101361 -0.023859  0.076236      2.000000
 -0.101361 -0.038489  0.096926      2.000000
 -0.101360 -0.053119  0.117617      2.000000
 -0.101363  0.093183 -0.089289      2.000000
 -0.101363  0.078553 -0.068599      2.000000
 -0.101362  0.063922 -0.047908      2.000000
 -0.101362  0.049292 -0.027218      2.000000
 -0.101362  0.034662 -0.006527      2.000000
 -0.076021  0.020032  0.014164      2.000000
 -0.076021  0.005401  0.034854      2.000000
 -0.076021 -0.009229  0.055545      2.000000
 -0.076020 -0.023859  0.076236      2.000000
 -0.076020 -0.038489  0.096926      2.000000
 -0.076020 -0.053119  0.117617      2.000000
 -0.076022  0.093183 -0.089289      2.000000
 -0.076022  0.078552 -0.068599      2.000000
 -0.076022  0.063922 -0.047908      2.000000
 -0.076022  0.049292 -0.027217      2.000000
 -0.076021  0.034662 -0.006527      2.000000
 -0.050681  0.020031  0.014164      2.000000
 -0.050680  0.005401  0.034855      2.000000
 -0.050680 -0.009229  0.055545      2.000000
 -0.050680 -0.023859  0.076236      2.000000
 -0.050680 -0.038489  0.096926      2.000000
 -0.050679 -0.053119  0.117617      2.000000
 -0.050682  0.093182 -0.089289      2.000000
 -0.050682  0.078552 -0.068599      2.000000
 -0.050681  0.063922 -0.047908      2.000000
 -0.050681  0.049292 -0.027217      2.000000
 -0.050681  0.034662 -0.006527      2.000000
 -0.025340  0.020031  0.014164      2.000000
 -0.025340  0.005401  0.034855      2.000000
 -0.025340 -0.009229  0.055545      2.000000
 -0.025339 -0.023859  0.076236      2.000000
 -0.025339 -0.038490  0.096926      2.000000
 -0.025339 -0.053120  0.117617      2.000000
 -0.025341  0.093182 -0.089289      2.000000
 -0.025341  0.078552 -0.068599      2.000000
 -0.025341  0.063922 -0.047908      2.000000
 -0.025341  0.049292 -0.027217      2.000000
 -0.025340  0.034661 -0.006527      2.000000
  0.000001  0.040062  0.028328      1.000000
  0.000001  0.025432  0.049019      2.000000
  0.000002  0.010802  0.069709      2.000000
  0.000002 -0.003829  0.090400      2.000000
  0.000002 -0.018459  0.111091      2.000000
  0.000002 -0.033089  0.131781      2.000000
  0.025342  0.040062  0.028328      2.000000
  0.025342  0.025432  0.049019      2.000000
  0.025342  0.010801  0.069709      2.000000
  0.025342 -0.003829  0.090400      2.000000
  0.025343 -0.018459  0.111091      2.000000
  0.025343 -0.033089  0.131781      2.000000
  0.025340  0.113213 -0.075125      2.000000
  0.025341  0.098582 -0.054434      2.000000
  0.025341  0.083952 -0.033744      2.000000
  0.025341  0.069322 -0.013053      2.000000
  0.025341  0.054692  0.007638      2.000000
  0.050682  0.040061  0.028328      2.000000
  0.050682  0.025431  0.049019      2.000000
  0.050683  0.010801  0.069710      2.000000
  0.050683 -0.003829  0.090400      2.000000
  0.050683 -0.018459  0.111091      2.000000
  0.050683 -0.033089  0.131781      2.000000
  0.050681  0.113212 -0.075125      2.000000
  0.050681  0.098582 -0.054434      2.000000
  0.050681  0.083952 -0.033744      2.000000
  0.050682  0.069322 -0.013053      2.000000
  0.050682  0.054692  0.007638      2.000000
  0.076023  0.040061  0.028328      2.000000
  0.076023  0.025431  0.049019      2.000000
  0.076023  0.010801  0.069710      2.000000
  0.076023 -0.003829  0.090400      2.000000
  0.076024 -0.018459  0.111091      2.000000
  0.076024 -0.033090  0.131782      2.000000
  0.076021  0.113212 -0.075125      2.000000
  0.076022  0.098582 -0.054434      2.000000
  0.076022  0.083952 -0.033743      2.000000
  0.076022  0.069322 -0.013053      2.000000
  0.076022  0.054691  0.007638      2.000000
  0.101363  0.040061  0.028328      2.000000
  0.101363  0.025431  0.049019      2.000000
  0.101364  0.010801  0.069710      2.000000
  0.101364 -0.003830  0.090400      2.000000
  0.101364 -0.018460  0.111091      2.000000
  0.101364 -0.033090  0.131782      2.000000
  0.101362  0.113212 -0.075125      2.000000
  0.101362  0.098582 -0.054434      2.000000
  0.101362  0.083952 -0.033743      2.000000
  0.101363  0.069321 -0.013053      2.000000
  0.101363  0.054691  0.007638      2.000000
  0.126704  0.040061  0.028329      2.000000
  0.126704  0.025431  0.049019      2.000000
  0.126704  0.010800  0.069710      2.000000
  0.126704 -0.003830  0.090400      2.000000
  0.126705 -0.018460  0.111091      2.000000
  0.126705 -0.033090  0.131782      2.000000
  0.126702  0.113212 -0.075125      2.000000
  0.126703  0.098582 -0.054434      2.000000
  0.126703  0.083951 -0.033743      2.000000
  0.126703  0.069321 -0.013053      2.000000
  0.126703  0.054691  0.007638      2.000000
 
 TETIRR: Found   1450 inequivalent tetrahedra from     2904


--------------------------------------------------------------------------------------------------------




 Dimension of arrays:
   k-points           NKPTS =    243   k-points in BZ     NKDIM =    243   number of bands    NBANDS=     56
   number of dos      NEDOS =    301   number of ions     NIONS =      8
   non local maximal  LDIM  =      8   non local SUM 2l+1 LMDIM =     32
   total plane-waves  NPLWV =  62720
   max r-space proj   IRMAX =   8681   max aug-charges    IRDMAX=  27536
   dimension x,y,z NGX =    28 NGY =   28 NGZ =   80
   dimension x,y,z NGXF=    56 NGYF=   56 NGZF=  160
   support grid    NGXF=    56 NGYF=   56 NGZF=  160
   ions per type =               4   4
   NGX,Y,Z   is equivalent  to a cutoff of  12.98, 12.98, 13.05 a.u.
   NGXF,Y,Z  is equivalent  to a cutoff of  25.95, 25.95, 26.10 a.u.

 SYSTEM =  unknown system                          
 POSCAR =  Eu4 O4                                  

 Startparameter for this run:
   NWRITE =      2    write-flag & timer
   PREC   = accura    normal or accurate (medium, high low for compatibility)
   ISTART =      0    job   : 0-new  1-cont  2-samecut
   ICHARG =      2    charge: 1-file 2-atom 10-const
   ISPIN  =      2    spin polarized calculation?
   LNONCOLLINEAR =      F non collinear calculations
   LSORBIT =      F    spin-orbit coupling
   INIWAV =      1    electr: 0-lowe 1-rand  2-diag
   LASPH  =      T    aspherical Exc in radial PAW
   METAGGA=      F    non-selfconsistent MetaGGA calc.

 Electronic Relaxation 1
   ENCUT  =  520.0 eV  38.22 Ry    6.18 a.u.   6.67  6.67 18.95*2*pi/ulx,y,z
   ENINI  =  520.0     initial cutoff
   ENAUG  =  605.4 eV  augmentation charge cutoff
   NELM   =    120;   NELMIN=  2; NELMDL=  0     # of ELM steps 
   EDIFF  = 0.1E-05   stopping-criterion for ELM
   LREAL  =      T    real-space projection
   NLSPLINE    = F    spline interpolate recip. space projectors
   LCOMPAT=      F    compatible to vasp.4.4
   GGA_COMPAT  = T    GGA compatible to vasp.4.4-vasp.4.6
   LMAXPAW     = -100 max onsite density
   LMAXMIX     =    4 max onsite mixed and CHGCAR
   VOSKOWN=      0    Vosko Wilk Nusair interpolation
   ROPT   =   -0.00025  -0.00025
 Ionic relaxation
   EDIFFG = 0.1E-04   stopping-criterion for IOM
   NSW    =      0    number of steps for IOM
   NBLOCK =      1;   KBLOCK =      1    inner block; outer block 
   IBRION =     -1    ionic relax: 0-MD 1-quasi-New 2-CG
   NFREE  =      0    steps in history (QN), initial steepest desc. (CG)
   ISIF   =      3    stress and relaxation
   IWAVPR =     10    prediction:  0-non 1-charg 2-wave 3-comb
   ISYM   =      2    0-nonsym 1-usesym 2-fastsym
   LCORR  =      T    Harris-Foulkes like correction to forces

   POTIM  = 0.5000    time-step for ionic-motion
   TEIN   =    0.0    initial temperature
   TEBEG  =    0.0;   TEEND  =   0.0 temperature during run
   SMASS  =  -3.00    Nose mass-parameter (am)
   estimated Nose-frequenzy (Omega)   =  0.10E-29 period in steps =****** mass=  -0.294E-27a.u.
   SCALEE = 1.0000    scale energy and forces
   NPACO  =    256;   APACO  = 16.0  distance and # of slots for P.C.
   PSTRESS=    0.0 pullay stress

  Mass of Ions in am
   POMASS = 151.97 16.00
  Ionic Valenz
   ZVAL   =  17.00  6.00
  Atomic Wigner-Seitz radii
   RWIGS  =  -1.00 -1.00
  virtual crystal weights 
   VCA    =   1.00  1.00
   NELECT =      92.0000    total number of electrons
   NUPDOWN=      -1.0000    fix difference up-down

 DOS related values:
   EMIN   =  10.00;   EMAX   =-10.00  energy-range for DOS
   EFERMI =   0.00
   ISMEAR =    -5;   SIGMA  =   0.05  broadening in eV -4-tet -1-fermi 0-gaus

 Electronic relaxation 2 (details)
   IALGO  =     38    algorithm
   LDIAG  =      T    sub-space diagonalisation (order eigenvalues)
   LSUBROT=      F    optimize rotation matrix (better conditioning)
   TURBO    =      0    0=normal 1=particle mesh
   IRESTART =      0    0=no restart 2=restart with 2 vectors
   NREBOOT  =      0    no. of reboots
   NMIN     =      0    reboot dimension
   EREF     =   0.00    reference energy to select bands
   IMIX   =      4    mixing-type and parameters
     AMIX     =   0.40;   BMIX     =  1.00
     AMIX_MAG =   1.60;   BMIX_MAG =  1.00
     AMIN     =   0.10
     WC   =   100.;   INIMIX=   1;  MIXPRE=   1;  MAXMIX= -45

 Intra band minimization:
   WEIMIN = 0.0000     energy-eigenvalue tresh-hold
   EBREAK =  0.45E-08  absolut break condition
   DEPER  =   0.30     relativ break condition  

   TIME   =   0.40     timestep for ELM

  volume/ion in A,a.u.               =      16.39       110.63
  Fermi-wavevector in a.u.,A,eV,Ry     =   1.454607  2.748810 28.788334  2.115883
  Thomas-Fermi vector in A             =   2.571738
 
 Write flags
   LWAVE        =      F    write WAVECAR
   LDOWNSAMPLE  =      F    k-point downsampling of WAVECAR
   LCHARG       =      F    write CHGCAR
   LVTOT        =      F    write LOCPOT, total local potential
   LVHAR        =      F    write LOCPOT, Hartree potential only
   LELF         =      F    write electronic localiz. function (ELF)
   LORBIT       =     11    0 simple, 1 ext, 2 COOP (PROOUT), +10 PAW based schemes


 Dipole corrections
   LMONO  =      F    monopole corrections only (constant potential shift)
   LDIPOL =      F    correct potential (dipole corrections)
   IDIPOL =      0    1-x, 2-y, 3-z, 4-all directions 
   EPSILON=  1.0000000 bulk dielectric constant

 Exchange correlation treatment:
   GGA     =    --    GGA type
   LEXCH   =     8    internal setting for exchange type
   VOSKOWN=      0    Vosko Wilk Nusair interpolation
   LHFCALC =     F    Hartree Fock is set to
   LHFONE  =     F    Hartree Fock one center treatment
   AEXX    =    0.0000 exact exchange contribution

 Linear response parameters
   LEPSILON=     F    determine dielectric tensor
   LRPA    =     F    only Hartree local field effects (RPA)
   LNABLA  =     F    use nabla operator in PAW spheres
   LVEL    =     F    velocity operator in full k-point grid
   LINTERFAST=   F  fast interpolation
   KINTER  =     0    interpolate to denser k-point grid
   CSHIFT  =0.1000    complex shift for real part using Kramers Kronig
   OMEGAMAX=  -1.0    maximum frequency
   DEG_THRESHOLD= 0.2000000E-02 threshold for treating states as degnerate
   RTIME   =   -0.100 relaxation time in fs
  (WPLASMAI=    0.000 imaginary part of plasma frequency in eV, 0.658/RTIME)
   DFIELD  = 0.0000000 0.0000000 0.0000000 field for delta impulse in time
 
 Orbital magnetization related:
   ORBITALMAG=     F  switch on orbital magnetization
   LCHIMAG   =     F  perturbation theory with respect to B field
   DQ        =  0.001000  dq finite difference perturbation B field
   LLRAUG    =     F  two centre corrections for induced B field



--------------------------------------------------------------------------------------------------------


 Static calculation
 charge density and potential will be updated during run
 spin polarized calculation
 Variant of blocked Davidson
 Davidson routine will perform the subspace rotation
 perform sub-space diagonalisation
    after iterative eigenvector-optimisation
 modified Broyden-mixing scheme, WC =      100.0
 initial mixing is a Kerker type mixing with AMIX =  0.4000 and BMIX =      1.0000
 Hartree-type preconditioning will be used
 using additional bands           10
 real space projection scheme for non local part
 use partial core corrections
 calculate Harris-corrections to forces 
   (improved forces if not selfconsistent)
 use gradient corrections 
 use of overlap-Matrix (Vanderbilt PP)
 Fermi weights with tetrahedron method with Bloechl corrections


--------------------------------------------------------------------------------------------------------


  energy-cutoff  :      520.00
  volume of cell :      131.15
      direct lattice vectors                 reciprocal lattice vectors
    -0.000027995 -2.071244309  2.929172315     0.000002796 -0.160931994  0.227596895
     3.587499101 -0.000039557 -0.000072042     0.278745714 -0.000002455  0.000000928
     0.000053709  8.320499960  5.883360810     0.000002021  0.080123854  0.056656304

  length of vectors
     3.587492639  3.587499102 10.190419717     0.278746217  0.278745714  0.098131385


 
 k-points in units of 2pi/SCALE and weight: pymatgen v2019.10.16 with grid density =
   0.00000000  0.00000000  0.00000000       0.002
   0.00000025 -0.01463018  0.02069063       0.004
   0.00000051 -0.02926036  0.04138125       0.004
   0.00000076 -0.04389054  0.06207188       0.004
   0.00000102 -0.05852073  0.08276251       0.004
   0.00000127 -0.07315091  0.10345313       0.004
   0.02534052 -0.00000022  0.00000008       0.004
   0.02534077 -0.01463040  0.02069071       0.004
   0.02534103 -0.02926059  0.04138134       0.004
   0.02534128 -0.04389077  0.06207196       0.004
   0.02534154 -0.05852095  0.08276259       0.004
   0.02534179 -0.07315113  0.10345322       0.004
   0.02533925  0.07315068 -0.10345305       0.004
   0.02533950  0.05852050 -0.08276242       0.004
   0.02533976  0.04389032 -0.06207180       0.004
   0.02534001  0.02926014 -0.04138117       0.004
   0.02534027  0.01462996 -0.02069054       0.004
   0.05068104 -0.00000045  0.00000017       0.004
   0.05068129 -0.01463063  0.02069080       0.004
   0.05068155 -0.02926081  0.04138142       0.004
   0.05068180 -0.04389099  0.06207205       0.004
   0.05068206 -0.05852117  0.08276268       0.004
   0.05068231 -0.07315135  0.10345330       0.004
   0.05067977  0.07315046 -0.10345297       0.004
   0.05068002  0.05852028 -0.08276234       0.004
   0.05068028  0.04389010 -0.06207171       0.004
   0.05068053  0.02925992 -0.04138108       0.004
   0.05068078  0.01462973 -0.02069046       0.004
   0.07602156 -0.00000067  0.00000025       0.004
   0.07602181 -0.01463085  0.02069088       0.004
   0.07602207 -0.02926103  0.04138151       0.004
   0.07602232 -0.04389121  0.06207213       0.004
   0.07602258 -0.05852139  0.08276276       0.004
   0.07602283 -0.07315158  0.10345339       0.004
   0.07602029  0.07315024 -0.10345288       0.004
   0.07602054  0.05852006 -0.08276225       0.004
   0.07602080  0.04388987 -0.06207163       0.004
   0.07602105  0.02925969 -0.04138100       0.004
   0.07602130  0.01462951 -0.02069037       0.004
   0.10136208 -0.00000089  0.00000034       0.004
   0.10136233 -0.01463107  0.02069096       0.004
   0.10136259 -0.02926126  0.04138159       0.004
   0.10136284 -0.04389144  0.06207222       0.004
   0.10136309 -0.05852162  0.08276284       0.004
   0.10136335 -0.07315180  0.10345347       0.004
   0.10136081  0.07315001 -0.10345280       0.004
   0.10136106  0.05851983 -0.08276217       0.004
   0.10136132  0.04388965 -0.06207154       0.004
   0.10136157  0.02925947 -0.04138092       0.004
   0.10136182  0.01462929 -0.02069029       0.004
   0.12670260 -0.00000112  0.00000042       0.004
   0.12670285 -0.01463130  0.02069105       0.004
   0.12670311 -0.02926148  0.04138168       0.004
   0.12670336 -0.04389166  0.06207230       0.004
   0.12670361 -0.05852184  0.08276293       0.004
   0.12670387 -0.07315202  0.10345356       0.004
   0.12670133  0.07314979 -0.10345271       0.004
   0.12670158  0.05851961 -0.08276209       0.004
   0.12670183  0.04388943 -0.06207146       0.004
   0.12670209  0.02925925 -0.04138083       0.004
   0.12670234  0.01462907 -0.02069021       0.004
   0.00000051  0.02003096  0.01416408       0.004
   0.00000076  0.00540078  0.03485470       0.004
   0.00000101 -0.00922940  0.05554533       0.004
   0.00000127 -0.02385958  0.07623596       0.004
   0.00000152 -0.03848976  0.09692658       0.004
   0.00000178 -0.05311994  0.11761721       0.004
  -0.00000077  0.09318187 -0.08928906       0.004
  -0.00000051  0.07855169 -0.06859843       0.004
  -0.00000026  0.06392151 -0.04790780       0.004
  -0.00000000  0.04929133 -0.02721718       0.004
   0.00000025  0.03466114 -0.00652655       0.004
   0.02534102  0.02003074  0.01416416       0.004
   0.02534128  0.00540056  0.03485479       0.004
   0.02534153 -0.00922962  0.05554541       0.004
   0.02534179 -0.02385980  0.07623604       0.004
   0.02534204 -0.03848998  0.09692667       0.004
   0.02534230 -0.05312017  0.11761729       0.004
   0.02533975  0.09318165 -0.08928897       0.004
   0.02534001  0.07855147 -0.06859835       0.004
   0.02534026  0.06392128 -0.04790772       0.004
   0.02534052  0.04929110 -0.02721709       0.004
   0.02534077  0.03466092 -0.00652647       0.004
   0.05068154  0.02003052  0.01416424       0.004
   0.05068180  0.00540034  0.03485487       0.004
   0.05068205 -0.00922985  0.05554550       0.004
   0.05068231 -0.02386003  0.07623613       0.004
   0.05068256 -0.03849021  0.09692675       0.004
   0.05068282 -0.05312039  0.11761738       0.004
   0.05068027  0.09318142 -0.08928889       0.004
   0.05068053  0.07855124 -0.06859826       0.004
   0.05068078  0.06392106 -0.04790764       0.004
   0.05068104  0.04929088 -0.02721701       0.004
   0.05068129  0.03466070 -0.00652638       0.004
   0.07602206  0.02003029  0.01416433       0.004
   0.07602232  0.00540011  0.03485496       0.004
   0.07602257 -0.00923007  0.05554558       0.004
   0.07602283 -0.02386025  0.07623621       0.004
   0.07602308 -0.03849043  0.09692684       0.004
   0.07602333 -0.05312061  0.11761746       0.004
   0.07602079  0.09318120 -0.08928880       0.004
   0.07602105  0.07855102 -0.06859818       0.004
   0.07602130  0.06392084 -0.04790755       0.004
   0.07602156  0.04929066 -0.02721692       0.004
   0.07602181  0.03466048 -0.00652630       0.004
   0.10136258  0.02003007  0.01416441       0.004
   0.10136284  0.00539989  0.03485504       0.004
   0.10136309 -0.00923029  0.05554567       0.004
   0.10136335 -0.02386047  0.07623629       0.004
   0.10136360 -0.03849065  0.09692692       0.004
   0.10136385 -0.05312084  0.11761755       0.004
   0.10136131  0.09318098 -0.08928872       0.004
   0.10136157  0.07855080 -0.06859809       0.004
   0.10136182  0.06392061 -0.04790747       0.004
   0.10136207  0.04929043 -0.02721684       0.004
   0.10136233  0.03466025 -0.00652621       0.004
   0.12670310  0.02002985  0.01416450       0.004
   0.12670336  0.00539967  0.03485512       0.004
   0.12670361 -0.00923052  0.05554575       0.004
   0.12670387 -0.02386070  0.07623638       0.004
   0.12670412 -0.03849088  0.09692700       0.004
   0.12670437 -0.05312106  0.11761763       0.004
   0.12670183  0.09318075 -0.08928864       0.004
   0.12670209  0.07855057 -0.06859801       0.004
   0.12670234  0.06392039 -0.04790738       0.004
   0.12670259  0.04929021 -0.02721676       0.004
   0.12670285  0.03466003 -0.00652613       0.004
  -0.12670209  0.02003208  0.01416365       0.004
  -0.12670184  0.00540190  0.03485428       0.004
  -0.12670158 -0.00922828  0.05554491       0.004
  -0.12670133 -0.02385846  0.07623553       0.004
  -0.12670108 -0.03848865  0.09692616       0.004
  -0.12670082 -0.05311883  0.11761679       0.004
  -0.12670336  0.09318299 -0.08928948       0.004
  -0.12670311  0.07855280 -0.06859885       0.004
  -0.12670285  0.06392262 -0.04790823       0.004
  -0.12670260  0.04929244 -0.02721760       0.004
  -0.12670235  0.03466226 -0.00652697       0.004
  -0.10136157  0.02003186  0.01416374       0.004
  -0.10136132  0.00540168  0.03485437       0.004
  -0.10136106 -0.00922851  0.05554499       0.004
  -0.10136081 -0.02385869  0.07623562       0.004
  -0.10136056 -0.03848887  0.09692625       0.004
  -0.10136030 -0.05311905  0.11761687       0.004
  -0.10136284  0.09318276 -0.08928940       0.004
  -0.10136259  0.07855258 -0.06859877       0.004
  -0.10136234  0.06392240 -0.04790814       0.004
  -0.10136208  0.04929222 -0.02721752       0.004
  -0.10136183  0.03466204 -0.00652689       0.004
  -0.07602105  0.02003163  0.01416382       0.004
  -0.07602080  0.00540145  0.03485445       0.004
  -0.07602054 -0.00922873  0.05554508       0.004
  -0.07602029 -0.02385891  0.07623570       0.004
  -0.07602004 -0.03848909  0.09692633       0.004
  -0.07601978 -0.05311927  0.11761696       0.004
  -0.07602232  0.09318254 -0.08928931       0.004
  -0.07602207  0.07855236 -0.06859868       0.004
  -0.07602182  0.06392218 -0.04790806       0.004
  -0.07602156  0.04929200 -0.02721743       0.004
  -0.07602131  0.03466181 -0.00652680       0.004
  -0.05068053  0.02003141  0.01416391       0.004
  -0.05068028  0.00540123  0.03485453       0.004
  -0.05068003 -0.00922895  0.05554516       0.004
  -0.05067977 -0.02385913  0.07623579       0.004
  -0.05067952 -0.03848932  0.09692641       0.004
  -0.05067926 -0.05311950  0.11761704       0.004
  -0.05068180  0.09318232 -0.08928923       0.004
  -0.05068155  0.07855214 -0.06859860       0.004
  -0.05068130  0.06392195 -0.04790797       0.004
  -0.05068104  0.04929177 -0.02721735       0.004
  -0.05068079  0.03466159 -0.00652672       0.004
  -0.02534001  0.02003119  0.01416399       0.004
  -0.02533976  0.00540101  0.03485462       0.004
  -0.02533951 -0.00922918  0.05554525       0.004
  -0.02533925 -0.02385936  0.07623587       0.004
  -0.02533900 -0.03848954  0.09692650       0.004
  -0.02533874 -0.05311972  0.11761713       0.004
  -0.02534129  0.09318209 -0.08928914       0.004
  -0.02534103  0.07855191 -0.06859852       0.004
  -0.02534078  0.06392173 -0.04790789       0.004
  -0.02534052  0.04929155 -0.02721726       0.004
  -0.02534027  0.03466137 -0.00652664       0.004
   0.00000101  0.04006193  0.02832815       0.002
   0.00000126  0.02543175  0.04901878       0.004
   0.00000152  0.01080156  0.06970941       0.004
   0.00000177 -0.00382862  0.09040003       0.004
   0.00000203 -0.01845880  0.11109066       0.004
   0.00000228 -0.03308898  0.13178129       0.004
   0.02534153  0.04006170  0.02832824       0.004
   0.02534178  0.02543152  0.04901886       0.004
   0.02534204  0.01080134  0.06970949       0.004
   0.02534229 -0.00382884  0.09040012       0.004
   0.02534255 -0.01845902  0.11109074       0.004
   0.02534280 -0.03308920  0.13178137       0.004
   0.02534026  0.11321261 -0.07512490       0.004
   0.02534051  0.09858243 -0.05443427       0.004
   0.02534077  0.08395225 -0.03374364       0.004
   0.02534102  0.06932207 -0.01305302       0.004
   0.02534128  0.05469189  0.00763761       0.004
   0.05068205  0.04006148  0.02832832       0.004
   0.05068230  0.02543130  0.04901895       0.004
   0.05068256  0.01080112  0.06970957       0.004
   0.05068281 -0.00382906  0.09040020       0.004
   0.05068307 -0.01845924  0.11109083       0.004
   0.05068332 -0.03308943  0.13178145       0.004
   0.05068078  0.11321239 -0.07512481       0.004
   0.05068103  0.09858221 -0.05443419       0.004
   0.05068129  0.08395202 -0.03374356       0.004
   0.05068154  0.06932184 -0.01305293       0.004
   0.05068180  0.05469166  0.00763769       0.004
   0.07602257  0.04006126  0.02832840       0.004
   0.07602282  0.02543108  0.04901903       0.004
   0.07602308  0.01080089  0.06970966       0.004
   0.07602333 -0.00382929  0.09040029       0.004
   0.07602359 -0.01845947  0.11109091       0.004
   0.07602384 -0.03308965  0.13178154       0.004
   0.07602130  0.11321216 -0.07512473       0.004
   0.07602155  0.09858198 -0.05443410       0.004
   0.07602181  0.08395180 -0.03374348       0.004
   0.07602206  0.06932162 -0.01305285       0.004
   0.07602231  0.05469144  0.00763778       0.004
   0.10136309  0.04006103  0.02832849       0.004
   0.10136334  0.02543085  0.04901912       0.004
   0.10136360  0.01080067  0.06970974       0.004
   0.10136385 -0.00382951  0.09040037       0.004
   0.10136411 -0.01845969  0.11109100       0.004
   0.10136436 -0.03308987  0.13178162       0.004
   0.10136182  0.11321194 -0.07512464       0.004
   0.10136207  0.09858176 -0.05443402       0.004
   0.10136233  0.08395158 -0.03374339       0.004
   0.10136258  0.06932140 -0.01305276       0.004
   0.10136283  0.05469122  0.00763786       0.004
   0.12670361  0.04006081  0.02832857       0.004
   0.12670386  0.02543063  0.04901920       0.004
   0.12670412  0.01080045  0.06970983       0.004
   0.12670437 -0.00382973  0.09040045       0.004
   0.12670462 -0.01845991  0.11109108       0.004
   0.12670488 -0.03309010  0.13178171       0.004
   0.12670234  0.11321172 -0.07512456       0.004
   0.12670259  0.09858154 -0.05443393       0.004
   0.12670285  0.08395135 -0.03374331       0.004
   0.12670310  0.06932117 -0.01305268       0.004
   0.12670335  0.05469099  0.00763795       0.004
 
 k-points in reciprocal lattice and weights: pymatgen v2019.10.16 with grid density =
   0.00000000  0.00000000  0.00000000       0.002
   0.09090909  0.00000000 -0.00000000       0.004
   0.18181818  0.00000000 -0.00000000       0.004
   0.27272727  0.00000000  0.00000000       0.004
   0.36363636  0.00000000 -0.00000000       0.004
   0.45454545  0.00000000 -0.00000000       0.004
   0.00000000  0.09090909 -0.00000000       0.004
   0.09090909  0.09090909 -0.00000000       0.004
   0.18181818  0.09090909 -0.00000000       0.004
   0.27272727  0.09090909  0.00000000       0.004
   0.36363636  0.09090909 -0.00000000       0.004
   0.45454545  0.09090909  0.00000000       0.004
  -0.45454545  0.09090909  0.00000000       0.004
  -0.36363636  0.09090909  0.00000000       0.004
  -0.27272727  0.09090909  0.00000000       0.004
  -0.18181818  0.09090909  0.00000000       0.004
  -0.09090909  0.09090909  0.00000000       0.004
   0.00000000  0.18181818 -0.00000000       0.004
   0.09090909  0.18181818 -0.00000000       0.004
   0.18181818  0.18181818 -0.00000000       0.004
   0.27272727  0.18181818  0.00000000       0.004
   0.36363636  0.18181818 -0.00000000       0.004
   0.45454545  0.18181818 -0.00000000       0.004
  -0.45454545  0.18181818  0.00000000       0.004
  -0.36363636  0.18181818  0.00000000       0.004
  -0.27272727  0.18181818  0.00000000       0.004
  -0.18181818  0.18181818  0.00000000       0.004
  -0.09090909  0.18181818  0.00000000       0.004
   0.00000000  0.27272727 -0.00000000       0.004
   0.09090909  0.27272727 -0.00000000       0.004
   0.18181818  0.27272727 -0.00000000       0.004
   0.27272727  0.27272727 -0.00000000       0.004
   0.36363636  0.27272727 -0.00000000       0.004
   0.45454545  0.27272727 -0.00000000       0.004
  -0.45454545  0.27272727  0.00000000       0.004
  -0.36363636  0.27272727  0.00000000       0.004
  -0.27272727  0.27272727 -0.00000000       0.004
  -0.18181818  0.27272727  0.00000000       0.004
  -0.09090909  0.27272727  0.00000000       0.004
   0.00000000  0.36363636 -0.00000000       0.004
   0.09090909  0.36363636 -0.00000000       0.004
   0.18181818  0.36363636 -0.00000000       0.004
   0.27272727  0.36363636  0.00000000       0.004
   0.36363636  0.36363636 -0.00000000       0.004
   0.45454545  0.36363636 -0.00000000       0.004
  -0.45454545  0.36363636  0.00000000       0.004
  -0.36363636  0.36363636  0.00000000       0.004
  -0.27272727  0.36363636  0.00000000       0.004
  -0.18181818  0.36363636  0.00000000       0.004
  -0.09090909  0.36363636  0.00000000       0.004
   0.00000000  0.45454545 -0.00000000       0.004
   0.09090909  0.45454545 -0.00000000       0.004
   0.18181818  0.45454545 -0.00000000       0.004
   0.27272727  0.45454545  0.00000000       0.004
   0.36363636  0.45454545 -0.00000000       0.004
   0.45454545  0.45454545 -0.00000000       0.004
  -0.45454545  0.45454545  0.00000000       0.004
  -0.36363636  0.45454545  0.00000000       0.004
  -0.27272727  0.45454545  0.00000000       0.004
  -0.18181818  0.45454545  0.00000000       0.004
  -0.09090909  0.45454545  0.00000000       0.004
  -0.00000000  0.00000000  0.25000000       0.004
   0.09090909  0.00000000  0.25000000       0.004
   0.18181818  0.00000000  0.25000000       0.004
   0.27272727  0.00000000  0.25000000       0.004
   0.36363636  0.00000000  0.25000000       0.004
   0.45454545  0.00000000  0.25000000       0.004
  -0.45454545 -0.00000000  0.25000000       0.004
  -0.36363636 -0.00000000  0.25000000       0.004
  -0.27272727 -0.00000000  0.25000000       0.004
  -0.18181818 -0.00000000  0.25000000       0.004
  -0.09090909 -0.00000000  0.25000000       0.004
  -0.00000000  0.09090909  0.25000000       0.004
   0.09090909  0.09090909  0.25000000       0.004
   0.18181818  0.09090909  0.25000000       0.004
   0.27272727  0.09090909  0.25000000       0.004
   0.36363636  0.09090909  0.25000000       0.004
   0.45454545  0.09090909  0.25000000       0.004
  -0.45454545  0.09090909  0.25000000       0.004
  -0.36363636  0.09090909  0.25000000       0.004
  -0.27272727  0.09090909  0.25000000       0.004
  -0.18181818  0.09090909  0.25000000       0.004
  -0.09090909  0.09090909  0.25000000       0.004
  -0.00000000  0.18181818  0.25000000       0.004
   0.09090909  0.18181818  0.25000000       0.004
   0.18181818  0.18181818  0.25000000       0.004
   0.27272727  0.18181818  0.25000000       0.004
   0.36363636  0.18181818  0.25000000       0.004
   0.45454545  0.18181818  0.25000000       0.004
  -0.45454545  0.18181818  0.25000000       0.004
  -0.36363636  0.18181818  0.25000000       0.004
  -0.27272727  0.18181818  0.25000000       0.004
  -0.18181818  0.18181818  0.25000000       0.004
  -0.09090909  0.18181818  0.25000000       0.004
   0.00000000  0.27272727  0.25000000       0.004
   0.09090909  0.27272727  0.25000000       0.004
   0.18181818  0.27272727  0.25000000       0.004
   0.27272727  0.27272727  0.25000000       0.004
   0.36363636  0.27272727  0.25000000       0.004
   0.45454545  0.27272727  0.25000000       0.004
  -0.45454545  0.27272727  0.25000000       0.004
  -0.36363636  0.27272727  0.25000000       0.004
  -0.27272727  0.27272727  0.25000000       0.004
  -0.18181818  0.27272727  0.25000000       0.004
  -0.09090909  0.27272727  0.25000000       0.004
  -0.00000000  0.36363636  0.25000000       0.004
   0.09090909  0.36363636  0.25000000       0.004
   0.18181818  0.36363636  0.25000000       0.004
   0.27272727  0.36363636  0.25000000       0.004
   0.36363636  0.36363636  0.25000000       0.004
   0.45454545  0.36363636  0.25000000       0.004
  -0.45454545  0.36363636  0.25000000       0.004
  -0.36363636  0.36363636  0.25000000       0.004
  -0.27272727  0.36363636  0.25000000       0.004
  -0.18181818  0.36363636  0.25000000       0.004
  -0.09090909  0.36363636  0.25000000       0.004
   0.00000000  0.45454545  0.25000000       0.004
   0.09090909  0.45454545  0.25000000       0.004
   0.18181818  0.45454545  0.25000000       0.004
   0.27272727  0.45454545  0.25000000       0.004
   0.36363636  0.45454545  0.25000000       0.004
   0.45454545  0.45454545  0.25000000       0.004
  -0.45454545  0.45454545  0.25000000       0.004
  -0.36363636  0.45454545  0.25000000       0.004
  -0.27272727  0.45454545  0.25000000       0.004
  -0.18181818  0.45454545  0.25000000       0.004
  -0.09090909  0.45454545  0.25000000       0.004
  -0.00000000 -0.45454545  0.25000000       0.004
   0.09090909 -0.45454545  0.25000000       0.004
   0.18181818 -0.45454545  0.25000000       0.004
   0.27272727 -0.45454545  0.25000000       0.004
   0.36363636 -0.45454545  0.25000000       0.004
   0.45454545 -0.45454545  0.25000000       0.004
  -0.45454545 -0.45454545  0.25000000       0.004
  -0.36363636 -0.45454545  0.25000000       0.004
  -0.27272727 -0.45454545  0.25000000       0.004
  -0.18181818 -0.45454545  0.25000000       0.004
  -0.09090909 -0.45454545  0.25000000       0.004
   0.00000000 -0.36363636  0.25000000       0.004
   0.09090909 -0.36363636  0.25000000       0.004
   0.18181818 -0.36363636  0.25000000       0.004
   0.27272727 -0.36363636  0.25000000       0.004
   0.36363636 -0.36363636  0.25000000       0.004
   0.45454545 -0.36363636  0.25000000       0.004
  -0.45454545 -0.36363636  0.25000000       0.004
  -0.36363636 -0.36363636  0.25000000       0.004
  -0.27272727 -0.36363636  0.25000000       0.004
  -0.18181818 -0.36363636  0.25000000       0.004
  -0.09090909 -0.36363636  0.25000000       0.004
  -0.00000000 -0.27272727  0.25000000       0.004
   0.09090909 -0.27272727  0.25000000       0.004
   0.18181818 -0.27272727  0.25000000       0.004
   0.27272727 -0.27272727  0.25000000       0.004
   0.36363636 -0.27272727  0.25000000       0.004
   0.45454545 -0.27272727  0.25000000       0.004
  -0.45454545 -0.27272727  0.25000000       0.004
  -0.36363636 -0.27272727  0.25000000       0.004
  -0.27272727 -0.27272727  0.25000000       0.004
  -0.18181818 -0.27272727  0.25000000       0.004
  -0.09090909 -0.27272727  0.25000000       0.004
  -0.00000000 -0.18181818  0.25000000       0.004
   0.09090909 -0.18181818  0.25000000       0.004
   0.18181818 -0.18181818  0.25000000       0.004
   0.27272727 -0.18181818  0.25000000       0.004
   0.36363636 -0.18181818  0.25000000       0.004
   0.45454545 -0.18181818  0.25000000       0.004
  -0.45454545 -0.18181818  0.25000000       0.004
  -0.36363636 -0.18181818  0.25000000       0.004
  -0.27272727 -0.18181818  0.25000000       0.004
  -0.18181818 -0.18181818  0.25000000       0.004
  -0.09090909 -0.18181818  0.25000000       0.004
   0.00000000 -0.09090909  0.25000000       0.004
   0.09090909 -0.09090909  0.25000000       0.004
   0.18181818 -0.09090909  0.25000000       0.004
   0.27272727 -0.09090909  0.25000000       0.004
   0.36363636 -0.09090909  0.25000000       0.004
   0.45454545 -0.09090909  0.25000000       0.004
  -0.45454545 -0.09090909  0.25000000       0.004
  -0.36363636 -0.09090909  0.25000000       0.004
  -0.27272727 -0.09090909  0.25000000       0.004
  -0.18181818 -0.09090909  0.25000000       0.004
  -0.09090909 -0.09090909  0.25000000       0.004
  -0.00000000  0.00000000  0.50000000       0.002
   0.09090909  0.00000000  0.50000000       0.004
   0.18181818  0.00000000  0.50000000       0.004
   0.27272727  0.00000000  0.50000000       0.004
   0.36363636  0.00000000  0.50000000       0.004
   0.45454545  0.00000000  0.50000000       0.004
   0.00000000  0.09090909  0.50000000       0.004
   0.09090909  0.09090909  0.50000000       0.004
   0.18181818  0.09090909  0.50000000       0.004
   0.27272727  0.09090909  0.50000000       0.004
   0.36363636  0.09090909  0.50000000       0.004
   0.45454545  0.09090909  0.50000000       0.004
  -0.45454545  0.09090909  0.50000000       0.004
  -0.36363636  0.09090909  0.50000000       0.004
  -0.27272727  0.09090909  0.50000000       0.004
  -0.18181818  0.09090909  0.50000000       0.004
  -0.09090909  0.09090909  0.50000000       0.004
  -0.00000000  0.18181818  0.50000000       0.004
   0.09090909  0.18181818  0.50000000       0.004
   0.18181818  0.18181818  0.50000000       0.004
   0.27272727  0.18181818  0.50000000       0.004
   0.36363636  0.18181818  0.50000000       0.004
   0.45454545  0.18181818  0.50000000       0.004
  -0.45454545  0.18181818  0.50000000       0.004
  -0.36363636  0.18181818  0.50000000       0.004
  -0.27272727  0.18181818  0.50000000       0.004
  -0.18181818  0.18181818  0.50000000       0.004
  -0.09090909  0.18181818  0.50000000       0.004
   0.00000000  0.27272727  0.50000000       0.004
   0.09090909  0.27272727  0.50000000       0.004
   0.18181818  0.27272727  0.50000000       0.004
   0.27272727  0.27272727  0.50000000       0.004
   0.36363636  0.27272727  0.50000000       0.004
   0.45454545  0.27272727  0.50000000       0.004
  -0.45454545  0.27272727  0.50000000       0.004
  -0.36363636  0.27272727  0.50000000       0.004
  -0.27272727  0.27272727  0.50000000       0.004
  -0.18181818  0.27272727  0.50000000       0.004
  -0.09090909  0.27272727  0.50000000       0.004
  -0.00000000  0.36363636  0.50000000       0.004
   0.09090909  0.36363636  0.50000000       0.004
   0.18181818  0.36363636  0.50000000       0.004
   0.27272727  0.36363636  0.50000000       0.004
   0.36363636  0.36363636  0.50000000       0.004
   0.45454545  0.36363636  0.50000000       0.004
  -0.45454545  0.36363636  0.50000000       0.004
  -0.36363636  0.36363636  0.50000000       0.004
  -0.27272727  0.36363636  0.50000000       0.004
  -0.18181818  0.36363636  0.50000000       0.004
  -0.09090909  0.36363636  0.50000000       0.004
  -0.00000000  0.45454545  0.50000000       0.004
   0.09090909  0.45454545  0.50000000       0.004
   0.18181818  0.45454545  0.50000000       0.004
   0.27272727  0.45454545  0.50000000       0.004
   0.36363636  0.45454545  0.50000000       0.004
   0.45454545  0.45454545  0.50000000       0.004
  -0.45454545  0.45454545  0.50000000       0.004
  -0.36363636  0.45454545  0.50000000       0.004
  -0.27272727  0.45454545  0.50000000       0.004
  -0.18181818  0.45454545  0.50000000       0.004
  -0.09090909  0.45454545  0.50000000       0.004
 
 position of ions in fractional coordinates (direct lattice) 
   0.00000174  0.00000481  0.50059337
   0.49999826  0.49999519  0.74940663
   0.99999658  0.00000268  0.00058681
   0.50000342  0.49999732  0.24941319
   0.00000020  0.00000074  0.75037760
   0.49999762  0.50000001  0.99961907
   0.00000238  0.99999999  0.25038093
   0.49999980  0.49999926  0.49962240
 
 position of ions in cartesian coordinates  (Angst):
   0.00004415  4.16518351  2.94517649
   1.79375854  5.19979951  5.87357466
  -0.00001834 -2.06635464  2.93261474
   1.79373933  1.03959339  2.93194791
   0.00004296  6.24351639  4.41474277
   1.79378926  7.28169344  7.34566285
   3.58751253  2.08325002  1.47301626
   1.79375973  3.12146663  4.40400838
 


--------------------------------------------------------------------------------------------------------


 k-point  1 :   0.0000 0.0000 0.0000  plane waves:    3549
 k-point  2 :   0.0909 0.0000-0.0000  plane waves:    3529
 k-point  3 :   0.1818 0.0000-0.0000  plane waves:    3539
 k-point  4 :   0.2727 0.0000 0.0000  plane waves:    3557
 k-point  5 :   0.3636 0.0000-0.0000  plane waves:    3524
 k-point  6 :   0.4545 0.0000-0.0000  plane waves:    3530
 k-point  7 :   0.0000 0.0909-0.0000  plane waves:    3529
 k-point  8 :   0.0909 0.0909-0.0000  plane waves:    3525
 k-point  9 :   0.1818 0.0909-0.0000  plane waves:    3538
 k-point 10 :   0.2727 0.0909 0.0000  plane waves:    3539
 k-point 11 :   0.3636 0.0909-0.0000  plane waves:    3521
 k-point 12 :   0.4545 0.0909 0.0000  plane waves:    3525
 k-point 13 :  -0.4545 0.0909 0.0000  plane waves:    3525
 k-point 14 :  -0.3636 0.0909 0.0000  plane waves:    3521
 k-point 15 :  -0.2727 0.0909 0.0000  plane waves:    3539
 k-point 16 :  -0.1818 0.0909 0.0000  plane waves:    3538
 k-point 17 :  -0.0909 0.0909 0.0000  plane waves:    3525
 k-point 18 :   0.0000 0.1818-0.0000  plane waves:    3539
 k-point 19 :   0.0909 0.1818-0.0000  plane waves:    3538
 k-point 20 :   0.1818 0.1818-0.0000  plane waves:    3537
 k-point 21 :   0.2727 0.1818 0.0000  plane waves:    3532
 k-point 22 :   0.3636 0.1818-0.0000  plane waves:    3534
 k-point 23 :   0.4545 0.1818-0.0000  plane waves:    3526
 k-point 24 :  -0.4545 0.1818 0.0000  plane waves:    3527
 k-point 25 :  -0.3636 0.1818 0.0000  plane waves:    3534
 k-point 26 :  -0.2727 0.1818 0.0000  plane waves:    3532
 k-point 27 :  -0.1818 0.1818 0.0000  plane waves:    3537
 k-point 28 :  -0.0909 0.1818 0.0000  plane waves:    3538
 k-point 29 :   0.0000 0.2727-0.0000  plane waves:    3557
 k-point 30 :   0.0909 0.2727-0.0000  plane waves:    3539
 k-point 31 :   0.1818 0.2727-0.0000  plane waves:    3532
 k-point 32 :   0.2727 0.2727-0.0000  plane waves:    3525
 k-point 33 :   0.3636 0.2727-0.0000  plane waves:    3527
 k-point 34 :   0.4545 0.2727-0.0000  plane waves:    3515
 k-point 35 :  -0.4545 0.2727 0.0000  plane waves:    3515
 k-point 36 :  -0.3636 0.2727 0.0000  plane waves:    3527
 k-point 37 :  -0.2727 0.2727-0.0000  plane waves:    3525
 k-point 38 :  -0.1818 0.2727 0.0000  plane waves:    3532
 k-point 39 :  -0.0909 0.2727 0.0000  plane waves:    3539
 k-point 40 :   0.0000 0.3636-0.0000  plane waves:    3524
 k-point 41 :   0.0909 0.3636-0.0000  plane waves:    3521
 k-point 42 :   0.1818 0.3636-0.0000  plane waves:    3534
 k-point 43 :   0.2727 0.3636 0.0000  plane waves:    3527
 k-point 44 :   0.3636 0.3636-0.0000  plane waves:    3528
 k-point 45 :   0.4545 0.3636-0.0000  plane waves:    3542
 k-point 46 :  -0.4545 0.3636 0.0000  plane waves:    3542
 k-point 47 :  -0.3636 0.3636 0.0000  plane waves:    3528
 k-point 48 :  -0.2727 0.3636 0.0000  plane waves:    3527
 k-point 49 :  -0.1818 0.3636 0.0000  plane waves:    3534
 k-point 50 :  -0.0909 0.3636 0.0000  plane waves:    3521
 k-point 51 :   0.0000 0.4545-0.0000  plane waves:    3530
 k-point 52 :   0.0909 0.4545-0.0000  plane waves:    3525
 k-point 53 :   0.1818 0.4545-0.0000  plane waves:    3526
 k-point 54 :   0.2727 0.4545 0.0000  plane waves:    3515
 k-point 55 :   0.3636 0.4545-0.0000  plane waves:    3542
 k-point 56 :   0.4545 0.4545-0.0000  plane waves:    3538
 k-point 57 :  -0.4545 0.4545 0.0000  plane waves:    3538
 k-point 58 :  -0.3636 0.4545 0.0000  plane waves:    3542
 k-point 59 :  -0.2727 0.4545 0.0000  plane waves:    3515
 k-point 60 :  -0.1818 0.4545 0.0000  plane waves:    3526
 k-point 61 :  -0.0909 0.4545 0.0000  plane waves:    3525
 k-point 62 :  -0.0000 0.0000 0.2500  plane waves:    3530
 k-point 63 :   0.0909 0.0000 0.2500  plane waves:    3551
 k-point 64 :   0.1818 0.0000 0.2500  plane waves:    3556
 k-point 65 :   0.2727 0.0000 0.2500  plane waves:    3544
 k-point 66 :   0.3636 0.0000 0.2500  plane waves:    3521
 k-point 67 :   0.4545 0.0000 0.2500  plane waves:    3528
 k-point 68 :  -0.4545-0.0000 0.2500  plane waves:    3528
 k-point 69 :  -0.3636-0.0000 0.2500  plane waves:    3521
 k-point 70 :  -0.2727-0.0000 0.2500  plane waves:    3544
 k-point 71 :  -0.1818-0.0000 0.2500  plane waves:    3556
 k-point 72 :  -0.0909-0.0000 0.2500  plane waves:    3551
 k-point 73 :  -0.0000 0.0909 0.2500  plane waves:    3551
 k-point 74 :   0.0909 0.0909 0.2500  plane waves:    3546
 k-point 75 :   0.1818 0.0909 0.2500  plane waves:    3540
 k-point 76 :   0.2727 0.0909 0.2500  plane waves:    3533
 k-point 77 :   0.3636 0.0909 0.2500  plane waves:    3523
 k-point 78 :   0.4545 0.0909 0.2500  plane waves:    3525
 k-point 79 :  -0.4545 0.0909 0.2500  plane waves:    3525
 k-point 80 :  -0.3636 0.0909 0.2500  plane waves:    3523
 k-point 81 :  -0.2727 0.0909 0.2500  plane waves:    3533
 k-point 82 :  -0.1818 0.0909 0.2500  plane waves:    3540
 k-point 83 :  -0.0909 0.0909 0.2500  plane waves:    3546
 k-point 84 :  -0.0000 0.1818 0.2500  plane waves:    3556
 k-point 85 :   0.0909 0.1818 0.2500  plane waves:    3540
 k-point 86 :   0.1818 0.1818 0.2500  plane waves:    3543
 k-point 87 :   0.2727 0.1818 0.2500  plane waves:    3530
 k-point 88 :   0.3636 0.1818 0.2500  plane waves:    3519
 k-point 89 :   0.4545 0.1818 0.2500  plane waves:    3524
 k-point 90 :  -0.4545 0.1818 0.2500  plane waves:    3524
 k-point 91 :  -0.3636 0.1818 0.2500  plane waves:    3519
 k-point 92 :  -0.2727 0.1818 0.2500  plane waves:    3530
 k-point 93 :  -0.1818 0.1818 0.2500  plane waves:    3543
 k-point 94 :  -0.0909 0.1818 0.2500  plane waves:    3540
 k-point 95 :   0.0000 0.2727 0.2500  plane waves:    3544
 k-point 96 :   0.0909 0.2727 0.2500  plane waves:    3533
 k-point 97 :   0.1818 0.2727 0.2500  plane waves:    3530
 k-point 98 :   0.2727 0.2727 0.2500  plane waves:    3520
 k-point 99 :   0.3636 0.2727 0.2500  plane waves:    3521
 k-point ** :   0.4545 0.2727 0.2500  plane waves:    3525
 k-point ** :  -0.4545 0.2727 0.2500  plane waves:    3525
 k-point ** :  -0.3636 0.2727 0.2500  plane waves:    3521
 k-point ** :  -0.2727 0.2727 0.2500  plane waves:    3520
 k-point ** :  -0.1818 0.2727 0.2500  plane waves:    3530
 k-point ** :  -0.0909 0.2727 0.2500  plane waves:    3533
 k-point ** :  -0.0000 0.3636 0.2500  plane waves:    3521
 k-point ** :   0.0909 0.3636 0.2500  plane waves:    3523
 k-point ** :   0.1818 0.3636 0.2500  plane waves:    3519
 k-point ** :   0.2727 0.3636 0.2500  plane waves:    3521
 k-point ** :   0.3636 0.3636 0.2500  plane waves:    3534
 k-point ** :   0.4545 0.3636 0.2500  plane waves:    3539
 k-point ** :  -0.4545 0.3636 0.2500  plane waves:    3539
 k-point ** :  -0.3636 0.3636 0.2500  plane waves:    3534
 k-point ** :  -0.2727 0.3636 0.2500  plane waves:    3521
 k-point ** :  -0.1818 0.3636 0.2500  plane waves:    3519
 k-point ** :  -0.0909 0.3636 0.2500  plane waves:    3523
 k-point ** :   0.0000 0.4545 0.2500  plane waves:    3528
 k-point ** :   0.0909 0.4545 0.2500  plane waves:    3525
 k-point ** :   0.1818 0.4545 0.2500  plane waves:    3524
 k-point ** :   0.2727 0.4545 0.2500  plane waves:    3525
 k-point ** :   0.3636 0.4545 0.2500  plane waves:    3539
 k-point ** :   0.4545 0.4545 0.2500  plane waves:    3543
 k-point ** :  -0.4545 0.4545 0.2500  plane waves:    3543
 k-point ** :  -0.3636 0.4545 0.2500  plane waves:    3539
 k-point ** :  -0.2727 0.4545 0.2500  plane waves:    3525
 k-point ** :  -0.1818 0.4545 0.2500  plane waves:    3524
 k-point ** :  -0.0909 0.4545 0.2500  plane waves:    3525
 k-point ** :  -0.0000-0.4545 0.2500  plane waves:    3528
 k-point ** :   0.0909-0.4545 0.2500  plane waves:    3525
 k-point ** :   0.1818-0.4545 0.2500  plane waves:    3524
 k-point ** :   0.2727-0.4545 0.2500  plane waves:    3525
 k-point ** :   0.3636-0.4545 0.2500  plane waves:    3539
 k-point ** :   0.4545-0.4545 0.2500  plane waves:    3543
 k-point ** :  -0.4545-0.4545 0.2500  plane waves:    3543
 k-point ** :  -0.3636-0.4545 0.2500  plane waves:    3539
 k-point ** :  -0.2727-0.4545 0.2500  plane waves:    3525
 k-point ** :  -0.1818-0.4545 0.2500  plane waves:    3524
 k-point ** :  -0.0909-0.4545 0.2500  plane waves:    3524
 k-point ** :   0.0000-0.3636 0.2500  plane waves:    3521
 k-point ** :   0.0909-0.3636 0.2500  plane waves:    3523
 k-point ** :   0.1818-0.3636 0.2500  plane waves:    3519
 k-point ** :   0.2727-0.3636 0.2500  plane waves:    3521
 k-point ** :   0.3636-0.3636 0.2500  plane waves:    3534
[...]
  0.000  -0.000   0.000  -0.000   0.011  -0.000   0.000  -0.007
 -0.002   0.000  -0.027  -0.002  -0.000   0.018   0.002   0.000
  0.000  -0.000   0.000  -0.000  -0.000   0.000   0.000   0.001
 pseudopotential strength for first ion, spin component:           2
 -8.680  -4.025   0.002   0.002  -0.000  -0.001  -0.000   0.000
 -4.025  -0.353  -0.001  -0.001   0.000   0.001   0.001  -0.000
  0.002  -0.001 -15.666   0.004   0.000   7.375  -0.004  -0.000
  0.002  -0.001   0.004 -15.670  -0.000  -0.004   7.378   0.000
 -0.000   0.000   0.000  -0.000 -15.673  -0.000   0.000   7.380
 -0.001   0.001   7.375  -0.004  -0.000   4.938   0.003   0.000
 -0.000   0.001  -0.004   7.378   0.000   0.003   4.936  -0.000
  0.000  -0.000  -0.000   0.000   7.380   0.000  -0.000   4.933
  0.000  -0.000  -0.000  -0.000   0.001   0.000   0.000   0.000
  0.003  -0.000   0.000   0.000  -0.000   0.000   0.000   0.000
 -0.000  -0.000  -0.000   0.001   0.000  -0.000   0.000   0.000
 -0.000   0.000  -0.000  -0.000   0.001   0.000   0.000   0.000
 -0.002   0.000  -0.000   0.000  -0.000  -0.000  -0.000   0.000
 -0.000   0.000   0.000   0.000  -0.001   0.000  -0.000   0.000
 -0.005   0.000  -0.000  -0.001   0.000  -0.000   0.000  -0.000
  0.000   0.000   0.001  -0.001  -0.000  -0.000   0.000  -0.000
  0.000  -0.000   0.000   0.000  -0.001  -0.000  -0.000   0.000
  0.004  -0.000   0.001  -0.000   0.000  -0.000   0.000  -0.000
  0.000  -0.000  -0.001  -0.000   0.000   0.001  -0.005  -0.000
 -0.000  -0.000  -0.000   0.000   0.001   0.000  -0.000  -0.007
 -0.000   0.000  -0.001   0.002  -0.000   0.003  -0.001   0.000
  0.000  -0.000  -0.001  -0.000   0.000   0.001  -0.004  -0.000
 -0.000   0.000  -0.000  -0.000   0.001   0.000   0.000   0.002
  0.000  -0.000  -0.001  -0.000  -0.000  -0.005   0.000   0.000
 -0.000   0.000  -0.000  -0.000  -0.002   0.000   0.000   0.001
  0.000  -0.000  -0.001  -0.000   0.000   0.001  -0.005  -0.000
 -0.000  -0.000  -0.000   0.000   0.001   0.000  -0.000  -0.006
 -0.000   0.000  -0.001   0.002  -0.000   0.003  -0.001   0.000
  0.000  -0.000  -0.001  -0.000   0.000   0.001  -0.004  -0.000
 -0.000   0.000  -0.000  -0.000   0.001   0.000   0.000   0.002
  0.000  -0.000  -0.001  -0.000  -0.000  -0.005   0.000   0.000
 -0.000   0.000  -0.000  -0.000  -0.002   0.000   0.000   0.001
 total augmentation occupancy for first ion, spin component:           1
  1.992  -0.039   0.000   0.000   0.000   0.000   0.000  -0.000  -0.000  -0.000   0.000   0.000   0.000  -0.000   0.000   0.000
 -0.039   0.606   0.000   0.000  -0.000   0.001   0.000   0.000  -0.000  -0.004  -0.000   0.000   0.003  -0.000  -0.001  -0.000
  0.000   0.000   2.012  -0.000  -0.000  -0.019   0.001   0.000  -0.000  -0.000  -0.000   0.000  -0.000   0.000   0.000  -0.000
  0.000   0.000  -0.000   2.012  -0.000   0.001  -0.020  -0.000   0.000   0.000   0.001  -0.000   0.000   0.000   0.000   0.000
  0.000  -0.000  -0.000  -0.000   2.013   0.000  -0.000  -0.020   0.001   0.000  -0.000   0.001  -0.000   0.000   0.000  -0.000
  0.000   0.001  -0.019   0.001   0.000   0.020  -0.000  -0.000   0.000   0.000  -0.000  -0.000  -0.000   0.000   0.000  -0.000
  0.000   0.000   0.001  -0.020  -0.000  -0.000   0.020   0.000  -0.000   0.000   0.000   0.000  -0.000  -0.000   0.000   0.000
 -0.000   0.000   0.000  -0.000  -0.020  -0.000   0.000   0.020   0.000  -0.000  -0.000   0.000   0.000   0.000  -0.000   0.000
 -0.000  -0.000  -0.000   0.000   0.001   0.000  -0.000   0.000   0.230   0.000   0.000  -0.084   0.000   0.063   0.000   0.000
 -0.000  -0.004  -0.000   0.000   0.000   0.000   0.000  -0.000   0.000   0.286  -0.002   0.000  -0.078   0.000   0.084  -0.000
  0.000  -0.000  -0.000   0.001  -0.000  -0.000   0.000  -0.000   0.000  -0.002   0.174   0.000  -0.003   0.000  -0.000   0.042
  0.000   0.000   0.000  -0.000   0.001  -0.000   0.000   0.000  -0.084   0.000   0.000   0.289   0.000  -0.031   0.000   0.000
  0.000   0.003  -0.000   0.000  -0.000  -0.000  -0.000   0.000   0.000  -0.078  -0.003   0.000   0.231   0.000  -0.029  -0.001
 -0.000  -0.000   0.000   0.000   0.000   0.000  -0.000   0.000   0.063   0.000   0.000  -0.031   0.000   0.018   0.000   0.000
  0.000  -0.001   0.000   0.000   0.000   0.000   0.000  -0.000   0.000   0.084  -0.000   0.000  -0.029   0.000   0.026  -0.000
  0.000  -0.000  -0.000   0.000  -0.000  -0.000   0.000   0.000   0.000  -0.000   0.042   0.000  -0.001   0.000  -0.000   0.011
  0.000   0.000   0.000  -0.000   0.000  -0.000   0.000   0.000  -0.031   0.000   0.000   0.085   0.000  -0.011   0.000   0.000
 -0.000   0.001  -0.000   0.000  -0.000  -0.000  -0.000   0.000   0.000  -0.029  -0.001   0.000   0.063   0.000  -0.011  -0.000
 -0.000   0.003   0.001  -0.119   0.000  -0.001   0.082  -0.000  -0.000  -0.005   0.000  -0.000  -0.008  -0.000  -0.001   0.000
 -0.000   0.000  -0.000   0.000  -0.146   0.000  -0.000   0.101  -0.007  -0.000  -0.000  -0.003  -0.000  -0.001  -0.000  -0.000
  0.000  -0.002   0.065  -0.001  -0.000  -0.045   0.002   0.000  -0.000  -0.002  -0.003   0.000  -0.002  -0.000  -0.000  -0.001
 -0.000   0.003   0.001  -0.106   0.000  -0.001   0.073  -0.000  -0.000   0.003  -0.009  -0.000   0.004  -0.000   0.001  -0.002
  0.000  -0.000   0.000  -0.000   0.065  -0.000   0.000  -0.044  -0.000   0.000   0.000   0.004   0.000  -0.000   0.000  -0.000
 -0.001   0.005  -0.144   0.001  -0.000   0.099  -0.001   0.000   0.000   0.002   0.003  -0.000   0.001   0.000   0.001   0.000
  0.000   0.000  -0.000   0.000   0.001   0.000  -0.000  -0.001   0.000  -0.000  -0.000   0.003  -0.000  -0.000  -0.000  -0.000
  0.001  -0.002  -0.001   0.121  -0.000   0.001  -0.075   0.000   0.000   0.002   0.002  -0.000   0.004   0.000   0.000   0.000
  0.000  -0.000   0.000  -0.000   0.149   0.000   0.000  -0.094   0.007   0.000   0.000   0.003   0.000   0.002   0.000  -0.000
 -0.000   0.002  -0.066   0.001  -0.000   0.041  -0.001  -0.000   0.000   0.002   0.004  -0.000   0.002   0.000   0.001   0.001
  0.000  -0.002  -0.001   0.108  -0.000   0.001  -0.067   0.000   0.000  -0.001   0.005  -0.000   0.000   0.000  -0.000   0.001
 -0.000   0.000  -0.000   0.000  -0.066   0.000  -0.000   0.041   0.000  -0.000   0.000  -0.003  -0.000   0.000  -0.000   0.000
  0.001  -0.004   0.147  -0.001   0.000  -0.091   0.002  -0.000  -0.000  -0.002  -0.002   0.000  -0.000  -0.000  -0.001  -0.000
 -0.000  -0.000  -0.000  -0.000  -0.001  -0.000   0.000   0.001  -0.001   0.000   0.000  -0.003   0.000  -0.000   0.000   0.000
 total augmentation occupancy for first ion, spin component:           2
  0.042   0.158  -0.000  -0.000  -0.000  -0.000  -0.000  -0.000  -0.000  -0.000   0.000   0.000   0.000   0.000  -0.000  -0.000
  0.158  -0.134   0.001   0.001  -0.000  -0.001  -0.001  -0.000  -0.000   0.001  -0.000   0.000  -0.001  -0.000   0.000  -0.000
 -0.000   0.001   0.007  -0.000  -0.000   0.044   0.000   0.000   0.000  -0.000  -0.001   0.000  -0.001   0.000  -0.000  -0.000
 -0.000   0.001  -0.000   0.008   0.000   0.000   0.044  -0.000  -0.000   0.001   0.002  -0.000   0.001  -0.000   0.000   0.000
 -0.000  -0.000  -0.000   0.000   0.008   0.000  -0.000   0.044   0.002  -0.000  -0.000   0.002  -0.000   0.000  -0.000  -0.000
 -0.000  -0.001   0.044   0.000   0.000  -0.003   0.000  -0.000  -0.000   0.000   0.001  -0.000   0.001  -0.000   0.000   0.000
 -0.000  -0.001   0.000   0.044  -0.000   0.000  -0.003   0.000   0.000  -0.001  -0.002   0.000  -0.001   0.000  -0.000  -0.000
 -0.000  -0.000   0.000  -0.000   0.044  -0.000   0.000  -0.003  -0.002   0.000   0.000  -0.002   0.000  -0.000   0.000   0.000
 -0.000  -0.000   0.000  -0.000   0.002  -0.000   0.000  -0.002  -0.047  -0.000  -0.000  -0.000  -0.000  -0.011  -0.000  -0.000
 -0.000   0.001  -0.000   0.001  -0.000   0.000  -0.001   0.000  -0.000  -0.054   0.009  -0.000  -0.011  -0.000  -0.014   0.002
  0.000  -0.000  -0.001   0.002  -0.000   0.001  -0.002   0.000  -0.000   0.009  -0.058  -0.000   0.013  -0.000   0.002  -0.013
  0.000   0.000   0.000  -0.000   0.002  -0.000   0.000  -0.002  -0.000  -0.000  -0.000  -0.046  -0.000   0.001  -0.000  -0.000
  0.000  -0.001  -0.001   0.001  -0.000   0.001  -0.001   0.000  -0.000  -0.011   0.013  -0.000  -0.062  -0.000  -0.001   0.002
  0.000  -0.000   0.000  -0.000   0.000  -0.000   0.000  -0.000  -0.011  -0.000  -0.000   0.001  -0.000  -0.003  -0.000  -0.000
 -0.000   0.000  -0.000   0.000  -0.000   0.000  -0.000   0.000  -0.000  -0.014   0.002  -0.000  -0.001  -0.000  -0.004   0.000
 -0.000  -0.000  -0.000   0.000  -0.000   0.000  -0.000   0.000  -0.000   0.002  -0.013  -0.000   0.002  -0.000   0.000  -0.003
 -0.000  -0.000   0.000   0.000   0.000  -0.000   0.000  -0.000   0.001  -0.000  -0.000  -0.012  -0.000   0.001   0.000  -0.000
  0.000  -0.000  -0.000   0.000   0.000   0.000  -0.000   0.000  -0.000  -0.001   0.002  -0.000  -0.014  -0.000   0.000   0.000
 -0.000   0.002   0.001   0.013  -0.000  -0.001  -0.022   0.000   0.000   0.016   0.000   0.000   0.021   0.000   0.003  -0.000
 -0.000  -0.000   0.000  -0.000   0.015  -0.000   0.000  -0.027   0.022   0.000   0.000   0.016   0.000   0.003   0.000   0.000
  0.000  -0.002  -0.006  -0.002   0.000   0.014  -0.001  -0.000   0.000   0.006   0.017  -0.000   0.010   0.000   0.001   0.003
 -0.000   0.002   0.001   0.012  -0.000  -0.001  -0.020   0.000  -0.000  -0.006   0.026   0.000  -0.010   0.000  -0.001   0.004
 -0.000   0.000  -0.000   0.000  -0.008   0.000  -0.000   0.010  -0.002  -0.000  -0.000  -0.000  -0.000  -0.000  -0.000  -0.000
 -0.000   0.004   0.018   0.001   0.000  -0.027  -0.002  -0.000  -0.000  -0.001  -0.006   0.000  -0.004  -0.000   0.000  -0.001
 -0.000  -0.000   0.000  -0.000   0.002  -0.000   0.000   0.002  -0.011  -0.000   0.000  -0.007   0.000  -0.002  -0.000   0.000
  0.000  -0.004  -0.001   0.001   0.000   0.001   0.008  -0.000   0.000  -0.016  -0.003  -0.000  -0.021  -0.000  -0.003  -0.000
  0.000   0.000  -0.000   0.000   0.002   0.000  -0.000   0.010  -0.025   0.000   0.000  -0.019  -0.000  -0.004  -0.000  -0.000
 -0.000   0.003  -0.001   0.002  -0.000  -0.006   0.001   0.000   0.000  -0.008  -0.020   0.000  -0.012   0.000  -0.001  -0.004
  0.000  -0.003  -0.001   0.001   0.000   0.001   0.007  -0.000   0.000   0.005  -0.025  -0.000   0.008   0.000   0.001  -0.005
  0.000  -0.000   0.000  -0.000   0.001  -0.000   0.000  -0.003   0.002   0.000   0.000  -0.001   0.000   0.000   0.000   0.000
  0.000  -0.007  -0.000  -0.000  -0.000   0.010   0.002   0.000   0.000   0.002   0.006  -0.000   0.004   0.000   0.000   0.001
  0.000   0.000  -0.000   0.000  -0.002   0.000  -0.000  -0.002   0.014  -0.000  -0.000   0.008  -0.000   0.003   0.000  -0.000


------------------------ aborting loop because EDIFF is reached ----------------------------------------


 


 total charge     
 
# of ion       s       p       d       f       tot
--------------------------------------------------
    1        2.083   5.888   0.619   6.718  15.308
    2        2.083   5.888   0.619   6.718  15.308
    3        2.083   5.888   0.619   6.718  15.308
    4        2.083   5.888   0.619   6.718  15.308
    5        1.555   3.407   0.000   0.000   4.963
    6        1.555   3.407   0.000   0.000   4.963
    7        1.555   3.407   0.000   0.000   4.963
    8        1.555   3.407   0.000   0.000   4.963
--------------------------------------------------
tot         14.555  37.181   2.475  26.873  81.084

 


 magnetization (x)
 
# of ion       s       p       d       f       tot
--------------------------------------------------
    1        0.005   0.009  -0.147  -6.616  -6.748
    2        0.005   0.009  -0.147  -6.616  -6.748
    3       -0.005  -0.009   0.147   6.616   6.748
    4       -0.005  -0.009   0.147   6.616   6.748
    5        0.003   0.064   0.000   0.000   0.068
    6       -0.003  -0.064   0.000   0.000  -0.068
    7       -0.003  -0.064   0.000   0.000  -0.068
    8        0.003   0.064   0.000   0.000   0.068
--------------------------------------------------
tot         -0.000   0.000  -0.000   0.000   0.000

 
    CHARGE:  cpu time    2.2030: real time    2.2082
    FORLOC:  cpu time    0.0038: real time    0.0038
    FORNL :  cpu time   14.0307: real time   14.0638
    STRESS:  cpu time   41.8295: real time   41.9280
    FORCOR:  cpu time    0.0767: real time    0.0769
    FORHAR:  cpu time    0.0108: real time    0.0108
    MIXING:  cpu time    0.0038: real time    0.0038
    OFIELD:  cpu time    0.0001: real time    0.0001

  FORCE on cell =-STRESS in cart. coord.  units (eV):
  Direction    XX          YY          ZZ          XY          YZ          ZX
  --------------------------------------------------------------------------------------
  Alpha Z   906.21124   906.21124   906.21124
  Ewald   -3225.74065 -3245.21301 -3235.47876    -0.03667   -13.77001     0.04823
  Hartree   924.35765   912.89827   918.62448    -0.02411    -8.10486     0.02981
  E(xc)    -488.35131  -488.40047  -488.37591    -0.00021    -0.03477     0.00026
  Local     829.77584   860.59490   845.19268     0.05783    21.79632    -0.07351
  n-local  -453.18623  -452.87396  -453.03045     0.00137     0.22060    -0.00260
  augment   192.55634   192.95015   192.75283     0.00286     0.27820    -0.00391
  Kinetic  1313.94128  1313.45440  1313.69616    -0.00022    -0.34556     0.00357
  Fock        0.00000     0.00000     0.00000     0.00000     0.00000     0.00000
  -------------------------------------------------------------------------------------
  Total      -0.43584    -0.37848    -0.40772     0.00085     0.03992     0.00185
  in kB      -5.32427    -4.62363    -4.98081     0.01040     0.48773     0.02259
  external pressure =       -4.98 kB  Pullay stress =        0.00 kB


 VOLUME and BASIS-vectors are now :
 -----------------------------------------------------------------------------
  energy-cutoff  :      520.00
  volume of cell :      131.15
      direct lattice vectors                 reciprocal lattice vectors
    -0.000027995 -2.071244309  2.929172315     0.000002796 -0.160931994  0.227596895
     3.587499101 -0.000039557 -0.000072042     0.278745714 -0.000002455  0.000000928
     0.000053709  8.320499960  5.883360810     0.000002021  0.080123854  0.056656304

  length of vectors
     3.587492639  3.587499102 10.190419717     0.278746217  0.278745714  0.098131385


 FORCES acting on ions
    electron-ion (+dipol)            ewald-force                    non-local-force                 convergence-correction
 -----------------------------------------------------------------------------------------------
   0.819E-02 0.394E+01 0.279E+01   -.808E-02 -.416E+01 -.295E+01   -.225E-03 0.235E+00 0.166E+00   -.391E-05 0.356E-02 0.250E-02
   -.819E-02 -.394E+01 -.279E+01   0.808E-02 0.416E+01 0.295E+01   0.225E-03 -.235E+00 -.166E+00   0.391E-05 -.356E-02 -.250E-02
   0.508E-02 0.385E+01 0.272E+01   -.497E-02 -.407E+01 -.287E+01   -.210E-03 0.235E+00 0.166E+00   0.469E-05 -.754E-03 -.556E-03
   -.508E-02 -.385E+01 -.272E+01   0.497E-02 0.407E+01 0.287E+01   0.210E-03 -.235E+00 -.166E+00   -.469E-05 0.754E-03 0.556E-03
   0.579E-02 -.220E+01 -.155E+01   -.601E-02 0.232E+01 0.164E+01   0.180E-03 -.122E+00 -.859E-01   -.738E-06 -.154E-02 -.109E-02
   -.334E-02 0.216E+01 0.153E+01   0.346E-02 -.228E+01 -.162E+01   -.106E-03 0.121E+00 0.858E-01   -.776E-06 -.872E-03 -.613E-03
   0.334E-02 -.216E+01 -.153E+01   -.346E-02 0.228E+01 0.162E+01   0.106E-03 -.121E+00 -.858E-01   0.776E-06 0.872E-03 0.613E-03
   -.579E-02 0.220E+01 0.155E+01   0.601E-02 -.232E+01 -.164E+01   -.180E-03 0.122E+00 0.859E-01   0.738E-06 0.154E-02 0.109E-02
 -----------------------------------------------------------------------------------------------
   -.621E-11 0.226E-11 -.765E-11   -.180E-13 0.133E-13 0.497E-13   0.000E+00 0.000E+00 0.000E+00   0.287E-14 -.250E-12 -.109E-12
 
 
 POSITION                                       TOTAL-FORCE (eV/Angst)
 -----------------------------------------------------------------------------------
      0.00004      4.16518      2.94518        -0.000124      0.016090      0.011375
      1.79376      5.19980      5.87357         0.000124     -0.016090     -0.011375
     -0.00002     -2.06635      2.93261        -0.000100      0.017096      0.012176
      1.79374      1.03959      2.93195         0.000100     -0.017096     -0.012176
      0.00004      6.24352      4.41474        -0.000040     -0.000614     -0.000450
      1.79379      7.28169      7.34566         0.000011      0.000871      0.000633
      3.58751      2.08325      1.47302        -0.000011     -0.000871     -0.000633
      1.79376      3.12147      4.40401         0.000040      0.000614      0.000450
 -----------------------------------------------------------------------------------
    total drift:                               -0.000000      0.000000     -0.000000


--------------------------------------------------------------------------------------------------------



  FREE ENERGIE OF THE ION-ELECTRON SYSTEM (eV)
  ---------------------------------------------------
  free  energy   TOTEN  =       -83.34812951 eV

  energy  without entropy=      -83.34812951  energy(sigma->0) =      -83.34812951
 


--------------------------------------------------------------------------------------------------------


    POTLOK:  cpu time    1.2586: real time    1.2615


--------------------------------------------------------------------------------------------------------


     LOOP+:  cpu time 1544.2501: real time 1547.9772
    4ORBIT:  cpu time    0.0000: real time    0.0000
 


 total charge     
 
# of ion       s       p       d       f       tot
--------------------------------------------------
    1        2.083   5.888   0.619   6.718  15.308
    2        2.083   5.888   0.619   6.718  15.308
    3        2.083   5.888   0.619   6.718  15.308
    4        2.083   5.888   0.619   6.718  15.308
    5        1.555   3.407   0.000   0.000   4.963
    6        1.555   3.407   0.000   0.000   4.963
    7        1.555   3.407   0.000   0.000   4.963
    8        1.555   3.407   0.000   0.000   4.963
--------------------------------------------------
tot         14.555  37.181   2.475  26.873  81.084

 


 magnetization (x)
 
# of ion       s       p       d       f       tot
--------------------------------------------------
    1        0.005   0.009  -0.147  -6.616  -6.748
    2        0.005   0.009  -0.147  -6.616  -6.748
    3       -0.005  -0.009   0.147   6.616   6.748
    4       -0.005  -0.009   0.147   6.616   6.748
    5        0.003   0.064   0.000   0.000   0.068
    6       -0.003  -0.064   0.000   0.000  -0.068
    7       -0.003  -0.064   0.000   0.000  -0.068
    8        0.003   0.064   0.000   0.000   0.068
--------------------------------------------------
tot         -0.000   0.000  -0.000   0.000   0.000

 
 BZINTS: Fermi energy:  4.865636; 92.000000 electrons
         Band energy:-585.506828;  BLOECHL correction: -0.004470

 total amount of memory used by VASP MPI-rank0   246434. kBytes
=======================================================================

   base      :      30000. kBytes
   nonlr-proj:       3959. kBytes
   fftplans  :       2594. kBytes
   grid      :       6328. kBytes
   one-center:        196. kBytes
   wavefun   :     203357. kBytes
 
  
  
 General timing and accounting informations for this job:
 ========================================================
  
                  Total CPU time used (sec):     1559.969
                            User time (sec):     1556.826
                          System time (sec):        3.144
                         Elapsed time (sec):     1564.232
  
                   Maximum memory used (kb):      313420.
                   Average memory used (kb):           0.
  
                          Minor page faults:       144749
                          Major page faults:            0
                 Voluntary context switches:          294
