 vasp.5.4.4.18Apr17-6-g9f103f2a35 (build Apr 28 2018 00:24:27) complex          
  
 executed on             LinuxIFC date 2021.03.28  01:29:28
 running on    8 total cores
 distrk:  each k-point on    8 cores,    1 groups
 distr:  one band on NCORES_PER_BAND=   1 cores,    8 groups


--------------------------------------------------------------------------------------------------------


 INCAR:
 POTCAR:    PAW_PBE Eu 23Dec2003                  
 POTCAR:    PAW_PBE O 08Apr2002                   

 ----------------------------------------------------------------------------- 
|                                                                             |
|           W    W    AA    RRRRR   N    N  II  N    N   GGGG   !!!           |
|           W    W   A  A   R    R  NN   N  II  NN   N  G    G  !!!           |
|           W    W  A    A  R    R  N N  N  II  N N  N  G       !!!           |
|           W WW W  AAAAAA  RRRRR   N  N N  II  N  N N  G  GGG   !            |
|           WW  WW  A    A  R   R   N   NN  II  N   NN  G    G                |
|           W    W  A    A  R    R  N    N  II  N    N   GGGG   !!!           |
|                                                                             |
|      For optimal performance we recommend to set                            |
|        NCORE= 4 - approx SQRT( number of cores)                             |
|      NCORE specifies how many cores store one orbital (NPAR=cpu/NCORE).     |
|      This setting can  greatly improve the performance of VASP for DFT.     |
|      The default,   NCORE=1            might be grossly inefficient         |
|      on modern multi-core architectures or massively parallel machines.     |
|      Do your own testing !!!!                                               |
|      Unfortunately you need to use the default for GW and RPA calculations. |
|      (for HF NCORE is supported but not extensively tested yet)             |
|                                                                             |
 ----------------------------------------------------------------------------- 

 POTCAR:    PAW_PBE Eu 23Dec2003                  
   VRHFIN =Eu : [core=Kr4d]                                                     
   LEXCH  = PE                                                                  
   EATOM  =  2619.8085 eV,  192.5505 Ry                                         
                                                                                
   TITEL  = PAW_PBE Eu 23Dec2003                                                
   LULTRA =        F    use ultrasoft PP ?                                      
   IUNSCR =        1    unscreen: 0-lin 1-nonlin 2-no                           
   RPACOR =    2.300    partial core radius                                     
   POMASS =  151.965; ZVAL   =   17.000    mass and valenz                      
   RCORE  =    2.800    outmost cutoff radius                                   
   RWIGS  =    2.800; RWIGS  =    1.482    wigner-seitz radius (au A)           
   ENMAX  =  249.668; ENMIN  =  187.251 eV                                      
   RCLOC  =    2.308    cutoff for local pot                                    
   LCOR   =        T    correct aug charges                                     
   LPAW   =        T    paw PP                                                  
   EAUG   =  549.628                                                            
   DEXC   =    0.000                                                            
   RMAX   =    2.870    core radius for proj-oper                               
   RAUG   =    1.300    factor for augmentation sphere                          
   RDEP   =    2.887    radius for radial grids                                 
   RDEPT  =    2.221    core radius for aug-charge                              
                                                                                
   Atomic configuration                                                         
   14 entries                                                                   
     n  l   j            E        occ.                                          
     1  0  0.50    -48354.7667   2.0000                                         
     2  0  0.50     -7939.6472   2.0000                                         
     2  1  1.50     -7072.6637   6.0000                                         
     3  0  0.50     -1747.1875   2.0000                                         
     3  1  1.50     -1477.5221   6.0000                                         
     3  2  2.50     -1117.4686  10.0000                                         
     4  0  0.50      -346.8682   2.0000                                         
     4  1  1.50      -258.1962   6.0000                                         
     4  2  2.50      -134.7724  10.0000                                         
     5  0  0.50       -44.6510   2.0000                                         
     6  0  0.50        -3.6227   2.0000                                         
     5  1  1.50       -23.7639   6.0000                                         
     5  2  2.50        -1.3130   0.0000                                         
     4  3  2.50        -2.7310   7.0000                                         
   Description                                                                  
     l       E           TYP  RCUT    TYP  RCUT                                 
     0    -44.6510453     23  2.400                                             
     0     -3.6226685     23  2.400                                             
     1    -23.7638687     23  2.400                                             
     1     27.2116520     23  2.400                                             
     2     -1.3129622     23  2.500                                             
     2     13.6058260     23  2.500                                             
     3     -2.7309948     23  2.800                                             
     3     -3.4014565     23  2.800                                             
  local pseudopotential read in
  partial core-charges read in
  partial kinetic energy density read in
  atomic valenz-charges read in
  non local Contribution for L=           0  read in
    real space projection operators read in
  non local Contribution for L=           0  read in
    real space projection operators read in
  non local Contribution for L=           1  read in
    real space projection operators read in
  non local Contribution for L=           1  read in
    real space projection operators read in
  non local Contribution for L=           2  read in
    real space projection operators read in
  non local Contribution for L=           2  read in
    real space projection operators read in
  non local Contribution for L=           3  read in
    real space projection operators read in
  non local Contribution for L=           3  read in
    real space projection operators read in
    PAW grid and wavefunctions read in
 
   number of l-projection  operators is LMAX  =           8
   number of lm-projection operators is LMMAX =          32
 
 POTCAR:    PAW_PBE O 08Apr2002                   
   VRHFIN =O: s2p4                                                              
   LEXCH  = PE                                                                  
   EATOM  =   432.3788 eV,   31.7789 Ry                                         
                                                                                
   TITEL  = PAW_PBE O 08Apr2002                                                 
   LULTRA =        F    use ultrasoft PP ?                                      
   IUNSCR =        1    unscreen: 0-lin 1-nonlin 2-no                           
   RPACOR =    1.200    partial core radius                                     
   POMASS =   16.000; ZVAL   =    6.000    mass and valenz                      
   RCORE  =    1.520    outmost cutoff radius                                   
   RWIGS  =    1.550; RWIGS  =    0.820    wigner-seitz radius (au A)           
   ENMAX  =  400.000; ENMIN  =  300.000 eV                                      
   ICORE  =        2    local potential                                         
   LCOR   =        T    correct aug charges                                     
   LPAW   =        T    paw PP                                                  
   EAUG   =  605.392                                                            
   DEXC   =    0.000                                                            
   RMAX   =    1.553    core radius for proj-oper                               
   RAUG   =    1.300    factor for augmentation sphere                          
   RDEP   =    1.550    radius for radial grids                                 
   RDEPT  =    1.329    core radius for aug-charge                              
                                                                                
   Atomic configuration                                                         
    4 entries                                                                   
     n  l   j            E        occ.                                          
     1  0  0.50      -514.6923   2.0000                                         
     2  0  0.50       -23.9615   2.0000                                         
     2  1  0.50        -9.0305   4.0000                                         
     3  2  1.50        -9.5241   0.0000                                         
   Description                                                                  
     l       E           TYP  RCUT    TYP  RCUT                                 
     0    -23.9615318     23  1.200                                             
     0     -9.5240782     23  1.200                                             
     1     -9.0304911     23  1.520                                             
     1      8.1634956     23  1.520                                             
     2     -9.5240782      7  1.500                                             
  local pseudopotential read in
  partial core-charges read in
  partial kinetic energy density read in
  kinetic energy density of atom read in
  atomic valenz-charges read in
  non local Contribution for L=           0  read in
    real space projection operators read in
  non local Contribution for L=           0  read in
    real space projection operators read in
  non local Contribution for L=           1  read in
    real space projection operators read in
  non local Contribution for L=           1  read in
    real space projection operators read in
    PAW grid and wavefunctions read in
 
   number of l-projection  operators is LMAX  =           4
   number of lm-projection operators is LMMAX =           8
 

 ----------------------------------------------------------------------------- 
|                                                                             |
|  ADVICE TO THIS USER RUNNING 'VASP/VAMP'   (HEAR YOUR MASTER'S VOICE ...):  |
|                                                                             |
|      You have a (more or less) 'small supercell' and for smaller cells      |
|      it is recommended  to use the reciprocal-space projection scheme!      |
|      The real space optimization is not  efficient for small cells and it   |
|      is also less accurate ...                                              |
|      Therefore set LREAL=.FALSE. in the  INCAR file                         |
|                                                                             |
 ----------------------------------------------------------------------------- 

 Optimization of the real space projectors (new method)

 maximal supplied QI-value         = 13.42
 optimisation between [QCUT,QGAM] = [ 11.67, 23.35] = [ 38.16,152.62] Ry 
 Optimized for a Real-space Cutoff    1.63 Angstroem

   l    n(q)    QCUT    max X(q) W(low)/X(q) W(high)/X(q)  e(spline) 
   0     11    11.673    10.400    0.14E-04    0.18E-05    0.24E-07
   0     11    11.673    10.768    0.21E-04    0.32E-05    0.49E-07
   1     11    11.673     4.094    0.40E-05    0.13E-04    0.93E-07
   1     11    11.673     4.009    0.11E-04    0.46E-04    0.33E-06
   2     10    11.673    29.030    0.79E-04    0.60E-04    0.70E-06
   2     10    11.673    19.941    0.80E-04    0.60E-04    0.71E-06
   3     10    11.673    88.889    0.23E-03    0.29E-03    0.30E-06
   3     10    11.673    76.102    0.23E-03    0.30E-03    0.30E-06
 Optimization of the real space projectors (new method)

 maximal supplied QI-value         = 24.76
 optimisation between [QCUT,QGAM] = [ 11.64, 23.27] = [ 37.91,151.63] Ry 
 Optimized for a Real-space Cutoff    1.14 Angstroem

   l    n(q)    QCUT    max X(q) W(low)/X(q) W(high)/X(q)  e(spline) 
   0      8    11.635    20.381    0.10E-03    0.33E-03    0.24E-06
   0      8    11.635    15.268    0.11E-03    0.35E-03    0.26E-06
   1      7    11.635     5.964    0.24E-03    0.31E-03    0.30E-06
   1      7    11.635     5.382    0.22E-03    0.25E-03    0.26E-06
  PAW_PBE Eu 23Dec2003                  :
 energy of atom  1       EATOM=-2619.8085
 kinetic energy error for atom=    0.0015 (will be added to EATOM!!)
  PAW_PBE O 08Apr2002                   :
 energy of atom  2       EATOM= -432.3788
 kinetic energy error for atom=    0.0208 (will be added to EATOM!!)
 
 
 POSCAR: Eu4 O4                                  
  positions in direct lattice
  No initial velocities read in
 exchange correlation table for  LEXCH =        8
   RHO(1)=    0.500       N(1)  =     2000
   RHO(2)=  100.500       N(2)  =     4000
 


--------------------------------------------------------------------------------------------------------


 ion  position               nearest neighbor table
   1  0.000  0.000  0.500-   5 2.54   7 2.54   8 2.54   8 2.54   8 2.54   8 2.54
   2  0.500  0.500  0.750-   6 2.54   8 2.54   5 2.54   5 2.54   5 2.54   5 2.54
   3  0.000  0.000  0.000-   5 2.54   7 2.54   6 2.54   6 2.54   6 2.54   6 2.54
   4  0.500  0.500  0.250-   6 2.54   8 2.54   7 2.54   7 2.54   7 2.54   7 2.54
   5  0.000  0.000  0.750-   1 2.54   3 2.54   2 2.54   2 2.54   2 2.54   2 2.54
   6  0.500  0.500  0.000-   2 2.54   4 2.54   3 2.54   3 2.54   3 2.54   3 2.54
   7  0.000  0.000  0.250-   1 2.54   3 2.54   4 2.54   4 2.54   4 2.54   4 2.54
   8  0.500  0.500  0.500-   2 2.54   4 2.54   1 2.54   1 2.54   1 2.54   1 2.54
 
  LATTYP: Found a simple monoclinic cell.
 ALAT       =    10.7779197057
 B/A-ratio  =     0.3333273274
 C/A-ratio  =     1.1547080993
 COS(beta)  =    -0.9622515455
  
  Lattice vectors:
  
 A1 = (  -3.5929100000,  -8.2967920000,  -5.8666680000)
 A2 = (  -0.0000080000,   2.0741620000,  -2.9333340000)
 A3 = (   7.1855560000,   8.2967920000,   5.8666680000)


Analysis of symmetry for initial positions (statically):
=====================================================================
 Subroutine PRICEL returns following result:
 
  LATTYP: Found a trigonal (rhomboedric) cell.
 ALAT       =     3.5926435723
 COS(alpha) =     0.5000184241
  
  Lattice vectors:
  
 A1 = (  -1.7963930000,  -1.0371170000,  -2.9333340000)
 A2 = (  -1.7963850000,  -3.1112790000,   0.0000000000)
 A3 = (  -3.5926460000,   0.0000000000,   0.0000000000)
 
   4 primitive cells build up your supercell.
 

 Routine SETGRP: Setting up the symmetry group for a 
 simple monoclinic supercell.


 Subroutine GETGRP returns: Found  4 space group operations
 (whereof  4 operations were pure point group operations)
 out of a pool of  4 trial point group operations.


The static configuration has the point symmetry C_2h.


Analysis of symmetry for dynamics (positions and initial velocities):
=====================================================================
 Subroutine PRICEL returns following result:
 
  LATTYP: Found a trigonal (rhomboedric) cell.
 ALAT       =     3.5926435723
 COS(alpha) =     0.5000184241
  
  Lattice vectors:
  
 A1 = (  -1.7963930000,  -1.0371170000,  -2.9333340000)
 A2 = (  -1.7963850000,  -3.1112790000,   0.0000000000)
 A3 = (  -3.5926460000,   0.0000000000,   0.0000000000)
 
   4 primitive cells build up your supercell.
 

 Routine SETGRP: Setting up the symmetry group for a 
 simple monoclinic supercell.


 Subroutine GETGRP returns: Found  4 space group operations
 (whereof  4 operations were pure point group operations)
 out of a pool of  4 trial point group operations.


The dynamic configuration has the point symmetry C_2h.


Analysis of structural, dynamic, and magnetic symmetry:
=====================================================================
 Subroutine PRICEL returns:
 Original cell was already a primitive cell.
 

 Routine SETGRP: Setting up the symmetry group for a 
 simple monoclinic supercell.


 Subroutine GETGRP returns: Found  4 space group operations
 (whereof  2 operations were pure point group operations)
 out of a pool of  4 trial point group operations.


The magnetic configuration has the point symmetry C_1h.
 The point group associated with its full space group is C_2h.


 Subroutine INISYM returns: Found  4 space group operations
 (whereof  2 operations are pure point group operations),
 and found     1 'primitive' translations

 
 
 KPOINTS: pymatgen v2019.10.16 with grid density =

Automatic generation of k-mesh.
Space group operators:
 irot       det(A)        alpha          n_x          n_y          n_z        tau_x        tau_y        tau_z
    1     1.000000     0.000001     1.000000     0.000000     0.000000     0.000000     0.000000     0.000000
    2    -1.000000   180.000000     0.000000    -0.577347     0.816499     0.000000     0.000000     0.000000
    3    -1.000000     0.000001     1.000000     0.000000     0.000000    -0.500000     0.500000     0.250000
    4     1.000000   180.000000     0.000000    -0.577347     0.816499    -0.500000     0.500000     0.250000
 
 Subroutine IBZKPT returns following result:
 ===========================================
 
 Found     32 irreducible k-points:
 
 Following reciprocal coordinates:
            Coordinates               Weight
  0.062500  0.062500  0.250000      4.000000
  0.187500  0.062500  0.250000      4.000000
  0.312500  0.062500  0.250000      4.000000
  0.437500  0.062500  0.250000      4.000000
  0.062500  0.187500  0.250000      4.000000
  0.187500  0.187500  0.250000      4.000000
  0.312500  0.187500  0.250000      4.000000
  0.437500  0.187500  0.250000      4.000000
  0.062500  0.312500  0.250000      4.000000
  0.187500  0.312500  0.250000      4.000000
  0.312500  0.312500  0.250000      4.000000
  0.437500  0.312500  0.250000      4.000000
  0.062500  0.437500  0.250000      4.000000
  0.187500  0.437500  0.250000      4.000000
  0.312500  0.437500  0.250000      4.000000
  0.437500  0.437500  0.250000      4.000000
  0.062500 -0.437500  0.250000      4.000000
  0.187500 -0.437500  0.250000      4.000000
  0.312500 -0.437500  0.250000      4.000000
  0.437500 -0.437500  0.250000      4.000000
  0.062500 -0.312500  0.250000      4.000000
  0.187500 -0.312500  0.250000      4.000000
  0.312500 -0.312500  0.250000      4.000000
  0.437500 -0.312500  0.250000      4.000000
  0.062500 -0.187500  0.250000      4.000000
  0.187500 -0.187500  0.250000      4.000000
  0.312500 -0.187500  0.250000      4.000000
  0.437500 -0.187500  0.250000      4.000000
  0.062500 -0.062500  0.250000      4.000000
  0.187500 -0.062500  0.250000      4.000000
  0.312500 -0.062500  0.250000      4.000000
  0.437500 -0.062500  0.250000      4.000000
 
 Following cartesian coordinates:
            Coordinates               Weight
  0.017397  0.010044  0.028409      4.000000
  0.017397 -0.010044  0.056818      4.000000
  0.017397 -0.030133  0.085227      4.000000
  0.017397 -0.050221  0.113636      4.000000
  0.052190  0.010043  0.028408      4.000000
  0.052190 -0.010045  0.056817      4.000000
  0.052190 -0.030133  0.085227      4.000000
  0.052190 -0.050222  0.113636      4.000000
  0.086983  0.010042  0.028408      4.000000
  0.086983 -0.010046  0.056817      4.000000
  0.086983 -0.030134  0.085226      4.000000
  0.086983 -0.050222  0.113635      4.000000
  0.121777  0.010042  0.028407      4.000000
  0.121777 -0.010047  0.056816      4.000000
  0.121777 -0.030135  0.085225      4.000000
  0.121777 -0.050223  0.113635      4.000000
 -0.121777  0.010047  0.028411      4.000000
 -0.121777 -0.010042  0.056820      4.000000
 -0.121777 -0.030130  0.085230      4.000000
 -0.121777 -0.050218  0.113639      4.000000
 -0.086983  0.010046  0.028410      4.000000
 -0.086983 -0.010042  0.056820      4.000000
 -0.086983 -0.030131  0.085229      4.000000
 -0.086983 -0.050219  0.113638      4.000000
 -0.052190  0.010045  0.028410      4.000000
 -0.052190 -0.010043  0.056819      4.000000
 -0.052190 -0.030131  0.085228      4.000000
 -0.052190 -0.050219  0.113638      4.000000
 -0.017397  0.010044  0.028409      4.000000
 -0.017397 -0.010044  0.056819      4.000000
 -0.017397 -0.030132  0.085228      4.000000
 -0.017397 -0.050220  0.113637      4.000000
 
 TETIRR: Found    330 inequivalent tetrahedra from      768


--------------------------------------------------------------------------------------------------------




 Dimension of arrays:
   k-points           NKPTS =     32   k-points in BZ     NKDIM =     32   number of bands    NBANDS=     56
   number of dos      NEDOS =    301   number of ions     NIONS =      8
   non local maximal  LDIM  =      8   non local SUM 2l+1 LMDIM =     32
   total plane-waves  NPLWV =  62720
   max r-space proj   IRMAX =   8681   max aug-charges    IRDMAX=  27536
   dimension x,y,z NGX =    28 NGY =   28 NGZ =   80
   dimension x,y,z NGXF=    56 NGYF=   56 NGZF=  160
   support grid    NGXF=    56 NGYF=   56 NGZF=  160
   ions per type =               4   4
   NGX,Y,Z   is equivalent  to a cutoff of  12.96, 12.96, 13.09 a.u.
   NGXF,Y,Z  is equivalent  to a cutoff of  25.91, 25.91, 26.18 a.u.

 SYSTEM =  unknown system                          
 POSCAR =  Eu4 O4                                  

 Startparameter for this run:
   NWRITE =      2    write-flag & timer
   PREC   = accura    normal or accurate (medium, high low for compatibility)
   ISTART =      0    job   : 0-new  1-cont  2-samecut
   ICHARG =      0    charge: 1-file 2-atom 10-const
   ISPIN  =      2    spin polarized calculation?
   LNONCOLLINEAR =      F non collinear calculations
   LSORBIT =      F    spin-orbit coupling
   INIWAV =      1    electr: 0-lowe 1-rand  2-diag
   LASPH  =      F    aspherical Exc in radial PAW
   METAGGA=      F    non-selfconsistent MetaGGA calc.

 Electronic Relaxation 1
   ENCUT  =  520.0 eV  38.22 Ry    6.18 a.u.   6.68  6.68 18.89*2*pi/ulx,y,z
   ENINI  =  520.0     initial cutoff
   ENAUG  =  605.4 eV  augmentation charge cutoff
   NELM   =    100;   NELMIN=  2; NELMDL= -5     # of ELM steps 
   EDIFF  = 0.4E-03   stopping-criterion for ELM
   LREAL  =      T    real-space projection
   NLSPLINE    = F    spline interpolate recip. space projectors
   LCOMPAT=      F    compatible to vasp.4.4
   GGA_COMPAT  = T    GGA compatible to vasp.4.4-vasp.4.6
   LMAXPAW     = -100 max onsite density
   LMAXMIX     =    2 max onsite mixed and CHGCAR
   VOSKOWN=      0    Vosko Wilk Nusair interpolation
   ROPT   =   -0.00025  -0.00025
 Ionic relaxation
   EDIFFG = 0.4E-02   stopping-criterion for IOM
   NSW    =      0    number of steps for IOM
   NBLOCK =      1;   KBLOCK =      1    inner block; outer block 
   IBRION =     -1    ionic relax: 0-MD 1-quasi-New 2-CG
   NFREE  =      0    steps in history (QN), initial steepest desc. (CG)
   ISIF   =      3    stress and relaxation
   IWAVPR =     10    prediction:  0-non 1-charg 2-wave 3-comb
   ISYM   =      2    0-nonsym 1-usesym 2-fastsym
   LCORR  =      T    Harris-Foulkes like correction to forces

   POTIM  = 0.5000    time-step for ionic-motion
   TEIN   =    0.0    initial temperature
   TEBEG  =    0.0;   TEEND  =   0.0 temperature during run
   SMASS  =  -3.00    Nose mass-parameter (am)
   estimated Nose-frequenzy (Omega)   =  0.10E-29 period in steps =****** mass=  -0.295E-27a.u.
   SCALEE = 1.0000    scale energy and forces
   NPACO  =    256;   APACO  = 16.0  distance and # of slots for P.C.
   PSTRESS=    0.0 pullay stress

  Mass of Ions in am
   POMASS = 151.97 16.00
  Ionic Valenz
   ZVAL   =  17.00  6.00
  Atomic Wigner-Seitz radii
   RWIGS  =  -1.00 -1.00
  virtual crystal weights 
   VCA    =   1.00  1.00
   NELECT =      92.0000    total number of electrons
   NUPDOWN=      -1.0000    fix difference up-down

 DOS related values:
   EMIN   =  10.00;   EMAX   =-10.00  energy-range for DOS
   EFERMI =   0.00
   ISMEAR =    -5;   SIGMA  =   0.05  broadening in eV -4-tet -1-fermi 0-gaus

 Electronic relaxation 2 (details)
   IALGO  =     38    algorithm
   LDIAG  =      T    sub-space diagonalisation (order eigenvalues)
   LSUBROT=      F    optimize rotation matrix (better conditioning)
   TURBO    =      0    0=normal 1=particle mesh
   IRESTART =      0    0=no restart 2=restart with 2 vectors
   NREBOOT  =      0    no. of reboots
   NMIN     =      0    reboot dimension
   EREF     =   0.00    reference energy to select bands
   IMIX   =      4    mixing-type and parameters
     AMIX     =   0.40;   BMIX     =  1.00
     AMIX_MAG =   1.60;   BMIX_MAG =  1.00
     AMIN     =   0.10
     WC   =   100.;   INIMIX=   1;  MIXPRE=   1;  MAXMIX= -45

 Intra band minimization:
   WEIMIN = 0.0000     energy-eigenvalue tresh-hold
   EBREAK =  0.18E-05  absolut break condition
   DEPER  =   0.30     relativ break condition  

   TIME   =   0.40     timestep for ELM

  volume/ion in A,a.u.               =      16.39       110.63
  Fermi-wavevector in a.u.,A,eV,Ry     =   1.454607  2.748810 28.788334  2.115883
  Thomas-Fermi vector in A             =   2.571738
 
 Write flags
   LWAVE        =      F    write WAVECAR
   LDOWNSAMPLE  =      F    k-point downsampling of WAVECAR
   LCHARG       =      T    write CHGCAR
   LVTOT        =      F    write LOCPOT, total local potential
   LVHAR        =      T    write LOCPOT, Hartree potential only
   LELF         =      F    write electronic localiz. function (ELF)
   LORBIT       =     11    0 simple, 1 ext, 2 COOP (PROOUT), +10 PAW based schemes


 Dipole corrections
   LMONO  =      F    monopole corrections only (constant potential shift)
   LDIPOL =      F    correct potential (dipole corrections)
   IDIPOL =      0    1-x, 2-y, 3-z, 4-all directions 
   EPSILON=  1.0000000 bulk dielectric constant

 Exchange correlation treatment:
   GGA     =    --    GGA type
   LEXCH   =     8    internal setting for exchange type
   VOSKOWN=      0    Vosko Wilk Nusair interpolation
   LHFCALC =     F    Hartree Fock is set to
   LHFONE  =     F    Hartree Fock one center treatment
   AEXX    =    0.0000 exact exchange contribution

 Linear response parameters
   LEPSILON=     F    determine dielectric tensor
   LRPA    =     F    only Hartree local field effects (RPA)
   LNABLA  =     F    use nabla operator in PAW spheres
   LVEL    =     F    velocity operator in full k-point grid
   LINTERFAST=   F  fast interpolation
   KINTER  =     0    interpolate to denser k-point grid
   CSHIFT  =0.1000    complex shift for real part using Kramers Kronig
   OMEGAMAX=  -1.0    maximum frequency
   DEG_THRESHOLD= 0.2000000E-02 threshold for treating states as degnerate
   RTIME   =   -0.100 relaxation time in fs
  (WPLASMAI=    0.000 imaginary part of plasma frequency in eV, 0.658/RTIME)
   DFIELD  = 0.0000000 0.0000000 0.0000000 field for delta impulse in time
 
 Orbital magnetization related:
   ORBITALMAG=     F  switch on orbital magnetization
   LCHIMAG   =     F  perturbation theory with respect to B field
   DQ        =  0.001000  dq finite difference perturbation B field
   LLRAUG    =     F  two centre corrections for induced B field



--------------------------------------------------------------------------------------------------------


 Static calculation
 charge density and potential will be updated during run
 spin polarized calculation
 Variant of blocked Davidson
 Davidson routine will perform the subspace rotation
 perform sub-space diagonalisation
    after iterative eigenvector-optimisation
 modified Broyden-mixing scheme, WC =      100.0
 initial mixing is a Kerker type mixing with AMIX =  0.4000 and BMIX =      1.0000
 Hartree-type preconditioning will be used
 using additional bands           10
 real space projection scheme for non local part
 use partial core corrections
 calculate Harris-corrections to forces 
   (improved forces if not selfconsistent)
 use gradient corrections 
 use of overlap-Matrix (Vanderbilt PP)
 Fermi weights with tetrahedron method with Bloechl corrections


--------------------------------------------------------------------------------------------------------


  energy-cutoff  :      520.00
  volume of cell :      131.15
      direct lattice vectors                 reciprocal lattice vectors
     0.000008000 -2.074162000  2.933334000     0.000000000 -0.160705613  0.227273990
     3.592646000  0.000000000  0.000000000     0.278346378 -0.000005547 -0.000004681
     0.000264000  8.296792000  5.866668000     0.000000000  0.080352807  0.056817511

  length of vectors
     3.592575171  3.592646000 10.161424653     0.278351865  0.278346378  0.098411397


 
 k-points in units of 2pi/SCALE and weight: pymatgen v2019.10.16 with grid density =
   0.01739665  0.01004375  0.02840871       0.031
   0.01739665 -0.01004445  0.05681796       0.031
   0.01739665 -0.03013265  0.08522721       0.031
   0.01739665 -0.05022085  0.11363646       0.031
   0.05218995  0.01004306  0.02840812       0.031
   0.05218995 -0.01004514  0.05681737       0.031
   0.05218995 -0.03013334  0.08522662       0.031
   0.05218995 -0.05022154  0.11363587       0.031
   0.08698324  0.01004237  0.02840754       0.031
   0.08698324 -0.01004583  0.05681679       0.031
   0.08698324 -0.03013404  0.08522604       0.031
   0.08698324 -0.05022224  0.11363529       0.031
   0.12177654  0.01004167  0.02840695       0.031
   0.12177654 -0.01004653  0.05681620       0.031
   0.12177654 -0.03013473  0.08522545       0.031
   0.12177654 -0.05022293  0.11363470       0.031
  -0.12177654  0.01004653  0.02841105       0.031
  -0.12177654 -0.01004167  0.05682030       0.031
  -0.12177654 -0.03012988  0.08522955       0.031
  -0.12177654 -0.05021808  0.11363880       0.031
  -0.08698324  0.01004583  0.02841047       0.031
  -0.08698324 -0.01004237  0.05681971       0.031
  -0.08698324 -0.03013057  0.08522896       0.031
  -0.08698324 -0.05021877  0.11363821       0.031
  -0.05218995  0.01004514  0.02840988       0.031
  -0.05218995 -0.01004306  0.05681913       0.031
  -0.05218995 -0.03013126  0.08522838       0.031
  -0.05218995 -0.05021946  0.11363763       0.031
  -0.01739665  0.01004445  0.02840929       0.031
  -0.01739665 -0.01004375  0.05681854       0.031
  -0.01739665 -0.03013196  0.08522779       0.031
  -0.01739665 -0.05022016  0.11363704       0.031
 
 k-points in reciprocal lattice and weights: pymatgen v2019.10.16 with grid density =
   0.06250000  0.06250000  0.25000000       0.031
   0.18750000  0.06250000  0.25000000       0.031
   0.31250000  0.06250000  0.25000000       0.031
   0.43750000  0.06250000  0.25000000       0.031
   0.06250000  0.18750000  0.25000000       0.031
   0.18750000  0.18750000  0.25000000       0.031
   0.31250000  0.18750000  0.25000000       0.031
   0.43750000  0.18750000  0.25000000       0.031
   0.06250000  0.31250000  0.25000000       0.031
   0.18750000  0.31250000  0.25000000       0.031
   0.31250000  0.31250000  0.25000000       0.031
   0.43750000  0.31250000  0.25000000       0.031
   0.06250000  0.43750000  0.25000000       0.031
   0.18750000  0.43750000  0.25000000       0.031
   0.31250000  0.43750000  0.25000000       0.031
   0.43750000  0.43750000  0.25000000       0.031
   0.06250000 -0.43750000  0.25000000       0.031
   0.18750000 -0.43750000  0.25000000       0.031
   0.31250000 -0.43750000  0.25000000       0.031
   0.43750000 -0.43750000  0.25000000       0.031
   0.06250000 -0.31250000  0.25000000       0.031
   0.18750000 -0.31250000  0.25000000       0.031
   0.31250000 -0.31250000  0.25000000       0.031
   0.43750000 -0.31250000  0.25000000       0.031
   0.06250000 -0.18750000  0.25000000       0.031
   0.18750000 -0.18750000  0.25000000       0.031
   0.31250000 -0.18750000  0.25000000       0.031
   0.43750000 -0.18750000  0.25000000       0.031
   0.06250000 -0.06250000  0.25000000       0.031
   0.18750000 -0.06250000  0.25000000       0.031
   0.31250000 -0.06250000  0.25000000       0.031
   0.43750000 -0.06250000  0.25000000       0.031
 
 position of ions in fractional coordinates (direct lattice) 
   0.00000000  0.00000000  0.50000000
   0.50000000  0.50000000  0.75000000
   0.00000000  0.00000000  0.00000000
   0.50000000  0.50000000  0.25000000
   0.00000000  0.00000000  0.75000000
   0.50000000  0.50000000  0.00000000
   0.00000000  0.00000000  0.25000000
   0.50000000  0.50000000  0.50000000
 
 position of ions in cartesian coordinates  (Angst):
   0.00013200  4.14839600  2.93333400
   1.79652500  5.18551300  5.86666800
   0.00000000  0.00000000  0.00000000
   1.79639300  1.03711700  2.93333400
   0.00019800  6.22259400  4.40000100
   1.79632700 -1.03708100  1.46666700
   0.00006600  2.07419800  1.46666700
   1.79645900  3.11131500  4.40000100
 


--------------------------------------------------------------------------------------------------------


 k-point  1 :   0.0625 0.0625 0.2500  plane waves:    3543
 k-point  2 :   0.1875 0.0625 0.2500  plane waves:    3546
 k-point  3 :   0.3125 0.0625 0.2500  plane waves:    3533
 k-point  4 :   0.4375 0.0625 0.2500  plane waves:    3519
 k-point  5 :   0.0625 0.1875 0.2500  plane waves:    3546
 k-point  6 :   0.1875 0.1875 0.2500  plane waves:    3539
 k-point  7 :   0.3125 0.1875 0.2500  plane waves:    3517
 k-point  8 :   0.4375 0.1875 0.2500  plane waves:    3524
 k-point  9 :   0.0625 0.3125 0.2500  plane waves:    3533
 k-point 10 :   0.1875 0.3125 0.2500  plane waves:    3517
 k-point 11 :   0.3125 0.3125 0.2500  plane waves:    3525
 k-point 12 :   0.4375 0.3125 0.2500  plane waves:    3532
 k-point 13 :   0.0625 0.4375 0.2500  plane waves:    3519
 k-point 14 :   0.1875 0.4375 0.2500  plane waves:    3524
 k-point 15 :   0.3125 0.4375 0.2500  plane waves:    3532
 k-point 16 :   0.4375 0.4375 0.2500  plane waves:    3544
 k-point 17 :   0.0625-0.4375 0.2500  plane waves:    3519
 k-point 18 :   0.1875-0.4375 0.2500  plane waves:    3524
 k-point 19 :   0.3125-0.4375 0.2500  plane waves:    3532
 k-point 20 :   0.4375-0.4375 0.2500  plane waves:    3544
 k-point 21 :   0.0625-0.3125 0.2500  plane waves:    3533
 k-point 22 :   0.1875-0.3125 0.2500  plane waves:    3517
 k-point 23 :   0.3125-0.3125 0.2500  plane waves:    3525
 k-point 24 :   0.4375-0.3125 0.2500  plane waves:    3532
 k-point 25 :   0.0625-0.1875 0.2500  plane waves:    3546
 k-point 26 :   0.1875-0.1875 0.2500  plane waves:    3539
 k-point 27 :   0.3125-0.1875 0.2500  plane waves:    3517
 k-point 28 :   0.4375-0.1875 0.2500  plane waves:    3524
 k-point 29 :   0.0625-0.0625 0.2500  plane waves:    3543
 k-point 30 :   0.1875-0.0625 0.2500  plane waves:    3546
 k-point 31 :   0.3125-0.0625 0.2500  plane waves:    3533
 k-point 32 :   0.4375-0.0625 0.2500  plane waves:    3519

 maximum and minimum number of plane-waves per node :      3546     3517

 maximum number of plane-waves:      3546
 maximum index in each direction: 
   IXMAX=    6   IYMAX=    7   IZMAX=   18
   IXMIN=   -7   IYMIN=   -7   IZMIN=  -19


 serial   3D FFT for wavefunctions
 parallel 3D FFT for charge:
    minimum data exchange during FFTs selected (reduces bandwidth)


 total amount of memory used by VASP MPI-rank0    81310. kBytes
=======================================================================

   base      :      30000. kBytes
   nonlr-proj:      11419. kBytes
   fftplans  :       2388. kBytes
   grid      :      10110. kBytes
   one-center:        786. kBytes
   wavefun   :      26607. kBytes
 
     INWAV:  cpu time    0.0000: real time    0.0001
 Broyden mixing: mesh for mixing (old mesh)
   NGX = 13   NGY = 13   NGZ = 37
  (NGX  = 56   NGY  = 56   NGZ  =160)
  gives a total of   6253 points

 charge density for first step will be calculated from the start-wavefunctions


--------------------------------------------------------------------------------------------------------


 Maximum index for non-local projection operator         8361
 Maximum index for augmentation-charges         3377 (set IRDMAX)


--------------------------------------------------------------------------------------------------------


 initial charge from wavefunction
 First call to EWALD:  gamma=   0.349
 Maximum number of real-space cells 4x 4x 2
 Maximum number of reciprocal cells 2x 2x 5

    FEWALD:  cpu time    0.0013: real time    0.0013


--------------------------------------- Iteration      1(   1)  ---------------------------------------


    POTLOK:  cpu time    0.1520: real time    0.1762
    SETDIJ:  cpu time    0.0151: real time    0.0151
     EDDAV:  cpu time   13.7391: real time   13.7877
 BZINTS: Fermi energy: 20.672856; 92.000000 electrons
         Band energy:***********;  BLOECHL correction: -2.163096
       DOS:  cpu time    0.0541: real time    0.0542
    --------------------------------------------
      LOOP:  cpu time   13.9603: real time   14.0333

 eigenvalue-minimisations  : 10032
 total energy-change (2. order) : 0.1630893E+03  (-0.4571169E+04)
 number of electron      92.0000013 magnetization      -0.0000001
 augmentation part       17.8818344 magnetization       0.0196030

 Free energy of the ion-electron system (eV)
  ---------------------------------------------------
  alpha Z        PSCENC =       906.21123931
  Ewald energy   TEWEN  =     -9706.50108216
  -Hartree energ DENC   =      -779.45658562
  -exchange      EXHF   =         0.00000000
  -V(xc)+E(xc)   XCENC  =       343.85875060
  PAW double counting   =     13503.57082447   -13995.99144034
  entropy T*S    EENTRO =         0.00000000
  eigenvalues    EBANDS =     -2317.26228920
  atomic energy  EATOM  =     12208.65988691
  Solvation  Ediel_sol  =         0.00000000
  ---------------------------------------------------
  free energy    TOTEN  =       163.08930396 eV

  energy without entropy =      163.08930396  energy(sigma->0) =      163.08930396


--------------------------------------------------------------------------------------------------------




--------------------------------------- Iteration      1(   2)  ---------------------------------------


     EDDAV:  cpu time   12.2260: real time   12.2601
 BZINTS: Fermi energy:-28.973596; 92.000000 electrons
         Band energy:***********;  BLOECHL correction: -0.308622
       DOS:  cpu time    0.0584: real time    0.0586
    --------------------------------------------
      LOOP:  cpu time   12.2844: real time   12.3186

 eigenvalue-minimisations  :  8544
 total energy-change (2. order) :-0.1488586E+04  (-0.1394250E+04)
 number of electron      92.0000013 magnetization      -0.0000001
 augmentation part       17.8818344 magnetization       0.0196030

 Free energy of the ion-electron system (eV)
  ---------------------------------------------------
  alpha Z        PSCENC =       906.21123931
  Ewald energy   TEWEN  =     -9706.50108216
  -Hartree energ DENC   =      -779.45658562
  -exchange      EXHF   =         0.00000000
  -V(xc)+E(xc)   XCENC  =       343.85875060
  PAW double counting   =     13503.57082447   -13995.99144034
  entropy T*S    EENTRO =         0.00000000
  eigenvalues    EBANDS =     -3805.84810512
  atomic energy  EATOM  =     12208.65988691
  Solvation  Ediel_sol  =         0.00000000
  ---------------------------------------------------
  free energy    TOTEN  =     -1325.49651195 eV

  energy without entropy =    -1325.49651195  energy(sigma->0) =    -1325.49651195


--------------------------------------------------------------------------------------------------------




--------------------------------------- Iteration      1(   3)  ---------------------------------------


     EDDAV:  cpu time   12.3162: real time   12.3520
 BZINTS: Fermi energy:-32.031423; 92.000000 electrons
         Band energy:***********;  BLOECHL correction: -0.004971
       DOS:  cpu time    0.0649: real time    0.0651
    --------------------------------------------
      LOOP:  cpu time   12.3811: real time   12.4171

 eigenvalue-minimisations  :  8648
 total energy-change (2. order) :-0.3556232E+03  (-0.3018123E+03)
 number of electron      92.0000013 magnetization      -0.0000001
 augmentation part       17.8818344 magnetization       0.0196030

 Free energy of the ion-electron system (eV)
  ---------------------------------------------------
  alpha Z        PSCENC =       906.21123931
  Ewald energy   TEWEN  =     -9706.50108216
  -Hartree energ DENC   =      -779.45658562
  -exchange      EXHF   =         0.00000000
  -V(xc)+E(xc)   XCENC  =       343.85875060
  PAW double counting   =     13503.57082447   -13995.99144034
  entropy T*S    EENTRO =         0.00000000
  eigenvalues    EBANDS =     -4161.47132463
  atomic energy  EATOM  =     12208.65988691
  Solvation  Ediel_sol  =         0.00000000
  ---------------------------------------------------
  free energy    TOTEN  =     -1681.11973147 eV

  energy without entropy =    -1681.11973147  energy(sigma->0) =    -1681.11973147


--------------------------------------------------------------------------------------------------------




--------------------------------------- Iteration      1(   4)  ---------------------------------------


     EDDAV:  cpu time   14.8727: real time   14.9147
 BZINTS: Fermi energy:-32.103272; 92.000000 electrons
         Band energy:***********;  BLOECHL correction: -0.000835
       DOS:  cpu time    0.0697: real time    0.0699
    --------------------------------------------
      LOOP:  cpu time   14.9424: real time   14.9846

 eigenvalue-minimisations  : 10904
 total energy-change (2. order) :-0.8090627E+02  (-0.7956528E+02)
 number of electron      92.0000013 magnetization      -0.0000001
 augmentation part       17.8818344 magnetization       0.0196030

 Free energy of the ion-electron system (eV)
  ---------------------------------------------------
  alpha Z        PSCENC =       906.21123931
  Ewald energy   TEWEN  =     -9706.50108216
  -Hartree energ DENC   =      -779.45658562
  -exchange      EXHF   =         0.00000000
  -V(xc)+E(xc)   XCENC  =       343.85875060
  PAW double counting   =     13503.57082447   -13995.99144034
  entropy T*S    EENTRO =         0.00000000
  eigenvalues    EBANDS =     -4242.37759804
  atomic energy  EATOM  =     12208.65988691
  Solvation  Ediel_sol  =         0.00000000
  ---------------------------------------------------
  free energy    TOTEN  =     -1762.02600487 eV

  energy without entropy =    -1762.02600487  energy(sigma->0) =    -1762.02600487


--------------------------------------------------------------------------------------------------------




--------------------------------------- Iteration      1(   5)  ---------------------------------------


     EDDAV:  cpu time   15.5883: real time   15.6335
 BZINTS: Fermi energy:-32.116305; 92.000000 electrons
         Band energy:***********;  BLOECHL correction: -0.000411
       DOS:  cpu time    0.0656: real time    0.0657
    CHARGE:  cpu time    0.3519: real time    0.3531
    MIXING:  cpu time    0.0015: real time    0.0015
    --------------------------------------------
      LOOP:  cpu time   16.0072: real time   16.0538

 eigenvalue-minimisations  : 11560
 total energy-change (2. order) :-0.7496220E+01  (-0.7388149E+01)
 number of electron      92.0000085 magnetization       0.0440542
 augmentation part       37.6305356 magnetization       0.1344606

 Broyden mixing:
  rms(total) = 0.25387E+02    rms(broyden)= 0.25373E+02
  rms(prec ) = 0.33228E+02
  weight for this iteration     100.00

 Free energy of the ion-electron system (eV)
  ---------------------------------------------------
  alpha Z        PSCENC =       906.21123931
  Ewald energy   TEWEN  =     -9706.50108216
  -Hartree energ DENC   =      -779.45658562
  -exchange      EXHF   =         0.00000000
  -V(xc)+E(xc)   XCENC  =       343.85875060
  PAW double counting   =     13503.57082447   -13995.99144034
  entropy T*S    EENTRO =         0.00000000
  eigenvalues    EBANDS =     -4249.87381782
  atomic energy  EATOM  =     12208.65988691
  Solvation  Ediel_sol  =         0.00000000
  ---------------------------------------------------
  free energy    TOTEN  =     -1769.52222465 eV

  energy without entropy =    -1769.52222465  energy(sigma->0) =    -1769.52222465


--------------------------------------------------------------------------------------------------------




--------------------------------------- Iteration      1(   6)  ---------------------------------------


    POTLOK:  cpu time    0.0684: real time    0.0712
    SETDIJ:  cpu time    0.0142: real time    0.0142
     EDDAV:  cpu time   15.1286: real time   15.1712
 BZINTS: Fermi energy:  3.117029; 92.000000 electrons
         Band energy:***********;  BLOECHL correction: -0.286801
       DOS:  cpu time    0.0612: real time    0.0614
    CHARGE:  cpu time    0.3591: real time    0.3600
    MIXING:  cpu time    0.0017: real time    0.0017
    --------------------------------------------
      LOOP:  cpu time   15.6332: real time   15.6797

 eigenvalue-minimisations  : 11344
 total energy-change (2. order) : 0.2533333E+03  (-0.1335143E+04)
 number of electron      92.0000059 magnetization       0.0132275
 augmentation part       28.5652429 magnetization       0.0063725

 Broyden mixing:
  rms(total) = 0.24131E+02    rms(broyden)= 0.24130E+02
  rms(prec ) = 0.31053E+02
  weight for this iteration     100.00

 eigenvalues of (default mixing * dielectric matrix)
  average eigenvalue GAMMA=   0.5167
  0.5167

 Free energy of the ion-electron system (eV)
  ---------------------------------------------------
  alpha Z        PSCENC =       906.21123931
  Ewald energy   TEWEN  =     -9706.50108216
  -Hartree energ DENC   =     -1838.47788709
  -exchange      EXHF   =         0.00000000
  -V(xc)+E(xc)   XCENC  =       399.50570266
  PAW double counting   =     13392.47508007   -14270.21121302
  entropy T*S    EENTRO =         0.00000000
  eigenvalues    EBANDS =     -2607.85068751
  atomic energy  EATOM  =     12208.65988691
  Solvation  Ediel_sol  =         0.00000000
  ---------------------------------------------------
  free energy    TOTEN  =     -1516.18896082 eV

  energy without entropy =    -1516.18896082  energy(sigma->0) =    -1516.18896082


--------------------------------------------------------------------------------------------------------




--------------------------------------- Iteration      1(   7)  ---------------------------------------


    POTLOK:  cpu time    0.0675: real time    0.0677
    SETDIJ:  cpu time    0.0136: real time    0.0136
     EDDAV:  cpu time   13.2202: real time   13.2559
 BZINTS: Fermi energy:  3.040567; 92.000000 electrons
         Band energy:***********;  BLOECHL correction: -0.090079
       DOS:  cpu time    0.0543: real time    0.0545
    CHARGE:  cpu time    0.3564: real time    0.3573
    MIXING:  cpu time    0.0017: real time    0.0017
    --------------------------------------------
      LOOP:  cpu time   13.7137: real time   13.7508

 eigenvalue-minimisations  :  9704
 total energy-change (2. order) : 0.1332252E+04  (-0.1303819E+03)
 number of electron      92.0000054 magnetization       0.0153013
 augmentation part       27.9527945 magnetization       0.0581331

 Broyden mixing:
  rms(total) = 0.20800E+02    rms(broyden)= 0.20799E+02
  rms(prec ) = 0.25834E+02
  weight for this iteration     100.00

 eigenvalues of (default mixing * dielectric matrix)
  average eigenvalue GAMMA=   0.2758
  0.5078  0.0437

 Free energy of the ion-electron system (eV)
  ---------------------------------------------------
  alpha Z        PSCENC =       906.21123931
  Ewald energy   TEWEN  =     -9706.50108216
  -Hartree energ DENC   =     -1997.19954840
  -exchange      EXHF   =         0.00000000
  -V(xc)+E(xc)   XCENC  =       409.64341095
  PAW double counting   =     12927.35762709   -13770.44617262
  entropy T*S    EENTRO =         0.00000000
  eigenvalues    EBANDS =     -1161.66207480
  atomic energy  EATOM  =     12208.65988691
  Solvation  Ediel_sol  =         0.00000000
  ---------------------------------------------------
  free energy    TOTEN  =      -183.93671372 eV

  energy without entropy =     -183.93671372  energy(sigma->0) =     -183.93671372


--------------------------------------------------------------------------------------------------------




--------------------------------------- Iteration      1(   8)  ---------------------------------------


    POTLOK:  cpu time    0.0757: real time    0.0760
    SETDIJ:  cpu time    0.0158: real time    0.0159
     EDDAV:  cpu time   14.3279: real time   14.3667
 BZINTS: Fermi energy: -0.725747; 92.000000 electrons
         Band energy:***********;  BLOECHL correction:  0.000000
       DOS:  cpu time    0.0111: real time    0.0111
    CHARGE:  cpu time    0.3591: real time    0.3600
    MIXING:  cpu time    0.0016: real time    0.0016
    --------------------------------------------
      LOOP:  cpu time   14.7912: real time   14.8312

 eigenvalue-minimisations  : 10672
 total energy-change (2. order) :-0.5410100E+02  (-0.1305829E+03)
 number of electron      92.0000048 magnetization      -0.0050247
 augmentation part       27.2682161 magnetization      -0.0076456

 Broyden mixing:
  rms(total) = 0.18605E+02    rms(broyden)= 0.18605E+02
  rms(prec ) = 0.23813E+02
  weight for this iteration     100.00

 eigenvalues of (default mixing * dielectric matrix)
  average eigenvalue GAMMA=   0.4663
  0.8371  0.2809  0.2809

 Free energy of the ion-electron system (eV)
  ---------------------------------------------------
  alpha Z        PSCENC =       906.21123931
  Ewald energy   TEWEN  =     -9706.50108216
  -Hartree energ DENC   =     -2049.95553057
  -exchange      EXHF   =         0.00000000
  -V(xc)+E(xc)   XCENC  =       412.13332549
  PAW double counting   =     12778.59556812   -13615.22051107
  entropy T*S    EENTRO =         0.00000000
  eigenvalues    EBANDS =     -1171.96061299
  atomic energy  EATOM  =     12208.65988691
  Solvation  Ediel_sol  =         0.00000000
  ---------------------------------------------------
  free energy    TOTEN  =      -238.03771695 eV

  energy without entropy =     -238.03771695  energy(sigma->0) =     -238.03771695


--------------------------------------------------------------------------------------------------------




--------------------------------------- Iteration      1(   9)  ---------------------------------------


    POTLOK:  cpu time    0.0720: real time    0.0723
    SETDIJ:  cpu time    0.0157: real time    0.0157
     EDDAV:  cpu time   17.3060: real time   17.3523
 BZINTS: Fermi energy:  6.473450; 92.000000 electrons
         Band energy:***********;  BLOECHL correction: -0.197931
       DOS:  cpu time    0.0595: real time    0.0597
    CHARGE:  cpu time    0.3690: real time    0.3699
    MIXING:  cpu time    0.0020: real time    0.0020
    --------------------------------------------
      LOOP:  cpu time   17.8242: real time   17.8719

 eigenvalue-minimisations  : 12680
 total energy-change (2. order) :-0.5771207E+03  (-0.9180765E+03)
 number of electron      92.0000037 magnetization      -0.1629415
 augmentation part       26.8557206 magnetization       0.0022640

 Broyden mixing:
  rms(total) = 0.18070E+02    rms(broyden)= 0.18070E+02
  rms(prec ) = 0.27632E+02
  weight for this iteration     100.00

 eigenvalues of (default mixing * dielectric matrix)
  average eigenvalue GAMMA=   0.7682
  1.3043  1.3043  0.2320  0.2320

 Free energy of the ion-electron system (eV)
  ---------------------------------------------------
  alpha Z        PSCENC =       906.21123931
  Ewald energy   TEWEN  =     -9706.50108216
  -Hartree energ DENC   =     -2362.48009145
  -exchange      EXHF   =         0.00000000
  -V(xc)+E(xc)   XCENC  =       426.26541613
  PAW double counting   =     12560.40614355   -13427.69360514
  entropy T*S    EENTRO =         0.00000000
  eigenvalues    EBANDS =     -1420.02630781
  atomic energy  EATOM  =     12208.65988691
  Solvation  Ediel_sol  =         0.00000000
  ---------------------------------------------------
  free energy    TOTEN  =      -815.15840066 eV

  energy without entropy =     -815.15840066  energy(sigma->0) =     -815.15840066


--------------------------------------------------------------------------------------------------------




--------------------------------------- Iteration      1(  10)  ---------------------------------------


    POTLOK:  cpu time    0.0768: real time    0.0779
    SETDIJ:  cpu time    0.0154: real time    0.0154
     EDDAV:  cpu time   17.5759: real time   17.6232
 BZINTS: Fermi energy:  4.100521; 92.000000 electrons
         Band energy:-804.218113;  BLOECHL correction: -0.003936
       DOS:  cpu time    0.0490: real time    0.0491
    CHARGE:  cpu time    0.3619: real time    0.3628
    MIXING:  cpu time    0.0020: real time    0.0020
    --------------------------------------------
      LOOP:  cpu time   18.0810: real time   18.1304

 eigenvalue-minimisations  : 12752
 total energy-change (2. order) : 0.5111296E+03  (-0.1491377E+03)
 number of electron      92.0000041 magnetization      -0.1700179
 augmentation part       25.8420999 magnetization      -0.2234324

 Broyden mixing:
  rms(total) = 0.15391E+02    rms(broyden)= 0.15391E+02
  rms(prec ) = 0.21407E+02
  weight for this iteration     100.00

 eigenvalues of (default mixing * dielectric matrix)
  average eigenvalue GAMMA=   0.8751
  1.6128  1.6128  0.7074  0.2211  0.2211

 Free energy of the ion-electron system (eV)
  ---------------------------------------------------
  alpha Z        PSCENC =       906.21123931
  Ewald energy   TEWEN  =     -9706.50108216
  -Hartree energ DENC   =     -2478.56006932
  -exchange      EXHF   =         0.00000000
  -V(xc)+E(xc)   XCENC  =       430.94718027
  PAW double counting   =     11847.36876653   -12707.93665173
  entropy T*S    EENTRO =         0.00000000
  eigenvalues    EBANDS =      -804.21811254
  atomic energy  EATOM  =     12208.65988691
  Solvation  Ediel_sol  =         0.00000000
  ---------------------------------------------------
  free energy    TOTEN  =      -304.02884274 eV

  energy without entropy =     -304.02884274  energy(sigma->0) =     -304.02884274


--------------------------------------------------------------------------------------------------------




--------------------------------------- Iteration      1(  11)  ---------------------------------------


    POTLOK:  cpu time    0.0767: real time    0.0771
    SETDIJ:  cpu time    0.0168: real time    0.0169
     EDDAV:  cpu time   18.5518: real time   18.5999
 BZINTS: Fermi energy:  1.260649; 92.000000 electrons
         Band energy:-985.448364;  BLOECHL correction:  0.000000
       DOS:  cpu time    0.0112: real time    0.0112
    CHARGE:  cpu time    0.3608: real time    0.3617
    MIXING:  cpu time    0.0020: real time    0.0020
    --------------------------------------------
      LOOP:  cpu time   19.0193: real time   19.0688

 eigenvalue-minimisations  : 13568
 total energy-change (2. order) :-0.2890481E+03  (-0.2094475E+02)
 number of electron      92.0000046 magnetization      -0.1481754
 augmentation part       26.3143925 magnetization      -0.1564584

 Broyden mixing:
  rms(total) = 0.14104E+02    rms(broyden)= 0.14104E+02
  rms(prec ) = 0.21220E+02
  weight for this iteration     100.00

 eigenvalues of (default mixing * dielectric matrix)
  average eigenvalue GAMMA=   0.8914
  2.1828  1.2743  0.2226  0.2226  0.7233  0.7233

 Free energy of the ion-electron system (eV)
  ---------------------------------------------------
  alpha Z        PSCENC =       906.21123931
  Ewald energy   TEWEN  =     -9706.50108216
  -Hartree energ DENC   =     -2591.36677649
  -exchange      EXHF   =         0.00000000
  -V(xc)+E(xc)   XCENC  =       434.89937876
  PAW double counting   =     11538.73674011   -12398.26792059
  entropy T*S    EENTRO =         0.00000000
  eigenvalues    EBANDS =      -985.44836422
  atomic energy  EATOM  =     12208.65988691
  Solvation  Ediel_sol  =         0.00000000
  ---------------------------------------------------
  free energy    TOTEN  =      -593.07689837 eV

  energy without entropy =     -593.07689837  energy(sigma->0) =     -593.07689837


--------------------------------------------------------------------------------------------------------




--------------------------------------- Iteration      1(  12)  ---------------------------------------


    POTLOK:  cpu time    0.0785: real time    0.0788
    SETDIJ:  cpu time    0.0165: real time    0.0165
     EDDAV:  cpu time   18.0817: real time   18.1291
 BZINTS: Fermi energy:  3.169172; 92.000000 electrons
         Band energy:-878.705616;  BLOECHL correction: -0.040055
       DOS:  cpu time    0.0581: real time    0.0582
    CHARGE:  cpu time    0.3590: real time    0.3599
    MIXING:  cpu time    0.0019: real time    0.0019
    --------------------------------------------
      LOOP:  cpu time   18.5957: real time   18.6444

 eigenvalue-minimisations  : 13232
 total energy-change (2. order) :-0.1719732E+02  (-0.6907706E+01)
 number of electron      92.0000036 magnetization      -0.1570084
 augmentation part       25.2524157 magnetization      -0.0225245

 Broyden mixing:
  rms(total) = 0.13676E+02    rms(broyden)= 0.13676E+02
  rms(prec ) = 0.21945E+02
  weight for this iteration     100.00

 eigenvalues of (default mixing * dielectric matrix)
  average eigenvalue GAMMA=   0.8188
  2.1510  1.3538  0.7186  0.7186  0.2231  0.2231  0.3435

 Free energy of the ion-electron system (eV)
  ---------------------------------------------------
  alpha Z        PSCENC =       906.21123931
  Ewald energy   TEWEN  =     -9706.50108216
  -Hartree energ DENC   =     -2719.66320255
  -exchange      EXHF   =         0.00000000
  -V(xc)+E(xc)   XCENC  =       441.93728795
  PAW double counting   =     11406.03070580   -12268.24343403
  entropy T*S    EENTRO =         0.00000000
  eigenvalues    EBANDS =      -878.70561632
  atomic energy  EATOM  =     12208.65988691
  Solvation  Ediel_sol  =         0.00000000
  ---------------------------------------------------
  free energy    TOTEN  =      -610.27421510 eV

  energy without entropy =     -610.27421510  energy(sigma->0) =     -610.27421510


--------------------------------------------------------------------------------------------------------




--------------------------------------- Iteration      1(  13)  ---------------------------------------


    POTLOK:  cpu time    0.0727: real time    0.0730
    SETDIJ:  cpu time    0.0158: real time    0.0158
     EDDAV:  cpu time   18.8894: real time   18.9425
 BZINTS: Fermi energy:  2.725902; 92.000000 electrons
         Band energy:-947.502406;  BLOECHL correction: -0.069533
       DOS:  cpu time    0.0602: real time    0.0603
    CHARGE:  cpu time    0.3756: real time    0.3766
    MIXING:  cpu time    0.0020: real time    0.0020
    --------------------------------------------
      LOOP:  cpu time   19.4157: real time   19.4702

 eigenvalue-minimisations  : 13616
 total energy-change (2. order) :-0.7582535E+02  (-0.9484513E+00)
 number of electron      92.0000035 magnetization      -0.1736434
 augmentation part       25.2810005 magnetization      -0.0077757

 Broyden mixing:
  rms(total) = 0.13645E+02    rms(broyden)= 0.13645E+02
  rms(prec ) = 0.22431E+02
  weight for this iteration     100.00

 eigenvalues of (default mixing * dielectric matrix)
  average eigenvalue GAMMA=   0.8006
  2.1552  1.3675  0.7190  0.7190  0.2224  0.2224  0.4996  0.4996

 Free energy of the ion-electron system (eV)
  ---------------------------------------------------
  alpha Z        PSCENC =       906.21123931
  Ewald energy   TEWEN  =     -9706.50108216
  -Hartree energ DENC   =     -2724.62199362
  -exchange      EXHF   =         0.00000000
  -V(xc)+E(xc)   XCENC  =       441.74964711
  PAW double counting   =     11383.59601212   -12247.69086832
  entropy T*S    EENTRO =         0.00000000
  eigenvalues    EBANDS =      -947.50240601
  atomic energy  EATOM  =     12208.65988691
  Solvation  Ediel_sol  =         0.00000000
  ---------------------------------------------------
  free energy    TOTEN  =      -686.09956466 eV

  energy without entropy =     -686.09956466  energy(sigma->0) =     -686.09956466


--------------------------------------------------------------------------------------------------------




--------------------------------------- Iteration      1(  14)  ---------------------------------------


    POTLOK:  cpu time    0.0752: real time    0.0754
    SETDIJ:  cpu time    0.0149: real time    0.0149
     EDDAV:  cpu time   17.1647: real time   17.2083
 BZINTS: Fermi energy:  2.434196; 92.000000 electrons
         Band energy:-965.722639;  BLOECHL correction: -0.068390
       DOS:  cpu time    0.0590: real time    0.0592
    CHARGE:  cpu time    0.3711: real time    0.3720
    MIXING:  cpu time    0.0026: real time    0.0026
    --------------------------------------------
      LOOP:  cpu time   17.6875: real time   17.7325

 eigenvalue-minimisations  : 11816
 total energy-change (2. order) :-0.5794735E+02  (-0.7426568E+00)
 number of electron      92.0000037 magnetization      -0.2235809
 augmentation part       25.4578869 magnetization      -0.0304415

 Broyden mixing:
  rms(total) = 0.13545E+02    rms(broyden)= 0.13545E+02
  rms(prec ) = 0.22385E+02
  weight for this iteration     100.00

 eigenvalues of (default mixing * dielectric matrix)
  average eigenvalue GAMMA=   0.9077
  2.3415  1.3687  1.1113  1.1113  0.2225  0.2225  0.6269  0.6269  0.5377

 Free energy of the ion-electron system (eV)
  ---------------------------------------------------
  alpha Z        PSCENC =       906.21123931
  Ewald energy   TEWEN  =     -9706.50108216
  -Hartree energ DENC   =     -2762.03256316
  -exchange      EXHF   =         0.00000000
  -V(xc)+E(xc)   XCENC  =       443.08177140
  PAW double counting   =     11399.97920738   -12267.72273831
  entropy T*S    EENTRO =         0.00000000
  eigenvalues    EBANDS =      -965.72263948
  atomic energy  EATOM  =     12208.65988691
  Solvation  Ediel_sol  =         0.00000000
  ---------------------------------------------------
  free energy    TOTEN  =      -744.04691811 eV

  energy without entropy =     -744.04691811  energy(sigma->0) =     -744.04691811


--------------------------------------------------------------------------------------------------------




--------------------------------------- Iteration      1(  15)  ---------------------------------------


    POTLOK:  cpu time    0.0819: real time    0.0823
    SETDIJ:  cpu time    0.0176: real time    0.0177
     EDDAV:  cpu time   18.6452: real time   18.6928
 BZINTS: Fermi energy:  2.041366; 92.000000 electrons
         Band energy:***********;  BLOECHL correction: -0.081067
       DOS:  cpu time    0.0585: real time    0.0586
    CHARGE:  cpu time    0.3710: real time    0.3719
    MIXING:  cpu time    0.0024: real time    0.0024
    --------------------------------------------
      LOOP:  cpu time   19.1766: real time   19.2257

 eigenvalue-minimisations  : 13072
 total energy-change (2. order) :-0.7613565E+02  (-0.8694436E+00)
 number of electron      92.0000039 magnetization      -0.2691753
 augmentation part       25.7735092 magnetization      -0.0112502

 Broyden mixing:
  rms(total) = 0.13512E+02    rms(broyden)= 0.13512E+02
  rms(prec ) = 0.22652E+02
  weight for this iteration     100.00

 eigenvalues of (default mixing * dielectric matrix)
  average eigenvalue GAMMA=   0.9822
  2.2209  2.2209  1.1488  1.1488  0.2225  0.2225  0.6326  0.6326  0.6864  0.6864

 Free energy of the ion-electron system (eV)
  ---------------------------------------------------
  alpha Z        PSCENC =       906.21123931
  Ewald energy   TEWEN  =     -9706.50108216
  -Hartree energ DENC   =     -2793.44714610
  -exchange      EXHF   =         0.00000000
  -V(xc)+E(xc)   XCENC  =       443.89963896
  PAW double counting   =     11436.85251284   -12306.69856145
  entropy T*S    EENTRO =         0.00000000
  eigenvalues    EBANDS =     -1009.15906112
  atomic energy  EATOM  =     12208.65988691
  Solvation  Ediel_sol  =         0.00000000
  ---------------------------------------------------
  free energy    TOTEN  =      -820.18257281 eV

  energy without entropy =     -820.18257281  energy(sigma->0) =     -820.18257281


--------------------------------------------------------------------------------------------------------




--------------------------------------- Iteration      1(  16)  ---------------------------------------


    POTLOK:  cpu time    0.0729: real time    0.0732
    SETDIJ:  cpu time    0.0156: real time    0.0156
     EDDAV:  cpu time   18.8414: real time   18.8883
 BZINTS: Fermi energy:  2.055721; 92.000000 electrons
         Band energy:***********;  BLOECHL correction: -0.067736
       DOS:  cpu time    0.0603: real time    0.0604
    CHARGE:  cpu time    0.3832: real time    0.3841
    MIXING:  cpu time    0.0028: real time    0.0028
    --------------------------------------------
      LOOP:  cpu time   19.3761: real time   19.4245

 eigenvalue-minimisations  : 13256
 total energy-change (2. order) : 0.2554822E+02  (-0.1542750E+00)
 number of electron      92.0000039 magnetization      -0.2886836
 augmentation part       25.8731721 magnetization      -0.0697714

 Broyden mixing:
  rms(total) = 0.13388E+02    rms(broyden)= 0.13388E+02
  rms(prec ) = 0.22389E+02
  weight for this iteration     100.00

 eigenvalues of (default mixing * dielectric matrix)
  average eigenvalue GAMMA=   1.0134
  2.4605  2.4605  1.1664  1.1664  0.2225  0.2225  0.6862  0.6862  0.7247  0.7247
  0.6272

 Free energy of the ion-electron system (eV)
  ---------------------------------------------------
  alpha Z        PSCENC =       906.21123931
  Ewald energy   TEWEN  =     -9706.50108216
  -Hartree energ DENC   =     -2778.48024929
  -exchange      EXHF   =         0.00000000
  -V(xc)+E(xc)   XCENC  =       443.27104433
  PAW double counting   =     11355.04447997   -12217.63934659
  entropy T*S    EENTRO =         0.00000000
  eigenvalues    EBANDS =     -1005.20032946
  atomic energy  EATOM  =     12208.65988691
  Solvation  Ediel_sol  =         0.00000000
  ---------------------------------------------------
  free energy    TOTEN  =      -794.63435698 eV

  energy without entropy =     -794.63435698  energy(sigma->0) =     -794.63435698


--------------------------------------------------------------------------------------------------------




--------------------------------------- Iteration      1(  17)  ---------------------------------------


    POTLOK:  cpu time    0.0829: real time    0.0832
    SETDIJ:  cpu time    0.0161: real time    0.0162
     EDDAV:  cpu time   15.3610: real time   15.4003
 BZINTS: Fermi energy:  2.078515; 92.000000 electrons
         Band energy:-927.399296;  BLOECHL correction: -0.044686
       DOS:  cpu time    0.0557: real time    0.0559
    CHARGE:  cpu time    0.3753: real time    0.3763
    MIXING:  cpu time    0.0029: real time    0.0029
    --------------------------------------------
      LOOP:  cpu time   15.8940: real time   15.9347

 eigenvalue-minimisations  : 10408
 total energy-change (2. order) : 0.7300996E+02  (-0.5628853E+00)
 number of electron      92.0000041 magnetization      -0.2923659
 augmentation part       25.9191039 magnetization      -0.0320553

 Broyden mixing:
  rms(total) = 0.12949E+02    rms(broyden)= 0.12949E+02
  rms(prec ) = 0.21486E+02
  weight for this iteration     100.00

 eigenvalues of (default mixing * dielectric matrix)
  average eigenvalue GAMMA=   0.9544
  2.4284  2.4284  1.1701  1.1701  0.7574  0.7574  0.2225  0.2225  0.6099  0.6099
  0.5380  0.5380

 Free energy of the ion-electron system (eV)
  ---------------------------------------------------
  alpha Z        PSCENC =       906.21123931
  Ewald energy   TEWEN  =     -9706.50108216
  -Hartree energ DENC   =     -2796.17479182
  -exchange      EXHF   =         0.00000000
  -V(xc)+E(xc)   XCENC  =       444.30095031
  PAW double counting   =     11277.39893867   -12128.12024178
  entropy T*S    EENTRO =         0.00000000
  eigenvalues    EBANDS =      -927.39929572
  atomic energy  EATOM  =     12208.65988691
  Solvation  Ediel_sol  =         0.00000000
  ---------------------------------------------------
  free energy    TOTEN  =      -721.62439628 eV

  energy without entropy =     -721.62439628  energy(sigma->0) =     -721.62439628


--------------------------------------------------------------------------------------------------------




--------------------------------------- Iteration      1(  18)  ---------------------------------------


    POTLOK:  cpu time    0.0776: real time    0.0785
    SETDIJ:  cpu time    0.0170: real time    0.0170
     EDDAV:  cpu time   19.1322: real time   19.1818
 BZINTS: Fermi energy:  2.213173; 92.000000 electrons
         Band energy:-909.183712;  BLOECHL correction: -0.042868
       DOS:  cpu time    0.0559: real time    0.0561
    CHARGE:  cpu time    0.3690: real time    0.3699
    MIXING:  cpu time    0.0028: real time    0.0028
    --------------------------------------------
      LOOP:  cpu time   19.6545: real time   19.7061

 eigenvalue-minimisations  : 13504
 total energy-change (2. order) : 0.2406840E+02  (-0.1322843E+00)
 number of electron      92.0000040 magnetization      -0.2999418
 augmentation part       25.8739238 magnetization      -0.0296755

 Broyden mixing:
  rms(total) = 0.12796E+02    rms(broyden)= 0.12796E+02
  rms(prec ) = 0.21368E+02
  weight for this iteration     100.00

 eigenvalues of (default mixing * dielectric matrix)
  average eigenvalue GAMMA=   0.9644
  2.4339  2.4339  1.1172  1.1172  0.9319  0.9319  0.2225  0.2225  0.5821  0.5821
  0.6939  0.6939  0.5736

 Free energy of the ion-electron system (eV)
  ---------------------------------------------------
  alpha Z        PSCENC =       906.21123931
  Ewald energy   TEWEN  =     -9706.50108216
  -Hartree energ DENC   =     -2795.27608457
  -exchange      EXHF   =         0.00000000
  -V(xc)+E(xc)   XCENC  =       444.38288328
  PAW double counting   =     11262.73270121   -12108.58183229
  entropy T*S    EENTRO =         0.00000000
  eigenvalues    EBANDS =      -909.18371180
  atomic energy  EATOM  =     12208.65988691
  Solvation  Ediel_sol  =         0.00000000
  ---------------------------------------------------
  free energy    TOTEN  =      -697.55600011 eV

  energy without entropy =     -697.55600011  energy(sigma->0) =     -697.55600011


--------------------------------------------------------------------------------------------------------




--------------------------------------- Iteration      1(  19)  ---------------------------------------


    POTLOK:  cpu time    0.0818: real time    0.0822
    SETDIJ:  cpu time    0.0177: real time    0.0178
     EDDAV:  cpu time   18.5287: real time   18.5749
 BZINTS: Fermi energy:  2.259950; 92.000000 electrons
         Band energy:-896.815074;  BLOECHL correction: -0.043340
       DOS:  cpu time    0.0606: real time    0.0607
    CHARGE:  cpu time    0.3742: real time    0.3751
    MIXING:  cpu time    0.0031: real time    0.0031
    --------------------------------------------
      LOOP:  cpu time   19.0662: real time   19.1139

 eigenvalue-minimisations  : 12984
 total energy-change (2. order) : 0.1685525E+02  (-0.2807784E-01)
 number of electron      92.0000040 magnetization      -0.3098227
 augmentation part       25.8373897 magnetization      -0.0367763

 Broyden mixing:
  rms(total) = 0.12720E+02    rms(broyden)= 0.12720E+02
  rms(prec ) = 0.21272E+02
  weight for this iteration     100.00

 eigenvalues of (default mixing * dielectric matrix)
  average eigenvalue GAMMA=   1.0023
  2.2862  2.2862  1.5800  1.5800  1.0737  1.0737  0.2225  0.2225  0.6130  0.6130
  0.6760  0.6760  0.5648  0.5648

 Free energy of the ion-electron system (eV)
  ---------------------------------------------------
  alpha Z        PSCENC =       906.21123931
  Ewald energy   TEWEN  =     -9706.50108216
  -Hartree energ DENC   =     -2794.68415991
  -exchange      EXHF   =         0.00000000
  -V(xc)+E(xc)   XCENC  =       444.41947011
  PAW double counting   =     11240.28590534   -12082.27693309
  entropy T*S    EENTRO =         0.00000000
  eigenvalues    EBANDS =      -896.81507358
  atomic energy  EATOM  =     12208.65988691
  Solvation  Ediel_sol  =         0.00000000
  ---------------------------------------------------
  free energy    TOTEN  =      -680.70074708 eV

  energy without entropy =     -680.70074708  energy(sigma->0) =     -680.70074708


--------------------------------------------------------------------------------------------------------




--------------------------------------- Iteration      1(  20)  ---------------------------------------


    POTLOK:  cpu time    0.0837: real time    0.0840
    SETDIJ:  cpu time    0.0174: real time    0.0175
     EDDAV:  cpu time   16.9966: real time   17.0402
 BZINTS: Fermi energy:  2.317443; 92.000000 electrons
         Band energy:-866.690698;  BLOECHL correction: -0.046387
       DOS:  cpu time    0.0570: real time    0.0572
    CHARGE:  cpu time    0.3724: real time    0.3733
    MIXING:  cpu time    0.0029: real time    0.0029
    --------------------------------------------
      LOOP:  cpu time   17.5300: real time   17.5751

 eigenvalue-minimisations  : 11712
 total energy-change (2. order) : 0.3724314E+02  (-0.1003229E+00)
 number of electron      92.0000040 magnetization      -0.3113895
 augmentation part       25.7884997 magnetization      -0.0651057

 Broyden mixing:
  rms(total) = 0.12555E+02    rms(broyden)= 0.12555E+02
  rms(prec ) = 0.20987E+02
  weight for this iteration     100.00

 eigenvalues of (default mixing * dielectric matrix)
  average eigenvalue GAMMA=   0.9364
  2.2902  2.2902  1.5582  1.5582  1.0735  1.0735  0.2225  0.2225  0.6125  0.6125
  0.6744  0.6744  0.5722  0.5722  0.0391

 Free energy of the ion-electron system (eV)
  ---------------------------------------------------
  alpha Z        PSCENC =       906.21123931
  Ewald energy   TEWEN  =     -9706.50108216
  -Hartree energ DENC   =     -2795.66628436
  -exchange      EXHF   =         0.00000000
  -V(xc)+E(xc)   XCENC  =       444.60229082
  PAW double counting   =     11204.87356660   -12038.94652169
  entropy T*S    EENTRO =         0.00000000
  eigenvalues    EBANDS =      -866.69069767
  atomic energy  EATOM  =     12208.65988691
  Solvation  Ediel_sol  =         0.00000000
  ---------------------------------------------------
  free energy    TOTEN  =      -643.45760225 eV

  energy without entropy =     -643.45760225  energy(sigma->0) =     -643.45760225


--------------------------------------------------------------------------------------------------------




--------------------------------------- Iteration      1(  21)  ---------------------------------------


    POTLOK:  cpu time    0.0765: real time    0.0768
    SETDIJ:  cpu time    0.0167: real time    0.0168
     EDDAV:  cpu time   16.3446: real time   16.3855
 BZINTS: Fermi energy:  2.438406; 92.000000 electrons
         Band energy:-831.099547;  BLOECHL correction: -0.047694
       DOS:  cpu time    0.0583: real time    0.0585
    CHARGE:  cpu time    0.3699: real time    0.3708
    MIXING:  cpu time    0.0036: real time    0.0036
    --------------------------------------------
      LOOP:  cpu time   16.8697: real time   16.9119

 eigenvalue-minimisations  : 11112
 total energy-change (2. order) : 0.5155030E+02  (-0.1999295E+00)
 number of electron      92.0000040 magnetization      -0.3114183
 augmentation part       25.7168554 magnetization      -0.0712149

 Broyden mixing:
  rms(total) = 0.12335E+02    rms(broyden)= 0.12335E+02
  rms(prec ) = 0.20623E+02
  weight for this iteration     100.00

 eigenvalues of (default mixing * dielectric matrix)
  average eigenvalue GAMMA=   1.0429
  2.3088  2.3088  2.2098  2.2098  1.0861  1.0861  0.2225  0.2225  0.6937  0.6937
  0.7264  0.7264  0.5513  0.5513  0.5445  0.5445

 Free energy of the ion-electron system (eV)
  ---------------------------------------------------
  alpha Z        PSCENC =       906.21123931
  Ewald energy   TEWEN  =     -9706.50108216
  -Hartree energ DENC   =     -2792.66324327
  -exchange      EXHF   =         0.00000000
  -V(xc)+E(xc)   XCENC  =       444.65536886
  PAW double counting   =     11145.11849722   -11966.28842401
  entropy T*S    EENTRO =         0.00000000
  eigenvalues    EBANDS =      -831.09954676
  atomic energy  EATOM  =     12208.65988691
  Solvation  Ediel_sol  =         0.00000000
  ---------------------------------------------------
  free energy    TOTEN  =      -591.90730390 eV

  energy without entropy =     -591.90730390  energy(sigma->0) =     -591.90730390


--------------------------------------------------------------------------------------------------------




--------------------------------------- Iteration      1(  22)  ---------------------------------------


    POTLOK:  cpu time    0.0838: real time    0.0841
    SETDIJ:  cpu time    0.0174: real time    0.0174
     EDDAV:  cpu time   15.3992: real time   15.4391
 BZINTS: Fermi energy:  2.754306; 92.000000 electrons
         Band energy:-737.083571;  BLOECHL correction: -0.037316
       DOS:  cpu time    0.0575: real time    0.0576
    CHARGE:  cpu time    0.3789: real time    0.3798
    MIXING:  cpu time    0.0038: real time    0.0038
    --------------------------------------------
      LOOP:  cpu time   15.9405: real time   15.9818

 eigenvalue-minimisations  : 10448
 total energy-change (2. order) : 0.1280110E+03  (-0.1059641E+01)
 number of electron      92.0000040 magnetization      -0.2839936
 augmentation part       25.4200953 magnetization      -0.1282714

 Broyden mixing:
  rms(total) = 0.11810E+02    rms(broyden)= 0.11810E+02
  rms(prec ) = 0.19842E+02
  weight for this iteration     100.00

 eigenvalues of (default mixing * dielectric matrix)
  average eigenvalue GAMMA=   0.9890
  2.3338  2.3338  2.1983  2.1983  1.0903  1.0903  0.2225  0.2225  0.6864  0.6864
  0.7317  0.7317  0.5494  0.5494  0.5470  0.5470  0.0944

 Free energy of the ion-electron system (eV)
  ---------------------------------------------------
  alpha Z        PSCENC =       906.21123931
  Ewald energy   TEWEN  =     -9706.50108216
  -Hartree energ DENC   =     -2790.58564841
  -exchange      EXHF   =         0.00000000
  -V(xc)+E(xc)   XCENC  =       445.04264346
  PAW double counting   =     10999.86656739   -11789.50637321
  entropy T*S    EENTRO =         0.00000000
  eigenvalues    EBANDS =      -737.08357120
  atomic energy  EATOM  =     12208.65988691
  Solvation  Ediel_sol  =         0.00000000
  ---------------------------------------------------
  free energy    TOTEN  =      -463.89633791 eV

  energy without entropy =     -463.89633791  energy(sigma->0) =     -463.89633791


[...]
  0.001  -0.000  -0.002   0.006   0.011   0.002  -0.005   0.005
 -0.004   0.000  -0.009   0.033   0.005  -0.016  -0.024  -0.004
 -0.001   0.000  -0.009  -0.001   0.026   0.008   0.000  -0.026
 pseudopotential strength for first ion, spin component:           2
-10.518  -2.151   0.028   0.020  -0.001  -0.013  -0.009   0.000
 -2.151  -1.678  -0.013  -0.009   0.001   0.007   0.005  -0.001
  0.028  -0.013 -15.616  -0.042   0.008   6.709   0.057   0.000
  0.020  -0.009  -0.042 -15.587   0.006   0.057   6.668   0.000
 -0.001   0.001   0.008   0.006 -15.560   0.000   0.000   6.643
 -0.013   0.007   6.709   0.057   0.000   5.773  -0.053  -0.001
 -0.009   0.005   0.057   6.668   0.000  -0.053   5.810  -0.001
  0.000  -0.001   0.000   0.000   6.643  -0.001  -0.001   5.832
  0.008  -0.004  -0.000   0.000   0.009  -0.000  -0.000  -0.003
 -0.025  -0.007   0.007   0.009   0.000  -0.004  -0.004  -0.000
 -0.000   0.001  -0.005   0.008   0.000   0.001  -0.002   0.000
  0.006  -0.003   0.000  -0.000   0.007  -0.000   0.000  -0.002
  0.019   0.003  -0.009  -0.000  -0.000   0.004   0.001  -0.000
 -0.012   0.006   0.000  -0.000  -0.014   0.000   0.001   0.004
  0.044   0.011  -0.011  -0.014  -0.000   0.006   0.006   0.001
  0.000  -0.002   0.008  -0.011  -0.000  -0.002   0.003  -0.000
 -0.008   0.004  -0.000   0.000  -0.010   0.001  -0.000   0.003
 -0.032  -0.004   0.014   0.000   0.000  -0.006  -0.001   0.000
 -0.002   0.000   0.023   0.013  -0.005  -0.020  -0.009   0.004
  0.002  -0.000  -0.005  -0.005  -0.027   0.003   0.004   0.022
  0.002  -0.000   0.003  -0.051   0.001  -0.004   0.042  -0.001
 -0.003   0.000   0.035   0.021   0.003  -0.026  -0.014  -0.002
 -0.001   0.000   0.001  -0.002  -0.014  -0.001   0.003   0.009
 -0.005   0.000   0.059   0.022  -0.001  -0.045  -0.017   0.002
  0.000  -0.000   0.005   0.002   0.034  -0.004  -0.001  -0.024
 -0.002   0.000   0.023   0.012  -0.004  -0.020  -0.009   0.004
  0.002  -0.000  -0.005  -0.005  -0.026   0.003   0.004   0.022
  0.002  -0.000   0.003  -0.049   0.001  -0.004   0.041  -0.001
 -0.003   0.000   0.034   0.021   0.003  -0.026  -0.014  -0.002
 -0.001   0.000   0.001  -0.002  -0.014  -0.001   0.003   0.009
 -0.004   0.000   0.057   0.021  -0.001  -0.044  -0.017   0.002
  0.000  -0.000   0.005   0.002   0.033  -0.004  -0.001  -0.024
 total augmentation occupancy for first ion, spin component:           1
  2.023   0.101  -0.000  -0.000  -0.000  -0.001  -0.001   0.000   0.000   0.004   0.000   0.000  -0.004   0.001  -0.005   0.000
  0.101   1.436  -0.006  -0.004   0.000   0.002   0.001  -0.000   0.001   0.008   0.002   0.001  -0.009   0.000  -0.002   0.000
 -0.000  -0.006   2.026   0.000  -0.000   0.013  -0.003   0.000  -0.000   0.003  -0.001   0.000  -0.003  -0.000   0.002  -0.001
 -0.000  -0.004   0.000   2.026  -0.000  -0.003   0.015   0.000   0.000   0.003   0.001  -0.000  -0.001   0.000   0.003   0.002
 -0.000   0.000  -0.000  -0.000   2.025   0.000   0.000   0.018   0.001  -0.000   0.000   0.001  -0.000   0.002   0.000   0.000
 -0.001   0.002   0.013  -0.003   0.000   0.032   0.001   0.000  -0.000  -0.001  -0.000  -0.000   0.000  -0.000  -0.000   0.000
 -0.001   0.001  -0.003   0.015   0.000   0.001   0.032   0.000  -0.000  -0.000   0.001  -0.000   0.001  -0.000  -0.000  -0.000
  0.000  -0.000   0.000   0.000   0.018   0.000   0.000   0.031   0.001   0.000   0.000   0.001  -0.000  -0.000   0.000  -0.000
  0.000   0.001  -0.000   0.000   0.001  -0.000  -0.000   0.001   0.715  -0.001   0.001   0.226  -0.001   0.124   0.000  -0.000
  0.004   0.008   0.003   0.003  -0.000  -0.001  -0.000   0.000  -0.001   0.559  -0.000  -0.001   0.222   0.000   0.124  -0.001
  0.000   0.002  -0.001   0.001   0.000  -0.000   0.001   0.000   0.001  -0.000   0.872   0.000   0.001  -0.000  -0.001   0.126
  0.000   0.001   0.000  -0.000   0.001  -0.000  -0.000   0.001   0.226  -0.001   0.000   0.556  -0.001   0.001   0.000  -0.000
 -0.004  -0.009  -0.003  -0.001  -0.000   0.000   0.001  -0.000  -0.001   0.222   0.001  -0.001   0.714   0.000   0.003  -0.001
  0.001   0.000  -0.000   0.000   0.002  -0.000  -0.000  -0.000   0.124   0.000  -0.000   0.001   0.000   0.029   0.000  -0.000
 -0.005  -0.002   0.002   0.003   0.000  -0.000  -0.000   0.000   0.000   0.124  -0.001   0.000   0.003   0.000   0.035  -0.000
  0.000   0.000  -0.001   0.002   0.000   0.000  -0.000  -0.000  -0.000  -0.001   0.126  -0.000  -0.001  -0.000  -0.000   0.023
  0.001   0.000   0.000  -0.000   0.001  -0.000  -0.000  -0.000   0.001   0.000   0.000   0.123   0.000  -0.009   0.000   0.000
  0.003   0.001  -0.003  -0.000  -0.000   0.000  -0.000   0.000   0.000   0.003  -0.001   0.000   0.125   0.000  -0.008  -0.000
  0.000  -0.003   0.018  -0.063   0.003   0.001   0.002  -0.000   0.001   0.001  -0.000   0.001  -0.000   0.000   0.000  -0.000
 -0.000   0.001   0.001   0.002  -0.098  -0.000  -0.000   0.002   0.001   0.000   0.001   0.005   0.000   0.001   0.000   0.000
 -0.000   0.002   0.037  -0.025  -0.001  -0.001  -0.002   0.000  -0.000   0.005   0.015  -0.001   0.009  -0.000   0.001   0.001
  0.000  -0.001   0.017  -0.055  -0.001   0.001   0.002   0.000  -0.000   0.001   0.001  -0.000  -0.001   0.000  -0.001   0.001
 -0.000  -0.000  -0.001   0.002   0.032   0.000   0.000  -0.002   0.006   0.001   0.001   0.013   0.002  -0.000   0.000   0.000
  0.001  -0.004  -0.055   0.016   0.002   0.004   0.001  -0.000   0.001   0.005   0.007   0.000   0.002   0.000  -0.001   0.000
  0.000  -0.001  -0.003   0.000   0.015  -0.000   0.000   0.002  -0.018  -0.000   0.002  -0.005   0.000  -0.002  -0.000   0.000
 -0.000   0.008  -0.025   0.054  -0.004   0.001   0.015   0.000  -0.002  -0.000   0.000  -0.001   0.005  -0.000  -0.000   0.000
 -0.000  -0.003  -0.001  -0.003   0.094   0.000   0.000   0.018   0.000  -0.001  -0.001  -0.006  -0.001  -0.001  -0.000  -0.000
  0.000  -0.005  -0.031   0.030   0.001  -0.011   0.003  -0.000   0.000  -0.006  -0.019   0.001  -0.012   0.000  -0.001  -0.002
 -0.000   0.004  -0.024   0.048   0.001   0.001   0.013   0.000   0.001  -0.004   0.004   0.001   0.000  -0.000   0.001  -0.001
  0.000   0.000   0.001  -0.003  -0.029  -0.000   0.000  -0.004  -0.008  -0.002  -0.002  -0.019  -0.002   0.000  -0.000  -0.000
 -0.000   0.011   0.039  -0.024  -0.003   0.018   0.003   0.000  -0.001  -0.009  -0.010  -0.001  -0.003  -0.000   0.001  -0.000
 -0.000   0.002   0.003  -0.000  -0.017  -0.000  -0.000  -0.005   0.025   0.000  -0.004   0.007  -0.001   0.002   0.000  -0.000
 total augmentation occupancy for first ion, spin component:           2
  0.002   0.008   0.000   0.000   0.000  -0.000  -0.000   0.000  -0.003  -0.002   0.001  -0.002  -0.001  -0.001  -0.001   0.000
  0.008  -0.011  -0.000  -0.000   0.000   0.001   0.001   0.000  -0.010   0.007  -0.007  -0.007   0.007  -0.001   0.002  -0.002
  0.000  -0.000   0.001  -0.000  -0.000   0.002   0.000   0.001   0.000   0.000  -0.000   0.000  -0.002   0.000   0.000  -0.000
  0.000  -0.000  -0.000   0.001  -0.000   0.000   0.002   0.000   0.000   0.001   0.001   0.000  -0.000  -0.000   0.000   0.000
  0.000   0.000  -0.000  -0.000   0.001   0.001   0.000   0.003   0.000   0.000  -0.000   0.000   0.001   0.000  -0.000   0.000
 -0.000   0.001   0.002   0.000   0.001   0.001   0.000  -0.000  -0.000   0.001  -0.000   0.000   0.001  -0.000   0.000  -0.000
 -0.000   0.001   0.000   0.002   0.000   0.000   0.000  -0.000   0.000   0.000  -0.001  -0.000   0.000  -0.000   0.000  -0.000
  0.000   0.000   0.001   0.000   0.003  -0.000  -0.000   0.001   0.002   0.000   0.000   0.001  -0.000   0.000   0.000  -0.000
 -0.003  -0.010   0.000   0.000   0.000  -0.000   0.000   0.002   0.003  -0.003   0.005   0.004  -0.001   0.001   0.000   0.001
 -0.002   0.007   0.000   0.001   0.000   0.001   0.000   0.000  -0.003  -0.009   0.007  -0.004   0.001  -0.000  -0.002   0.001
  0.001  -0.007  -0.000   0.001  -0.000  -0.000  -0.001   0.000   0.005   0.007   0.006  -0.001  -0.001   0.000   0.001  -0.000
 -0.002  -0.007   0.000   0.000   0.000   0.000  -0.000   0.001   0.004  -0.004  -0.001   0.001  -0.003   0.000  -0.000  -0.000
 -0.001   0.007  -0.002  -0.000   0.001   0.001   0.000  -0.000  -0.001   0.001  -0.001  -0.003   0.009  -0.000  -0.001   0.000
 -0.001  -0.001   0.000  -0.000   0.000  -0.000  -0.000   0.000   0.001  -0.000   0.000   0.000  -0.000   0.000   0.000   0.000
 -0.001   0.002   0.000   0.000  -0.000   0.000   0.000   0.000   0.000  -0.002   0.001  -0.000  -0.001   0.000  -0.000   0.000
  0.000  -0.002  -0.000   0.000   0.000  -0.000  -0.000  -0.000   0.001   0.001  -0.000  -0.000   0.000   0.000   0.000  -0.000
 -0.001  -0.000  -0.000   0.000   0.000  -0.000  -0.000   0.000   0.000  -0.000  -0.000   0.001  -0.000   0.000  -0.000  -0.000
 -0.000   0.002  -0.000   0.000  -0.000   0.000   0.000   0.000  -0.000  -0.001   0.000  -0.000   0.000  -0.000  -0.000   0.000
 -0.001  -0.015   0.006  -0.010   0.008  -0.001  -0.004   0.002  -0.003  -0.006   0.009  -0.001  -0.011  -0.000  -0.001   0.001
 -0.001  -0.002   0.004   0.005  -0.012   0.002   0.002  -0.007  -0.010   0.000   0.001  -0.008   0.001  -0.002   0.000   0.000
  0.000   0.004   0.009  -0.005  -0.001   0.005  -0.003  -0.001   0.000   0.001  -0.001  -0.000   0.003  -0.000   0.000  -0.001
  0.001   0.005  -0.003  -0.015  -0.005  -0.001  -0.004  -0.000   0.002   0.004  -0.005   0.003   0.006   0.000   0.000  -0.001
  0.001   0.002  -0.001   0.003   0.009  -0.000   0.001   0.003   0.008   0.001   0.003   0.004   0.001   0.001   0.000   0.000
 -0.001  -0.010  -0.013   0.000   0.003  -0.005  -0.002   0.002   0.000  -0.002   0.004  -0.001  -0.005   0.000  -0.001   0.001
 -0.000  -0.002  -0.005  -0.000  -0.004  -0.002  -0.000  -0.000  -0.003   0.001   0.001  -0.003   0.002  -0.000   0.000   0.000
  0.001   0.017  -0.007   0.015  -0.008   0.001   0.003  -0.003   0.005   0.007  -0.012   0.002   0.013   0.001   0.001  -0.002
  0.001   0.004  -0.005  -0.006   0.017  -0.002  -0.002   0.005   0.013  -0.000  -0.001   0.010  -0.002   0.002  -0.000  -0.000
 -0.000  -0.004  -0.011   0.005   0.001  -0.005   0.004   0.001  -0.001  -0.002  -0.001   0.001  -0.004   0.000  -0.000   0.001
 -0.001  -0.008   0.003   0.020   0.006   0.001   0.003   0.000  -0.003  -0.006   0.006  -0.003  -0.009  -0.000  -0.001   0.001
 -0.001  -0.003   0.002  -0.004  -0.011   0.001  -0.001  -0.003  -0.010  -0.001  -0.004  -0.004  -0.001  -0.001  -0.000  -0.000
  0.001   0.010   0.019  -0.002  -0.003   0.003   0.003  -0.002  -0.000   0.003  -0.005   0.002   0.006  -0.000   0.001  -0.001
  0.000   0.001   0.006   0.000   0.004   0.002   0.000   0.001   0.003  -0.001  -0.002   0.004  -0.002   0.000  -0.000  -0.000


------------------------ aborting loop because EDIFF is reached ----------------------------------------


 


 total charge     
 
# of ion       s       p       d       f       tot
--------------------------------------------------
    1        2.239   5.952   2.085   0.546  10.822
    2        2.239   5.952   2.085   0.546  10.822
    3        2.237   5.948   2.138   5.514  15.836
    4        2.237   5.948   2.138   5.514  15.836
    5        1.606   3.808   0.000   0.000   5.415
    6        1.607   3.843   0.000   0.000   5.450
    7        1.607   3.843   0.000   0.000   5.450
    8        1.606   3.808   0.000   0.000   5.415
--------------------------------------------------
tot         15.380  39.101   8.444  12.119  75.044

 


 magnetization (x)
 
# of ion       s       p       d       f       tot
--------------------------------------------------
    1       -0.000   0.003   0.011  -0.032  -0.018
    2       -0.000   0.003   0.011  -0.032  -0.018
    3        0.000  -0.001  -0.023   0.478   0.455
    4        0.000  -0.001  -0.023   0.479   0.455
    5        0.001   0.011   0.000   0.000   0.012
    6       -0.001  -0.008   0.000   0.000  -0.009
    7       -0.001  -0.008   0.000   0.000  -0.009
    8        0.001   0.011   0.000   0.000   0.012
--------------------------------------------------
tot         -0.001   0.011  -0.025   0.894   0.879

 
    CHARGE:  cpu time    0.3826: real time    0.3836
    FORLOC:  cpu time    0.0038: real time    0.0038
    FORNL :  cpu time    2.5040: real time    2.5102
    STRESS:  cpu time    7.2937: real time    7.3113
    FORCOR:  cpu time    0.0758: real time    0.0759
    FORHAR:  cpu time    0.0098: real time    0.0098
    MIXING:  cpu time    0.0085: real time    0.0085
    OFIELD:  cpu time    0.0000: real time    0.0000

  FORCE on cell =-STRESS in cart. coord.  units (eV):
  Direction    XX          YY          ZZ          XY          YZ          ZX
  --------------------------------------------------------------------------------------
  Alpha Z   906.21124   906.21124   906.21124
  Ewald   -3235.50483 -3235.50218 -3235.50569     0.00675     0.00502    -0.00451
  Hartree   702.33003   477.05381   597.09544     5.04919  -169.75977     3.56911
  E(xc)    -472.67571  -472.76351  -472.73325    -0.00577    -0.04279    -0.00404
  Local     502.55088   460.28552   460.77204   -14.49433    -0.68887   -10.24300
  n-local  -932.08427  -964.20761  -967.18440   -14.16649     6.31961    -9.60286
  augment    61.37491    66.42469    66.53255     1.78869    -0.15250     1.30576
  Kinetic  1538.89661  1542.80214  1545.71171     2.00854     0.01886     1.30138
  Fock        0.00000     0.00000     0.00000     0.00000     0.00000     0.00000
  -------------------------------------------------------------------------------------
  Total    -928.90113 -1217.73143 -1101.06482   -19.65539  -164.98778   -13.90102
  in kB  -11347.63045-14876.03552-13450.81435  -240.11389 -2015.52164  -169.81752
  external pressure =   -13224.83 kB  Pullay stress =        0.00 kB


 VOLUME and BASIS-vectors are now :
 -----------------------------------------------------------------------------
  energy-cutoff  :      520.00
  volume of cell :      131.15
      direct lattice vectors                 reciprocal lattice vectors
     0.000008000 -2.074162000  2.933334000     0.000000000 -0.160705613  0.227273990
     3.592646000  0.000000000  0.000000000     0.278346378 -0.000005547 -0.000004681
     0.000264000  8.296792000  5.866668000     0.000000000  0.080352807  0.056817511

  length of vectors
     3.592575171  3.592646000 10.161424653     0.278351865  0.278346378  0.098411397


 FORCES acting on ions
    electron-ion (+dipol)            ewald-force                    non-local-force                 convergence-correction
 -----------------------------------------------------------------------------------------------
   -.447E+00 -.233E+03 -.165E+03   -.146E-13 0.156E-12 -.349E-13   0.110E-01 -.271E+00 -.192E+00   0.452E+00 0.230E+03 0.162E+03
   0.447E+00 0.233E+03 0.165E+03   -.114E-13 0.227E-12 0.000E+00   -.110E-01 0.271E+00 0.192E+00   -.452E+00 -.230E+03 -.162E+03
   0.400E+00 0.238E+03 0.169E+03   -.122E-13 0.152E-12 -.414E-13   0.350E+00 0.164E+01 0.116E+01   -.697E+00 -.238E+03 -.168E+03
   -.400E+00 -.238E+03 -.169E+03   -.902E-14 0.171E-12 -.284E-13   -.350E+00 -.164E+01 -.116E+01   0.697E+00 0.238E+03 0.168E+03
   -.322E+00 0.973E+02 0.688E+02   0.509E-14 -.171E-12 0.426E-13   0.646E-01 0.553E+00 0.391E+00   0.268E+00 -.975E+02 -.689E+02
   -.256E+00 0.978E+02 0.691E+02   0.451E-14 -.177E-12 0.237E-13   -.503E-01 -.152E+00 -.107E+00   0.274E+00 -.976E+02 -.690E+02
   0.256E+00 -.978E+02 -.691E+02   0.431E-14 -.156E-12 0.284E-13   0.503E-01 0.152E+00 0.107E+00   -.274E+00 0.976E+02 0.690E+02
   0.322E+00 -.973E+02 -.688E+02   0.373E-14 -.157E-12 0.309E-13   -.646E-01 -.553E+00 -.391E+00   -.268E+00 0.975E+02 0.689E+02
 -----------------------------------------------------------------------------------------------
   0.846E-11 -.164E-12 0.640E-12   -.296E-13 0.449E-13 0.209E-13   -.139E-16 0.000E+00 -.555E-16   0.875E-11 0.325E-11 0.195E-10
 
 
 POSITION                                       TOTAL-FORCE (eV/Angst)
 -----------------------------------------------------------------------------------
      0.00013      4.14840      2.93333         0.015992     -3.622729     -2.561635
      1.79652      5.18551      5.86667        -0.015992      3.622729      2.561635
      0.00000      0.00000      0.00000         0.053637      2.572533      1.819040
      1.79639      1.03712      2.93333        -0.053637     -2.572533     -1.819040
      0.00020      6.22259      4.40000         0.010604      0.335337      0.237117
      1.79633     -1.03708      1.46667        -0.032175      0.048978      0.034633
      0.00007      2.07420      1.46667         0.032175     -0.048978     -0.034633
      1.79646      3.11132      4.40000        -0.010604     -0.335337     -0.237117
 -----------------------------------------------------------------------------------
    total drift:                                0.000000      0.000000      0.000000


--------------------------------------------------------------------------------------------------------



  FREE ENERGIE OF THE ION-ELECTRON SYSTEM (eV)
  ---------------------------------------------------
  free  energy   TOTEN  =      -106.48877109 eV

  energy  without entropy=     -106.48877109  energy(sigma->0) =     -106.48877109
 


--------------------------------------------------------------------------------------------------------


    POTLOK:  cpu time    0.0917: real time    0.0919


--------------------------------------------------------------------------------------------------------


     LOOP+:  cpu time 1806.2145: real time 1811.0856
    4ORBIT:  cpu time    0.0000: real time    0.0000
 


 total charge     
 
# of ion       s       p       d       f       tot
--------------------------------------------------
    1        2.239   5.952   2.085   0.546  10.822
    2        2.239   5.952   2.085   0.546  10.822
    3        2.237   5.948   2.138   5.514  15.836
    4        2.237   5.948   2.138   5.514  15.836
    5        1.606   3.808   0.000   0.000   5.415
    6        1.607   3.843   0.000   0.000   5.450
    7        1.607   3.843   0.000   0.000   5.450
    8        1.606   3.808   0.000   0.000   5.415
--------------------------------------------------
tot         15.380  39.101   8.444  12.119  75.044

 


 magnetization (x)
 
# of ion       s       p       d       f       tot
--------------------------------------------------
    1       -0.000   0.003   0.011  -0.032  -0.018
    2       -0.000   0.003   0.011  -0.032  -0.018
    3        0.000  -0.001  -0.023   0.478   0.455
    4        0.000  -0.001  -0.023   0.479   0.455
    5        0.001   0.011   0.000   0.000   0.012
    6       -0.001  -0.008   0.000   0.000  -0.009
    7       -0.001  -0.008   0.000   0.000  -0.009
    8        0.001   0.011   0.000   0.000   0.012
--------------------------------------------------
tot         -0.001   0.011  -0.025   0.894   0.879

 
 BZINTS: Fermi energy:  9.473020; 92.000000 electrons
         Band energy:-438.153380;  BLOECHL correction: -0.021186

 total amount of memory used by VASP MPI-rank0    81310. kBytes
=======================================================================

   base      :      30000. kBytes
   nonlr-proj:      11419. kBytes
   fftplans  :       2388. kBytes
   grid      :      10110. kBytes
   one-center:        786. kBytes
   wavefun   :      26607. kBytes
 
  
  
 General timing and accounting informations for this job:
 ========================================================
  
                  Total CPU time used (sec):     1813.624
                            User time (sec):     1809.816
                          System time (sec):        3.808
                         Elapsed time (sec):     1819.443
  
                   Maximum memory used (kb):      126272.
                   Average memory used (kb):           0.
  
                          Minor page faults:       137684
                          Major page faults:            0
                 Voluntary context switches:         1522
