=========================================
SLURM_JOB_ID = 43761572
SLURM_JOB_NODELIST = lnode59
SLURM_GPUS = 
SLURM_CPUS_ON_NODE = 8
SLURM_JOB_PARTITION = lenovo
SLURM_TASK_PID = 1215633
CUDA_VISIBLE_DEVICES = 
==========================================
 running on    8 total cores
 distrk:  each k-point on    8 cores,    1 groups
 distr:  one band on    4 cores,    2 groups
 using from now: INCAR     
 vasp.5.4.4.18Apr17-6-g9f103f2a35 (build Apr 28 2018 00:24:27) complex          
  
 POSCAR found type information on POSCAR  Eu S 
 POSCAR found :  2 types and       8 ions
 scaLAPACK will be used

 ----------------------------------------------------------------------------- 
|                                                                             |
|  ADVICE TO THIS USER RUNNING 'VASP/VAMP'   (HEAR YOUR MASTER'S VOICE ...):  |
|                                                                             |
|      You have a (more or less) 'small supercell' and for smaller cells      |
|      it is recommended  to use the reciprocal-space projection scheme!      |
|      The real space optimization is not  efficient for small cells and it   |
|      is also less accurate ...                                              |
|      Therefore set LREAL=.FALSE. in the  INCAR file                         |
|                                                                             |
 ----------------------------------------------------------------------------- 

 LDA part: xc-table for Pade appr. of Perdew
 POSCAR, INCAR and KPOINTS ok, starting setup
 FFT: planning ...
 WAVECAR not read
 entering main loop
       N       E                     dE             d eps       ncg     rms          rms(c)
DAV:   1     0.117272917269E+04    0.11727E+04   -0.31376E+04 36784   0.314E+03
DAV:   2     0.305636883302E+03   -0.86709E+03   -0.79144E+03 44568   0.636E+02
DAV:   3    -0.123843812317E+02   -0.31802E+03   -0.31128E+03 49552   0.335E+02
DAV:   4    -0.594768867552E+02   -0.47093E+02   -0.46114E+02 58416   0.126E+02
DAV:   5    -0.638595349729E+02   -0.43826E+01   -0.41933E+01 64768   0.401E+01    0.275E+01
DAV:   6    -0.766387747638E+02   -0.12779E+02   -0.92837E+01 53088   0.103E+02    0.326E+01
DAV:   7    -0.768773782171E+02   -0.23860E+00   -0.30653E+01 48800   0.645E+01    0.143E+01
DAV:   8    -0.748071871861E+02    0.20702E+01   -0.95222E+00 48088   0.400E+01    0.663E+00
DAV:   9    -0.750699837109E+02   -0.26280E+00   -0.78877E+00 54272   0.195E+01    0.634E+00
DAV:  10    -0.748510943778E+02    0.21889E+00   -0.18956E+00 46944   0.144E+01    0.332E+00
DAV:  11    -0.749327538124E+02   -0.81659E-01   -0.56957E-01 64120   0.476E+00    0.178E+00
DAV:  12    -0.749212598888E+02    0.11494E-01   -0.69875E-02 58136   0.192E+00    0.123E+00
DAV:  13    -0.749119133051E+02    0.93466E-02   -0.23304E-02 57696   0.125E+00    0.745E-01
DAV:  14    -0.749087351966E+02    0.31781E-02   -0.84575E-03 56560   0.746E-01    0.344E-01
DAV:  15    -0.749084548835E+02    0.28031E-03   -0.75253E-03 52704   0.756E-01    0.162E-01
DAV:  16    -0.749085701538E+02   -0.11527E-03   -0.20188E-03 65384   0.251E-01    0.171E-01
DAV:  17    -0.749085625014E+02    0.76524E-05   -0.23780E-04 64448   0.111E-01    0.158E-01
DAV:  18    -0.749082908518E+02    0.27165E-03   -0.26589E-04 52728   0.162E-01    0.655E-02
DAV:  19    -0.749082347570E+02    0.56095E-04   -0.12356E-04 55624   0.814E-02    0.217E-02
DAV:  20    -0.749082455899E+02   -0.10833E-04   -0.52014E-05 48104   0.450E-02    0.256E-02
DAV:  21    -0.749082553606E+02   -0.97707E-05   -0.34469E-05 29840   0.364E-02    0.330E-02
DAV:  22    -0.749082501239E+02    0.52367E-05   -0.76798E-06 25712   0.443E-02    0.312E-02
DAV:  23    -0.749082352512E+02    0.14873E-04   -0.46134E-06 33208   0.500E-02    0.234E-02
DAV:  24    -0.749082245481E+02    0.10703E-04   -0.50116E-06 34136   0.324E-02    0.166E-02
DAV:  25    -0.749082190371E+02    0.55110E-05   -0.31172E-06 30624   0.234E-02    0.111E-02
DAV:  26    -0.749082161521E+02    0.28850E-05   -0.23972E-06 25704   0.184E-02    0.670E-03
DAV:  27    -0.749082168036E+02   -0.65145E-06   -0.14184E-05 25640   0.273E-02    0.854E-03
DAV:  28    -0.749082242872E+02   -0.74836E-05   -0.26444E-05 23920   0.316E-02    0.178E-02
DAV:  29    -0.749082328109E+02   -0.85238E-05   -0.25529E-05 23880   0.313E-02    0.238E-02
DAV:  30    -0.749082391524E+02   -0.63415E-05   -0.15719E-05 24216   0.265E-02    0.276E-02
DAV:  31    -0.749082432587E+02   -0.41063E-05   -0.86187E-06 23704   0.201E-02    0.301E-02
DAV:  32    -0.749082445364E+02   -0.12777E-05   -0.42462E-06 23320   0.167E-02    0.310E-02
DAV:  33    -0.749082484831E+02   -0.39468E-05   -0.25185E-06 23264   0.164E-02    0.338E-02
DAV:  34    -0.749082457170E+02    0.27662E-05   -0.11536E-06 23192   0.160E-02    0.322E-02
DAV:  35    -0.749082427286E+02    0.29884E-05   -0.60767E-07 23160   0.114E-02    0.305E-02
DAV:  36    -0.749082403974E+02    0.23312E-05   -0.51394E-07 23376   0.975E-03    0.293E-02
DAV:  37    -0.749082341520E+02    0.62453E-05   -0.99215E-08 23480   0.189E-02    0.261E-02
DAV:  38    -0.749082364278E+02   -0.22758E-05    0.77301E-07 23136   0.167E-02    0.269E-02
DAV:  39    -0.749082347490E+02    0.16788E-05   -0.14871E-07 22640   0.972E-03    0.258E-02
DAV:  40    -0.749082346375E+02    0.11148E-06   -0.23839E-07 22560   0.761E-03
   1 F= -.74908235E+02 E0= -.74908235E+02  d E =0.000000E+00  mag=    -0.0000
