       N       E                     dE             d eps       ncg     rms          rms(c)
DAV:   1     0.902121559838E+02    0.90212E+02   -0.91006E+03  4328   0.189E+03
DAV:   2    -0.138252391766E+02   -0.10404E+03   -0.97013E+02  4256   0.286E+02
DAV:   3    -0.161939651114E+02   -0.23687E+01   -0.23003E+01  4850   0.631E+01
DAV:   4    -0.162271076484E+02   -0.33143E-01   -0.33173E-01  6066   0.577E+00
DAV:   5    -0.162274757063E+02   -0.36806E-03   -0.36845E-03  5088   0.571E-01    0.145E+01
DAV:   6    -0.142633437122E+02    0.19641E+01   -0.16529E+01  4502   0.841E+01    0.796E+00
DAV:   7    -0.139291455100E+02    0.33420E+00   -0.22989E+00  4658   0.300E+01    0.482E+00
DAV:   8    -0.140787895744E+02   -0.14964E+00   -0.15177E-01  5760   0.639E+00    0.217E+00
DAV:   9    -0.140358746291E+02    0.42915E-01   -0.34464E-02  6174   0.281E+00    0.237E+00
DAV:  10    -0.140256692226E+02    0.10205E-01   -0.95699E-04  6060   0.450E-01    0.266E+00
DAV:  11    -0.140703619679E+02   -0.44693E-01   -0.32516E-02  5248   0.304E+00    0.423E-01
DAV:  12    -0.140708058594E+02   -0.44389E-03   -0.99585E-04  6084   0.389E-01    0.151E-01
DAV:  13    -0.140706027583E+02    0.20310E-03   -0.15871E-04  5704   0.206E-01    0.866E-03
DAV:  14    -0.140705914920E+02    0.11266E-04   -0.61943E-06  4744   0.282E-02    0.846E-03
DAV:  15    -0.140705981346E+02   -0.66426E-05   -0.31163E-07  4798   0.718E-03    0.463E-03
DAV:  16    -0.140706069173E+02   -0.87827E-05   -0.19770E-07  3138   0.670E-03    0.496E-04
DAV:  17    -0.140706061520E+02    0.76524E-06   -0.11671E-08  2332   0.147E-03    0.337E-04
DAV:  18    -0.140706069599E+02   -0.80783E-06   -0.28808E-09  2218   0.780E-04    0.638E-05
DAV:  19    -0.140706069511E+02    0.87296E-08   -0.88841E-10  2200   0.296E-04
   1 F= -.14070607E+02 E0= -.14070607E+02  d E =0.000000E+00  mag=     3.1560
