       N       E                     dE             d eps       ncg     rms          rms(c)
DAV:   1     0.521277969032E+02    0.52128E+02   -0.58289E+03  5874   0.844E+02
DAV:   2    -0.132662038205E+02   -0.65394E+02   -0.60545E+02  5532   0.171E+02
DAV:   3    -0.149323062873E+02   -0.16661E+01   -0.16417E+01  6192   0.335E+01
DAV:   4    -0.149534344426E+02   -0.21128E-01   -0.21123E-01  6472   0.327E+00
DAV:   5    -0.149540071813E+02   -0.57274E-03   -0.57272E-03  6244   0.511E-01    0.239E+01
DAV:   6    -0.165077648692E+02   -0.15538E+01   -0.76158E+00  5856   0.506E+01    0.523E+00
DAV:   7    -0.163050321069E+02    0.20273E+00   -0.10995E+00  6028   0.182E+01    0.303E+00
DAV:   8    -0.162793984309E+02    0.25634E-01   -0.27334E-02  7326   0.228E+00    0.140E+00
DAV:   9    -0.162718634533E+02    0.75350E-02   -0.22375E-03  8168   0.592E-01    0.708E-01
DAV:  10    -0.162685861738E+02    0.32773E-02   -0.44146E-04  6752   0.207E-01    0.809E-02
DAV:  11    -0.162686212268E+02   -0.35053E-04   -0.81763E-05  7296   0.128E-01    0.341E-02
DAV:  12    -0.162686153798E+02    0.58469E-05   -0.63820E-06  6316   0.268E-02    0.152E-02
DAV:  13    -0.162686130772E+02    0.23026E-05   -0.70277E-07  3712   0.101E-02    0.482E-03
DAV:  14    -0.162686134209E+02   -0.34367E-06   -0.33509E-07  2976   0.544E-03
   1 F= -.16268613E+02 E0= -.16249605E+02  d E =-.380169E-01  mag=     3.1912
