unknown system                          
   1.00000000000000     
     1.609142    1.266876    1.266876
     1.609142   -1.266876   -1.266876
     0.000000    5.618499   -5.618499
   Fe
     4
Direct
  0.000000  0.000000  0.502050
  0.500000  0.500000  0.747950
  0.000000  0.000000  0.002050
  0.500000  0.500000  0.247950
 
   36   36  120
 0.76667538623E+06 0.39212649658E+05 0.10343761318E+05 0.17708625558E+04 0.42020842281E+03
 0.21306509984E+03 0.13173269716E+03 0.76589477066E+02 0.41590286839E+02 0.21585810365E+02
 0.10896540281E+02 0.54097645658E+01 0.26596432312E+01 0.13011482179E+01 0.63570588603E+00
 0.31298629894E+00 0.15874454024E+00 0.90819422724E-01 0.71389904792E-01 0.90819422724E-01
 0.15874454024E+00 0.31298629894E+00 0.63570588603E+00 0.13011482179E+01 0.26596432312E+01
 0.54097645658E+01 0.10896540281E+02 0.21585810365E+02 0.41590286839E+02 0.76589477066E+02
 0.13173269716E+03 0.21306509984E+03 0.42020842281E+03 0.17708625558E+04 0.10343761318E+05
 0.39212649658E+05 0.39212649658E+05 0.26903573359E+05 0.82058531210E+04 0.15970803032E+04
 0.41275943324E+03 0.21380396171E+03 0.13331014249E+03 0.78188301620E+02 0.42787521526E+02
 0.22346914764E+02 0.11336899142E+02 0.56505737578E+01 0.27868971395E+01 0.13667880867E+01
 0.66900088210E+00 0.32945530965E+00 0.16642638087E+00 0.93436757724E-01 0.70214782296E-01
 0.85035937243E-01 0.14510805493E+00 0.28370579750E+00 0.57428083917E+00 0.11729434342E+01
 0.23936282254E+01 0.48608710373E+01 0.97790980312E+01 0.19363948269E+02 0.37353783345E+02
 0.69071962352E+02 0.11972390294E+03 0.19322401978E+03 0.34236954026E+03 0.11323175572E+04
 0.58846513172E+04 0.22241433534E+05 0.10343761318E+05 0.82058531210E+04 0.31822245645E+04
 0.87750321848E+03 0.32880822335E+03 0.19509287383E+03 0.12406990945E+03 0.73471797538E+02
 0.40649470282E+02 0.21467306903E+02 0.11003103451E+02 0.55342592041E+01 0.27511576597E+01
 0.13584779872E+01 0.66873376322E+00 0.33064556748E+00 0.16703440570E+00 0.92519489292E-01
 0.66798644552E-01 0.76802555073E-01 0.12730387682E+00 0.24570360932E+00 0.49399201330E+00
 0.10032950988E+01 0.20348830574E+01 0.41080046775E+01 0.82140871321E+01 0.16173031546E+02
 0.31070752310E+02 0.57429241988E+02 0.10009985509E+03 0.16167548063E+03 0.25486374414E+03
 0.53671712228E+03 0.18476100213E+04 0.58846513172E+04 0.17708625558E+04 0.15970803032E+04
 0.87750321848E+03 0.41635711639E+03 0.24415582915E+03 0.16411522427E+03 0.10621983849E+03
 0.63594919281E+02 0.35700123422E+02 0.19154459761E+02 0.99692410614E+01 0.50849361211E+01
 0.25593424901E+01 0.12775841923E+01 0.63494702684E+00 0.31633501696E+00 0.16044528597E+00
 0.88109739620E-01 0.61484513872E-01 0.67009482237E-01 0.10740755692E+00 0.20369388714E+00
 0.40553068689E+00 0.81575572817E+00 0.16392616518E+01 0.32761283671E+01 0.64820911022E+01
 0.12629018480E+02 0.24035373769E+02 0.44164921527E+02 0.77058976126E+02 0.12522330366E+03
 0.18891473458E+03 0.28743972765E+03 0.53671712228E+03 0.11323175572E+04 0.42020842281E+03
 0.41275943324E+03 0.32880822335E+03 0.24415582915E+03 0.18063815425E+03 0.12782351920E+03
 0.83694727057E+02 0.50816815995E+02 0.29066775400E+02 0.15916326988E+02 0.84500107847E+01
 0.43899164425E+01 0.22467311602E+01 0.11381666441E+01 0.57308817932E+00 0.28865483550E+00
 0.14750989290E+00 0.80712230148E-01 0.54737587882E-01 0.56608044394E-01 0.87307436983E-01
 0.16209082332E+00 0.31849133814E+00 0.63268224871E+00 0.12557467856E+01 0.24758415698E+01
 0.48288722078E+01 0.92699421672E+01 0.17394504269E+02 0.31595185837E+02 0.54822349571E+02
 0.89393547358E+02 0.13494728359E+03 0.18891473458E+03 0.25486374414E+03 0.34236954026E+03
 0.21306509984E+03 0.21380396171E+03 0.19509287383E+03 0.16411522427E+03 0.12782351920E+03
 0.91776872371E+02 0.60855205288E+02 0.37654546473E+02 0.22043394858E+02 0.12369627540E+02
 0.67250070134E+01 0.35720979032E+01 0.18653729380E+01 0.96243300442E+00 0.49246130197E+00
 0.25149639769E+00 0.12990821877E+00 0.71144103999E-01 0.47142191364E-01 0.46403306754E-01
 0.68523496287E-01 0.12419794350E+00 0.23993609705E+00 0.46978916581E+00 0.91839065045E+00
 0.17814627324E+01 0.34146043262E+01 0.64376181650E+01 0.11862626676E+02 0.21193915307E+02
 0.36325982726E+02 0.58963544711E+02 0.89393547358E+02 0.12522330366E+03 0.16167548063E+03
 0.19322401978E+03 0.13173269716E+03 0.13331014249E+03 0.12406990945E+03 0.10621983849E+03
 0.83694727057E+02 0.60855205288E+02 0.41105223651E+02 0.26053045073E+02 0.15670251419E+02
 0.90403651688E+01 0.50491091978E+01 0.27500285400E+01 0.14694675428E+01 0.77421551822E+00
 0.40374800684E+00 0.20956857111E+00 0.10973047360E+00 0.60374739936E-01 0.39313751278E-01
 0.36949522721E-01 0.52094768754E-01 0.91865440535E-01 0.17400919836E+00 0.33521508073E+00
 0.64387387422E+00 0.12263779378E+01 0.23055352192E+01 0.42578213770E+01 0.76838161541E+01
 0.13453542977E+02 0.22657798174E+02 0.36325982726E+02 0.54822349571E+02 0.77058976126E+02
 0.10009985509E+03 0.11972390294E+03 0.76589477066E+02 0.78188301620E+02 0.73471797538E+02
 0.63594919281E+02 0.50816815995E+02 0.37654546473E+02 0.26053045073E+02 0.16978949728E+02
 0.10520753449E+02 0.62542026020E+01 0.35951423350E+01 0.20121338663E+01 0.11027019035E+01
 0.59436544299E+00 0.31661455491E+00 0.16738258326E+00 0.89067965155E-01 0.49359435713E-01
 0.31809728482E-01 0.28584215922E-01 0.38532934970E-01 0.65720064850E-01 0.12201190112E+00
 0.23053188328E+00 0.43484933480E+00 0.81196782324E+00 0.14945736150E+01 0.27004209378E+01
 0.47642144106E+01 0.81572198856E+01 0.13453542977E+02 0.21193915307E+02 0.31595185837E+02
 0.44164921527E+02 0.57429241988E+02 0.69071962352E+02 0.41590286839E+02 0.42787521526E+02
 0.40649470282E+02 0.35700123422E+02 0.29066775400E+02 0.22043394858E+02 0.15670251419E+02
 0.10520753449E+02 0.67242607390E+01 0.41228630615E+01 0.24423205309E+01 0.14062952309E+01
 0.79141049685E+00 0.43721083475E+00 0.23808572063E+00 0.12852412896E+00 0.69535814529E-01
 0.39003448694E-01 0.24908647783E-01 0.21597953177E-01 0.27706651751E-01 0.45721456796E-01
 0.82874271915E-01 0.15353352313E+00 0.28396613458E+00 0.51944079703E+00 0.93576418440E+00
 0.16525593328E+01 0.28484090945E+01 0.47642144106E+01 0.76838161541E+01 0.11862626676E+02
 0.17394504269E+02 0.24035373769E+02 0.31070752310E+02 0.37353783345E+02 0.21585810365E+02
 0.22346914764E+02 0.21467306903E+02 0.19154459761E+02 0.15916326988E+02 0.12369627540E+02
 0.90403651688E+01 0.62542026020E+01 0.41228630615E+01 0.26073677034E+01 0.15917461400E+01
 0.94351350080E+00 0.54555249967E+00 0.30916139484E+00 0.17233225863E+00 0.95071742465E-01
 0.52406980629E-01 0.29800712541E-01 0.18958137728E-01 0.15933494179E-01 0.19458487916E-01
 0.30995399243E-01 0.54733608806E-01 0.99369282573E-01 0.18001066233E+00 0.32261248946E+00
 0.56846498125E+00 0.98159321121E+00 0.16525593328E+01 0.27004209378E+01 0.42578213770E+01
 0.64376181650E+01 0.92699421672E+01 0.12629018480E+02 0.16173031546E+02 0.19363948269E+02
 0.10896540281E+02 0.11336899142E+02 0.11003103451E+02 0.99692410614E+01 0.84500107847E+01
 0.67250070134E+01 0.50491091978E+01 0.35951423350E+01 0.24423205309E+01 0.15917461400E+01
 0.10012295934E+01 0.61058067412E+00 0.36287384243E+00 0.21092450564E+00 0.12048067106E+00
 0.67918141638E-01 0.38220426058E-01 0.22022654886E-01 0.14049428170E-01 0.11456859466E-01
 0.13411955186E-01 0.20515475167E-01 0.35315411215E-01 0.62660484780E-01 0.11127735397E+00
 0.19520611592E+00 0.33676127869E+00 0.56846498125E+00 0.93576418440E+00 0.14945736150E+01
 0.23055352192E+01 0.34146043262E+01 0.48288722078E+01 0.64820911022E+01 0.82140871321E+01
 0.97790980312E+01 0.54097645658E+01 0.56505737578E+01 0.55342592041E+01 0.50849361211E+01
 0.43899164425E+01 0.35720979032E+01 0.27500285400E+01 0.20121338663E+01 0.14062952309E+01
 0.94351350080E+00 0.61058067412E+00 0.38299572426E+00 0.23375304699E+00 0.13941903384E+00
 0.81546600958E-01 0.47043437126E-01 0.27002795020E-01 0.15834076055E-01 0.10118762688E-01
 0.80884772289E-02 0.90398247891E-02 0.13330691112E-01 0.22288743277E-01 0.38704329296E-01
 0.67258615307E-01 0.11562323577E+00 0.19520611592E+00 0.32261248946E+00 0.51944079703E+00
 0.81196782324E+00 0.12263779378E+01 0.17814627324E+01 0.24758415698E+01 0.32761283671E+01
 0.41080046775E+01 0.48608710373E+01 0.26596432312E+01 0.27868971395E+01 0.27511576597E+01
 0.25593424901E+01 0.22467311602E+01 0.18653729380E+01 0.14694675428E+01 0.11027019035E+01
 0.79141049685E+00 0.54555249967E+00 0.36287384242E+00 0.23375304699E+00 0.14645599777E+00
 0.89551337037E-01 0.53671381625E-01 0.31671018147E-01 0.18584341661E-01 0.11085890538E-01
 0.71504834690E-02 0.56142338075E-02 0.60377134461E-02 0.85245800736E-02 0.13842491313E-01
 0.23472027010E-01 0.39970819756E-01 0.67258615307E-01 0.11127735397E+00 0.18001066233E+00
 0.28396613458E+00 0.43484933480E+00 0.64387387422E+00 0.91839065045E+00 0.12557467856E+01
 0.16392616518E+01 0.20348830574E+01 0.23936282254E+01 0.13011482179E+01 0.13667880867E+01
 0.13584779872E+01 0.12775841923E+01 0.11381666441E+01 0.96243300442E+00 0.77421551822E+00
 0.59436544299E+00 0.43721083475E+00 0.30916139484E+00 0.21092450564E+00 0.13941903384E+00
 0.89551337036E-01 0.56130839294E-01 0.34442828356E-01 0.20799099181E-01 0.12461141569E-01
 0.75787291154E-02 0.49349036071E-02 0.38483670406E-02 0.40002593635E-02 0.54389635640E-02
 0.85298521708E-02 0.14097772266E-01 0.23472027010E-01 0.38704329296E-01 0.62660484779E-01
 0.99369282572E-01 0.15353352313E+00 0.23053188328E+00 0.33521508073E+00 0.46978916581E+00
 0.63268224871E+00 0.81575572817E+00 0.10032950988E+01 0.11729434342E+01 0.63570588603E+00
 0.66900088210E+00 0.66873376322E+00 0.63494702684E+00 0.57308817932E+00 0.49246130196E+00
 0.40374800684E+00 0.31661455491E+00 0.23808572063E+00 0.17233225863E+00 0.12048067106E+00
 0.81546600960E-01 0.53671381626E-01 0.34442828356E-01 0.21633968308E-01 0.13350607172E-01
 0.81752193335E-02 0.50677523835E-02 0.33545076425E-02 0.26138899769E-02 0.26667251780E-02
 0.35030860273E-02 0.53238399778E-02 0.85298521705E-02 0.13842491312E-01 0.22288743277E-01
 0.35315411215E-01 0.54733608806E-01 0.82874271915E-01 0.12201190112E+00 0.17400919836E+00
 0.23993609705E+00 0.31849133814E+00 0.40553068689E+00 0.49399201331E+00 0.57428083917E+00
 0.31298629894E+00 0.32945530965E+00 0.33064556748E+00 0.31633501696E+00 0.28865483550E+00
 0.25149639769E+00 0.20956857111E+00 0.16738258326E+00 0.12852412896E+00 0.95071742465E-01
 0.67918141639E-01 0.47043437126E-01 0.31671018147E-01 0.20799099182E-01 0.13350607172E-01
 0.84245299223E-02 0.52720087585E-02 0.33515710515E-02 0.22718849204E-02 0.18085965267E-02
 0.18412310733E-02 0.23777342168E-02 0.35030860284E-02 0.54389635644E-02 0.85245800723E-02
 0.13330691112E-01 0.20515475167E-01 0.30995399243E-01 0.45721456795E-01 0.65720064849E-01
 0.91865440535E-01 0.12419794350E+00 0.16209082332E+00 0.20369388714E+00 0.24570360932E+00
 0.28370579750E+00 0.15874454023E+00 0.16642638087E+00 0.16703440570E+00 0.16044528597E+00
 0.14750989290E+00 0.12990821877E+00 0.10973047360E+00 0.89067965156E-01 0.69535814528E-01
 0.52406980628E-01 0.38220426055E-01 0.27002795019E-01 0.18584341664E-01 0.12461141568E-01
 0.81752193330E-02 0.52720087573E-02 0.33924769727E-02 0.22315467963E-02 0.15931072354E-02
 0.13391931446E-02 0.14235365772E-02 0.18412310729E-02 0.26667251797E-02 0.40002593634E-02
 0.60377134449E-02 0.90398247895E-02 0.13411955187E-01 0.19458487917E-01 0.27706651751E-01
 0.38532934971E-01 0.52094768752E-01 0.68523496288E-01 0.87307436984E-01 0.10740755692E+00
 0.12730387682E+00 0.14510805493E+00 0.90819422724E-01 0.93436757723E-01 0.92519489292E-01
 0.88109739620E-01 0.80712230148E-01 0.71144104000E-01 0.60374739936E-01 0.49359435713E-01
 0.39003448694E-01 0.29800712541E-01 0.22022654886E-01 0.15834076055E-01 0.11085890538E-01
 0.75787291156E-02 0.50677523831E-02 0.33515710511E-02 0.22315467938E-02 0.15580319252E-02
 0.12171230603E-02 0.11515153436E-02 0.13391931434E-02 0.18085965266E-02 0.26138899777E-02
 0.38483670407E-02 0.56142338088E-02 0.80884772296E-02 0.11456859466E-01 0.15933494179E-01
 0.21597953177E-01 0.28584215923E-01 0.36949522722E-01 0.46403306755E-01 0.56608044396E-01
 0.67009482236E-01 0.76802555072E-01 0.85035937241E-01 0.71389904790E-01 0.70214782295E-01
 0.66798644550E-01 0.61484513869E-01 0.54737587881E-01 0.47142191366E-01 0.39313751277E-01
 0.31809728487E-01 0.24908647783E-01 0.18958137727E-01 0.14049428173E-01 0.10118762688E-01
 0.71504834616E-02 0.49349036074E-02 0.33545076388E-02 0.22718849163E-02 0.15931072335E-02
 0.12171230588E-02 0.11018352231E-02 0.12171230578E-02 0.15931072336E-02 0.22718849161E-02
 0.33545076387E-02 0.49349036073E-02 0.71504834616E-02 0.10118762689E-01 0.14049428172E-01
 0.18958137727E-01 0.24908647783E-01 0.31809728487E-01 0.39313751277E-01 0.47142191366E-01
 0.54737587881E-01 0.61484513869E-01 0.66798644549E-01 0.70214782295E-01 0.90819422724E-01
 0.85035937243E-01 0.76802555072E-01 0.67009482236E-01 0.56608044396E-01 0.46403306755E-01
 0.36949522722E-01 0.28584215923E-01 0.21597953177E-01 0.15933494179E-01 0.11456859466E-01
 0.80884772293E-02 0.56142338089E-02 0.38483670409E-02 0.26138899779E-02 0.18085965265E-02
 0.13391931430E-02 0.11515153419E-02 0.12171230593E-02 0.15580319255E-02 0.22315467941E-02
 0.33515710509E-02 0.50677523831E-02 0.75787291154E-02 0.11085890538E-01 0.15834076055E-01
 0.22022654886E-01 0.29800712541E-01 0.39003448694E-01 0.49359435713E-01 0.60374739936E-01
 0.71144104000E-01 0.80712230148E-01 0.88109739620E-01 0.92519489292E-01 0.93436757723E-01
 0.15874454024E+00 0.14510805493E+00 0.12730387682E+00 0.10740755692E+00 0.87307436984E-01
 0.68523496288E-01 0.52094768752E-01 0.38532934971E-01 0.27706651751E-01 0.19458487917E-01
 0.13411955187E-01 0.90398247894E-02 0.60377134450E-02 0.40002593636E-02 0.26667251799E-02
 0.18412310729E-02 0.14235365772E-02 0.13391931448E-02 0.15931072353E-02 0.22315467963E-02
 0.33924769727E-02 0.52720087574E-02 0.81752193330E-02 0.12461141568E-01 0.18584341664E-01
 0.27002795019E-01 0.38220426055E-01 0.52406980628E-01 0.69535814528E-01 0.89067965156E-01
 0.10973047360E+00 0.12990821877E+00 0.14750989290E+00 0.16044528597E+00 0.16703440570E+00
 0.16642638087E+00 0.31298629894E+00 0.28370579750E+00 0.24570360932E+00 0.20369388714E+00
 0.16209082332E+00 0.12419794350E+00 0.91865440535E-01 0.65720064849E-01 0.45721456795E-01
 0.30995399243E-01 0.20515475167E-01 0.13330691112E-01 0.85245800723E-02 0.54389635646E-02
 0.35030860285E-02 0.23777342168E-02 0.18412310732E-02 0.18085965268E-02 0.22718849204E-02
 0.33515710514E-02 0.52720087584E-02 0.84245299222E-02 0.13350607172E-01 0.20799099181E-01
 0.31671018147E-01 0.47043437126E-01 0.67918141639E-01 0.95071742465E-01 0.12852412896E+00
 0.16738258326E+00 0.20956857111E+00 0.25149639769E+00 0.28865483550E+00 0.31633501696E+00
 0.33064556748E+00 0.32945530965E+00 0.63570588603E+00 0.57428083917E+00 0.49399201331E+00
 0.40553068689E+00 0.31849133814E+00 0.23993609705E+00 0.17400919836E+00 0.12201190112E+00
 0.82874271915E-01 0.54733608806E-01 0.35315411215E-01 0.22288743277E-01 0.13842491312E-01
 0.85298521706E-02 0.53238399778E-02 0.35030860274E-02 0.26667251777E-02 0.26138899779E-02
 0.33545076426E-02 0.50677523824E-02 0.81752193336E-02 0.13350607172E-01 0.21633968308E-01
 0.34442828356E-01 0.53671381626E-01 0.81546600960E-01 0.12048067106E+00 0.17233225863E+00
 0.23808572063E+00 0.31661455491E+00 0.40374800684E+00 0.49246130196E+00 0.57308817932E+00
 0.63494702684E+00 0.66873376322E+00 0.66900088210E+00 0.13011482179E+01 0.11729434342E+01
 0.10032950988E+01 0.81575572817E+00 0.63268224871E+00 0.46978916581E+00 0.33521508073E+00
 0.23053188328E+00 0.15353352313E+00 0.99369282572E-01 0.62660484779E-01 0.38704329296E-01
 0.23472027010E-01 0.14097772266E-01 0.85298521708E-02 0.54389635640E-02 0.40002593636E-02
 0.38483670408E-02 0.49349036067E-02 0.75787291155E-02 0.12461141569E-01 0.20799099181E-01
 0.34442828356E-01 0.56130839294E-01 0.89551337036E-01 0.13941903384E+00 0.21092450564E+00
 0.30916139484E+00 0.43721083475E+00 0.59436544299E+00 0.77421551822E+00 0.96243300442E+00
 0.11381666441E+01 0.12775841923E+01 0.13584779872E+01 0.13667880867E+01 0.26596432312E+01
 0.23936282254E+01 0.20348830574E+01 0.16392616518E+01 0.12557467856E+01 0.91839065045E+00
 0.64387387422E+00 0.43484933480E+00 0.28396613458E+00 0.18001066233E+00 0.11127735397E+00
 0.67258615307E-01 0.39970819756E-01 0.23472027010E-01 0.13842491313E-01 0.85245800736E-02
 0.60377134460E-02 0.56142338077E-02 0.71504834688E-02 0.11085890537E-01 0.18584341661E-01
 0.31671018147E-01 0.53671381626E-01 0.89551337037E-01 0.14645599777E+00 0.23375304699E+00
 0.36287384242E+00 0.54555249967E+00 0.79141049685E+00 0.11027019035E+01 0.14694675428E+01
 0.18653729380E+01 0.22467311602E+01 0.25593424901E+01 0.27511576597E+01 0.27868971395E+01
 0.54097645658E+01 0.48608710373E+01 0.41080046775E+01 0.32761283671E+01 0.24758415698E+01
 0.17814627324E+01 0.12263779378E+01 0.81196782324E+00 0.51944079703E+00 0.32261248946E+00
 0.19520611592E+00 0.11562323577E+00 0.67258615307E-01 0.38704329296E-01 0.22288743277E-01
 0.13330691112E-01 0.90398247892E-02 0.80884772298E-02 0.10118762689E-01 0.15834076054E-01
 0.27002795020E-01 0.47043437126E-01 0.81546600958E-01 0.13941903384E+00 0.23375304699E+00
 0.38299572426E+00 0.61058067412E+00 0.94351350080E+00 0.14062952309E+01 0.20121338663E+01
 0.27500285400E+01 0.35720979032E+01 0.43899164425E+01 0.50849361211E+01 0.55342592041E+01
 0.56505737578E+01 0.10896540281E+02 0.97790980312E+01 0.82140871321E+01 0.64820911022E+01
 0.48288722078E+01 0.34146043262E+01 0.23055352192E+01 0.14945736150E+01 0.93576418440E+00
 0.56846498125E+00 0.33676127869E+00 0.19520611592E+00 0.11127735397E+00 0.62660484780E-01
 0.35315411215E-01 0.20515475167E-01 0.13411955186E-01 0.11456859466E-01 0.14049428170E-01
 0.22022654886E-01 0.38220426058E-01 0.67918141638E-01 0.12048067106E+00 0.21092450564E+00
 0.36287384243E+00 0.61058067412E+00 0.10012295934E+01 0.15917461400E+01 0.24423205309E+01
 0.35951423350E+01 0.50491091978E+01 0.67250070134E+01 0.84500107847E+01 0.99692410614E+01
 0.11003103451E+02 0.11336899142E+02 0.21585810365E+02 0.19363948269E+02 0.16173031546E+02
 0.12629018480E+02 0.92699421672E+01 0.64376181650E+01 0.42578213770E+01 0.27004209378E+01
 0.16525593328E+01 0.98159321121E+00 0.56846498125E+00 0.32261248946E+00 0.18001066233E+00
 0.99369282573E-01 0.54733608806E-01 0.30995399243E-01 0.19458487916E-01 0.15933494179E-01
 0.18958137728E-01 0.29800712541E-01 0.52406980629E-01 0.95071742465E-01 0.17233225863E+00
 0.30916139484E+00 0.54555249967E+00 0.94351350080E+00 0.15917461400E+01 0.26073677034E+01
 0.41228630615E+01 0.62542026020E+01 0.90403651688E+01 0.12369627540E+02 0.15916326988E+02
 0.19154459761E+02 0.21467306903E+02 0.22346914764E+02 0.41590286839E+02 0.37353783345E+02
 0.31070752310E+02 0.24035373769E+02 0.17394504269E+02 0.11862626676E+02 0.76838161541E+01
 0.47642144106E+01 0.28484090945E+01 0.16525593328E+01 0.93576418440E+00 0.51944079703E+00
 0.28396613458E+00 0.15353352313E+00 0.82874271915E-01 0.45721456796E-01 0.27706651751E-01
 0.21597953177E-01 0.24908647783E-01 0.39003448694E-01 0.69535814529E-01 0.12852412896E+00
 0.23808572063E+00 0.43721083475E+00 0.79141049685E+00 0.14062952309E+01 0.24423205309E+01
 0.41228630615E+01 0.67242607390E+01 0.10520753449E+02 0.15670251419E+02 0.22043394858E+02
 0.29066775400E+02 0.35700123422E+02 0.40649470282E+02 0.42787521526E+02 0.76589477066E+02
 0.69071962352E+02 0.57429241988E+02 0.44164921527E+02 0.31595185837E+02 0.21193915307E+02
 0.13453542977E+02 0.81572198856E+01 0.47642144106E+01 0.27004209378E+01 0.14945736150E+01
 0.81196782324E+00 0.43484933480E+00 0.23053188328E+00 0.12201190112E+00 0.65720064850E-01
 0.38532934970E-01 0.28584215922E-01 0.31809728482E-01 0.49359435713E-01 0.89067965155E-01
 0.16738258326E+00 0.31661455491E+00 0.59436544299E+00 0.11027019035E+01 0.20121338663E+01
 0.35951423350E+01 0.62542026020E+01 0.10520753449E+02 0.16978949728E+02 0.26053045073E+02
 0.37654546473E+02 0.50816815995E+02 0.63594919281E+02 0.73471797538E+02 0.78188301620E+02
 0.13173269716E+03 0.11972390294E+03 0.10009985509E+03 0.77058976126E+02 0.54822349571E+02
 0.36325982726E+02 0.22657798174E+02 0.13453542977E+02 0.76838161541E+01 0.42578213770E+01
 0.23055352192E+01 0.12263779378E+01 0.64387387422E+00 0.33521508073E+00 0.17400919836E+00
 0.91865440535E-01 0.52094768754E-01 0.36949522722E-01 0.39313751278E-01 0.60374739936E-01
 0.10973047360E+00 0.20956857111E+00 0.40374800684E+00 0.77421551822E+00 0.14694675428E+01
 0.27500285400E+01 0.50491091978E+01 0.90403651688E+01 0.15670251419E+02 0.26053045073E+02
 0.41105223651E+02 0.60855205288E+02 0.83694727057E+02 0.10621983849E+03 0.12406990945E+03
 0.13331014249E+03 0.21306509984E+03 0.19322401978E+03 0.16167548063E+03 0.12522330366E+03
 0.89393547358E+02 0.58963544711E+02 0.36325982726E+02 0.21193915307E+02 0.11862626676E+02
 0.64376181650E+01 0.34146043262E+01 0.17814627324E+01 0.91839065045E+00 0.46978916581E+00
 0.23993609705E+00 0.12419794350E+00 0.68523496287E-01 0.46403306755E-01 0.47142191363E-01
 0.71144103999E-01 0.12990821877E+00 0.25149639769E+00 0.49246130197E+00 0.96243300442E+00
 0.18653729380E+01 0.35720979032E+01 0.67250070134E+01 0.12369627540E+02 0.22043394858E+02
 0.37654546473E+02 0.60855205288E+02 0.91776872371E+02 0.12782351920E+03 0.16411522427E+03
 0.19509287383E+03 0.21380396171E+03 0.42020842281E+03 0.34236954026E+03 0.25486374414E+03
 0.18891473458E+03 0.13494728359E+03 0.89393547358E+02 0.54822349571E+02 0.31595185837E+02
 0.17394504269E+02 0.92699421672E+01 0.48288722078E+01 0.24758415698E+01 0.12557467856E+01
 0.63268224871E+00 0.31849133814E+00 0.16209082332E+00 0.87307436983E-01 0.56608044395E-01
 0.54737587882E-01 0.80712230147E-01 0.14750989290E+00 0.28865483550E+00 0.57308817932E+00
 0.11381666441E+01 0.22467311602E+01 0.43899164425E+01 0.84500107847E+01 0.15916326988E+02
 0.29066775400E+02 0.50816815995E+02 0.83694727057E+02 0.12782351920E+03 0.18063815425E+03
 0.24415582915E+03 0.32880822335E+03 0.41275943324E+03 0.17708625558E+04 0.11323175572E+04
 0.53671712228E+03 0.28743972765E+03 0.18891473458E+03 0.12522330366E+03 0.77058976126E+02
 0.44164921527E+02 0.24035373769E+02 0.12629018480E+02 0.64820911022E+01 0.32761283671E+01
 0.16392616518E+01 0.81575572817E+00 0.40553068689E+00 0.20369388714E+00 0.10740755692E+00
 0.67009482237E-01 0.61484513872E-01 0.88109739620E-01 0.16044528597E+00 0.31633501696E+00
 0.63494702684E+00 0.12775841923E+01 0.25593424901E+01 0.50849361211E+01 0.99692410614E+01
 0.19154459761E+02 0.35700123422E+02 0.63594919281E+02 0.10621983849E+03 0.16411522427E+03
 0.24415582915E+03 0.41635711639E+03 0.87750321848E+03 0.15970803032E+04 0.10343761318E+05
 0.58846513172E+04 0.18476100213E+04 0.53671712228E+03 0.25486374414E+03 0.16167548063E+03
 0.10009985509E+03 0.57429241988E+02 0.31070752310E+02 0.16173031546E+02 0.82140871321E+01
 0.41080046775E+01 0.20348830574E+01 0.10032950988E+01 0.49399201330E+00 0.24570360932E+00
 0.12730387682E+00 0.76802555073E-01 0.66798644552E-01 0.92519489292E-01 0.16703440570E+00
 0.33064556748E+00 0.66873376322E+00 0.13584779872E+01 0.27511576597E+01 0.55342592041E+01
 0.11003103451E+02 0.21467306903E+02 0.40649470282E+02 0.73471797538E+02 0.12406990945E+03
 0.19509287383E+03 0.32880822335E+03 0.87750321848E+03 0.31822245645E+04 0.82058531210E+04
 0.39212649658E+05 0.22241433534E+05 0.58846513172E+04 0.11323175572E+04 0.34236954026E+03
 0.19322401978E+03 0.11972390294E+03 0.69071962352E+02 0.37353783345E+02 0.19363948269E+02
 0.97790980312E+01 0.48608710373E+01 0.23936282254E+01 0.11729434342E+01 0.57428083917E+00
 0.28370579750E+00 0.14510805493E+00 0.85035937243E-01 0.70214782296E-01 0.93436757725E-01
 0.16642638087E+00 0.32945530965E+00 0.66900088210E+00 0.13667880867E+01 0.27868971395E+01
 0.56505737578E+01 0.11336899142E+02 0.22346914764E+02 0.42787521526E+02 0.78188301620E+02
 0.13331014249E+03 0.21380396171E+03 0.41275943324E+03 0.15970803032E+04 0.82058531210E+04
 0.26903573359E+05 0.63183588795E+05 0.30641468403E+05 0.84521551445E+04 0.15351940895E+04
 0.39557325378E+03 0.20796262384E+03 0.12901446366E+03 0.75025981525E+02 0.40775070254E+02
 0.21188628240E+02 0.10710297677E+02 0.53241443225E+01 0.26206035361E+01 0.12833986791E+01
 0.62763455543E+00 0.30929084979E+00 0.15699769352E+00 0.89891463224E-01 0.70685081418E-01
 0.89891463223E-01 0.15699769352E+00 0.30929084979E+00 0.62763455543E+00 0.12833986791E+01
 0.26206035361E+01 0.53241443225E+01 0.10710297677E+02 0.21188628240E+02 0.40775070254E+02
 0.75025981525E+02 0.12901446366E+03 0.20796262384E+03 0.39557325378E+03 0.15351940895E+04
 0.84521551445E+04 0.30641468403E+05 0.30641468403E+05 0.21566052599E+05 0.67491730060E+04
 0.13907840866E+04 0.38903657822E+03 0.20866723448E+03 0.13055899851E+03 0.76590628226E+02
 0.41946805669E+02 0.21934221405E+02 0.11142236136E+02 0.55606770122E+01 0.27457619372E+01
 0.13481039303E+01 0.66045968789E+00 0.32554416423E+00 0.16458289757E+00 0.92476133410E-01
 0.69522637952E-01 0.84172823110E-01 0.14352732786E+00 0.28038476000E+00 0.56706926099E+00
 0.11571327018E+01 0.23589311761E+01 0.47847228601E+01 0.96138046747E+01 0.19011813872E+02
 0.36628483737E+02 0.67668476326E+02 0.11725714762E+03 0.18891793679E+03 0.32683860654E+03
 0.10023689093E+04 0.48883646470E+04 0.17871473076E+05 0.84521551445E+04 0.67491730060E+04
 0.26971984896E+04 0.78756634665E+03 0.31469132610E+03 0.19071929096E+03 0.12151301138E+03
 0.71974571477E+02 0.39854273950E+02 0.21072534926E+02 0.10814828416E+02 0.54464284559E+01
 0.27106128852E+01 0.13398859971E+01 0.66019739712E+00 0.32671708400E+00 0.16518364818E+00
 0.91565482728E-01 0.66144337086E-01 0.76030593537E-01 0.12593959676E+00 0.24286446324E+00
 0.48788461751E+00 0.98995460978E+00 0.20058426083E+01 0.40449153195E+01 0.80780418655E+01
 0.15884507232E+02 0.30477739636E+02 0.56275221007E+02 0.98041095187E+02 0.15828722083E+03
 0.24733770210E+03 0.49678367179E+03 0.15988677863E+04 0.48883646470E+04 0.15351940895E+04
 0.13907840866E+04 0.78756634665E+03 0.39219303641E+03 0.23735379810E+03 0.16066560507E+03
 0.10403367663E+03 0.62308706542E+02 0.35009812927E+02 0.18806543408E+02 0.98003709854E+01
 0.50049643388E+01 0.25219507335E+01 0.12601856551E+01 0.62688616745E+00 0.31258619381E+00
 0.15867249897E+00 0.87200517521E-01 0.60886479620E-01 0.66343396342E-01 0.10627593167E+00
 0.20137987015E+00 0.40061534435E+00 0.80514947572E+00 0.16163679132E+01 0.32270046505E+01
 0.63774740730E+01 0.12409730244E+02 0.23588286363E+02 0.43294832171E+02 0.75485465865E+02
 0.12264224832E+03 0.18475793720E+03 0.27732335204E+03 0.49678367179E+03 0.10023689093E+04
 0.39557325378E+03 0.38903657822E+03 0.31469132610E+03 0.23735379810E+03 0.17673695217E+03
 0.12518783609E+03 0.81980498567E+02 0.49804517472E+02 0.28515659081E+02 0.15632887213E+02
 0.83095984532E+01 0.43219593559E+01 0.22142921665E+01 0.11228722303E+01 0.56589256561E+00
 0.28526105556E+00 0.14589310289E+00 0.79884022715E-01 0.54209542812E-01 0.56056690284E-01
 0.86405730691E-01 0.16029265254E+00 0.31471337757E+00 0.62465104786E+00 0.12386784451E+01
 0.24398111110E+01 0.47532776179E+01 0.91142202140E+01 0.17081653650E+02 0.30991187758E+02
 0.53724160974E+02 0.87559002236E+02 0.13216189555E+03 0.18475793720E+03 0.24733770210E+03
 0.32683860654E+03 0.20796262384E+03 0.20866723448E+03 0.19071929096E+03 0.16066560507E+03
 0.12518783609E+03 0.89892296337E+02 0.59627609750E+02 0.36922887165E+02 0.21636883847E+02
 0.12155122700E+02 0.66160209087E+01 0.35179807296E+01 0.18390268420E+01 0.94968701815E+00
 0.48636775991E+00 0.24857255417E+00 0.12849746965E+00 0.70420153424E-01 0.46690362587E-01
 0.45959604156E-01 0.67828484595E-01 0.12285639614E+00 0.23716029085E+00 0.46400461709E+00
 0.90628844628E+00 0.17563450806E+01 0.33631491721E+01 0.63337203016E+01 0.11657879757E+02
 0.20804698387E+02 0.35622444703E+02 0.57776644803E+02 0.87559002236E+02 0.12264224832E+03
 0.15828722083E+03 0.18891793679E+03 0.12901446366E+03 0.13055899851E+03 0.12151301138E+03
 0.10403367663E+03 0.81980498567E+02 0.59627609750E+02 0.40300336029E+02 0.25564353883E+02
 0.15391675115E+02 0.88889486150E+01 0.49696848079E+01 0.27095059024E+01 0.14492061655E+01
 0.76420660823E+00 0.39884838763E+00 0.20717496112E+00 0.10855830681E+00 0.59768279072E-01
 0.38944994343E-01 0.36603409311E-01 0.51585240755E-01 0.90897271095E-01 0.17205836337E+00
 0.33121202221E+00 0.63568626353E+00 0.12097469541E+01 0.22721528086E+01 0.41921460221E+01
 0.75573263520E+01 0.13218245957E+02 0.22238893525E+02 0.35622444703E+02 0.53724160974E+02
 0.75485465865E+02 0.98041095187E+02 0.11725714762E+03 0.75025981525E+02 0.76590628226E+02
 0.71974571477E+02 0.62308706542E+02 0.49804517472E+02 0.36922887165E+02 0.25564353883E+02
 0.16674382920E+02 0.10341676589E+02 0.61535046634E+01 0.35406343041E+01 0.19834542389E+01
 0.10879383028E+01 0.58686883106E+00 0.31285038255E+00 0.16550755387E+00 0.88127353286E-01
 0.48870467858E-01 0.31511927712E-01 0.28319949478E-01 0.38162894278E-01 0.65048443397E-01
 0.12069001435E+00 0.22787057762E+00 0.42952949949E+00 0.80141645118E+00 0.14739213574E+01
 0.26607169301E+01 0.46897416997E+01 0.80222116418E+01 0.13218245957E+02 0.20804698387E+02
 0.30991187758E+02 0.43294832171E+02 0.56275221007E+02 0.67668476326E+02 0.40775070254E+02
 0.41946805669E+02 0.39854273950E+02 0.35009812927E+02 0.28515659081E+02 0.21636883847E+02
 0.15391675115E+02 0.10341676589E+02 0.66152880345E+01 0.40595115387E+01 0.24068409940E+01
 0.13870044850E+01 0.78115301834E+00 0.43185770681E+00 0.23533149103E+00 0.12712731043E+00
 0.68823052683E-01 0.38632462670E-01 0.24684840623E-01 0.21412008779E-01 0.27451096714E-01
 0.45271461394E-01 0.82000219585E-01 0.15183067780E+00 0.28062344560E+00 0.51297403934E+00
 0.92340849916E+00 0.16294490850E+01 0.28062646941E+01 0.46897416997E+01 0.75573263520E+01
 0.11657879757E+02 0.17081653650E+02 0.23588286363E+02 0.30477739636E+02 0.36628483737E+02
 0.21188628240E+02 0.21934221405E+02 0.21072534926E+02 0.18806543408E+02 0.15632887213E+02