unknown system                          
   1.00000000000000     
     1.609142    1.266876    1.266876
     1.609142   -1.266876   -1.266876
     0.000000    5.618499   -5.618499
   Fe
     4
Direct
  0.000000  0.000000  0.502050
  0.500000  0.500000  0.747950
  0.000000  0.000000  0.002050
  0.500000  0.500000  0.247950
 
   36   36  120
 0.28791072909E+04 0.34012899514E+04 0.59519725988E+03 0.75761490926E+03 0.98471954124E+03
 0.85553041516E+03 0.61294894098E+03 0.40182177010E+03 0.25432393748E+03 0.16040268171E+03
 0.10300419286E+03 0.68472974838E+02 0.47740837620E+02 0.35226406860E+02 0.27608442475E+02
 0.22864908256E+02 0.20180665826E+02 0.18688539356E+02 0.18213112534E+02 0.18688539356E+02
 0.20180665826E+02 0.22864908256E+02 0.27608442475E+02 0.35226406860E+02 0.47740837620E+02
 0.68472974838E+02 0.10300419286E+03 0.16040268171E+03 0.25432393748E+03 0.40182177010E+03
 0.61294894098E+03 0.85553041516E+03 0.98471954124E+03 0.75761490926E+03 0.59519725988E+03
 0.34012899514E+04 0.34012899514E+04 0.18917513800E+04 0.46384810087E+03 0.74351908095E+03
 0.96737892393E+03 0.84963314146E+03 0.61557560116E+03 0.40705961413E+03 0.25919078826E+03
 0.16407375389E+03 0.10553300787E+03 0.70139131553E+02 0.48812924992E+02 0.35904170842E+02
 0.28025492374E+02 0.23086069496E+02 0.20287866296E+02 0.18685712402E+02 0.18095721866E+02
 0.18436886473E+02 0.19757521329E+02 0.22218839680E+02 0.26542248908E+02 0.33518465658E+02
 0.44954964519E+02 0.63840176774E+02 0.95194575530E+02 0.14716122631E+03 0.23205787134E+03
 0.36562624869E+03 0.55892648953E+03 0.79015802577E+03 0.94515851813E+03 0.79876105032E+03
 0.43222780386E+03 0.13777296845E+04 0.59519725988E+03 0.46384810087E+03 0.48026289920E+03
 0.79360653398E+03 0.90798431498E+03 0.77786120344E+03 0.56699310109E+03 0.38004455687E+03
 0.24539970514E+03 0.15728372320E+03 0.10221928804E+03 0.68501044904E+02 0.47970743097E+02
 0.35435180625E+02 0.27725187206E+02 0.22851414807E+02 0.20061716372E+02 0.18424691499E+02
 0.17754366606E+02 0.17958655843E+02 0.19067976516E+02 0.21224866748E+02 0.24632661541E+02
 0.31046298478E+02 0.40928410365E+02 0.57116586666E+02 0.83747896101E+02 0.12746714209E+03
 0.19826647497E+03 0.30911003531E+03 0.47077275304E+03 0.67415373725E+03 0.85328775625E+03
 0.86121342925E+03 0.61053393716E+03 0.43222780386E+03 0.75761490926E+03 0.74351908095E+03
 0.79360653398E+03 0.86077458053E+03 0.81697785988E+03 0.66505303607E+03 0.48417312004E+03
 0.32952910573E+03 0.21698450759E+03 0.14180832987E+03 0.93832704448E+02 0.63893441263E+02
 0.45362618416E+02 0.33887560709E+02 0.26742569168E+02 0.22183022339E+02 0.19521121991E+02
 0.17927240132E+02 0.17219691442E+02 0.17300493522E+02 0.18183686501E+02 0.19990366435E+02
 0.22909590995E+02 0.28141796150E+02 0.36263343436E+02 0.49403901395E+02 0.70731627327E+02
 0.10524866009E+03 0.16039382405E+03 0.24594861204E+03 0.37138004107E+03 0.53707450834E+03
 0.71708149350E+03 0.84657566019E+03 0.86121342925E+03 0.79876105032E+03 0.98471954124E+03
 0.96737892393E+03 0.90798431498E+03 0.81697785988E+03 0.68836594100E+03 0.53565046903E+03
 0.38870966136E+03 0.26871087371E+03 0.18098478608E+03 0.12119595956E+03 0.82129449645E+02
 0.57189447835E+02 0.41433941543E+02 0.31496125605E+02 0.25207749916E+02 0.21151943258E+02
 0.18718307272E+02 0.17237262054E+02 0.16537192938E+02 0.16519705725E+02 0.17185407531E+02
 0.18633060419E+02 0.21032188323E+02 0.25131171012E+02 0.31521233012E+02 0.41705560515E+02
 0.57965247328E+02 0.83836799747E+02 0.12451054030E+03 0.18688501802E+03 0.27845234585E+03
 0.40363956682E+03 0.55695719286E+03 0.71708149350E+03 0.85328775625E+03 0.94515851813E+03
 0.85553041516E+03 0.84963314146E+03 0.77786120344E+03 0.66505303607E+03 0.53565046903E+03
 0.40841391672E+03 0.29714586355E+03 0.20894557607E+03 0.14420383773E+03 0.99246602336E+02
 0.69167033238E+02 0.49495656800E+02 0.36781896098E+02 0.28592935605E+02 0.22992049762E+02
 0.19864438414E+02 0.17729408434E+02 0.16413615593E+02 0.15760255364E+02 0.15675542121E+02
 0.16150352564E+02 0.17261957166E+02 0.19156549233E+02 0.22008497134E+02 0.27120759084E+02
 0.34726663272E+02 0.46650087715E+02 0.65279688371E+02 0.94061890218E+02 0.13760517642E+03
 0.20125225961E+03 0.28960635647E+03 0.40363956682E+03 0.53707450834E+03 0.67415373725E+03
 0.79015802577E+03 0.61294894098E+03 0.61557560116E+03 0.56699310109E+03 0.48417312004E+03
 0.38870966136E+03 0.29714586355E+03 0.21878814162E+03 0.15700620702E+03 0.11122423773E+03
 0.78834826608E+02 0.56666152040E+02 0.41815643764E+02 0.31990270395E+02 0.25519621344E+02
 0.21081696056E+02 0.18442394863E+02 0.16641216637E+02 0.15520863312E+02 0.14942757149E+02
 0.14821703766E+02 0.15142635539E+02 0.15963511245E+02 0.17405372813E+02 0.19626607773E+02
 0.23303244144E+02 0.28829087820E+02 0.37331523820E+02 0.50361549968E+02 0.70133643596E+02
 0.99581378180E+02 0.14218183187E+03 0.20125225961E+03 0.27845234585E+03 0.37138004107E+03
 0.47077275304E+03 0.55892648953E+03 0.40182177010E+03 0.40705961413E+03 0.38004455687E+03
 0.32952910573E+03 0.26871087371E+03 0.20894557607E+03 0.15700620702E+03 0.11545981746E+03
 0.84140465308E+02 0.61529729922E+02 0.45702952658E+02 0.34854430683E+02 0.27508524422E+02
 0.22560426993E+02 0.19156042812E+02 0.17003141310E+02 0.15537491213E+02 0.14620142091E+02
 0.14132727236E+02 0.14001299760E+02 0.14208195561E+02 0.14795053130E+02 0.15857988247E+02
 0.17533014170E+02 0.19968384926E+02 0.24100831606E+02 0.30055923297E+02 0.39005039758E+02
 0.52327306073E+02 0.71820025685E+02 0.99581378180E+02 0.13760517642E+03 0.18688501802E+03
 0.24594861204E+03 0.30911003531E+03 0.36562624869E+03 0.25432393748E+03 0.25919078826E+03
 0.24539970514E+03 0.21698450759E+03 0.18098478608E+03 0.14420383773E+03 0.11122423773E+03
 0.84140465308E+02 0.63231258956E+02 0.47786398476E+02 0.36728295716E+02 0.28974424957E+02
 0.23603986888E+02 0.19715288305E+02 0.17347140601E+02 0.15643360084E+02 0.14487951312E+02
 0.13762042675E+02 0.13368071040E+02 0.13244655389E+02 0.13374156787E+02 0.13785186097E+02
 0.14550875965E+02 0.15781797339E+02 0.17610947833E+02 0.20168480755E+02 0.24592428356E+02
 0.30688381006E+02 0.39578290254E+02 0.52327306073E+02 0.70133643596E+02 0.94061890218E+02
 0.12451054030E+03 0.16039382405E+03 0.19826647497E+03 0.23205787134E+03 0.16040268171E+03
 0.16407375389E+03 0.15728372320E+03 0.14180832987E+03 0.12119595956E+03 0.99246602336E+02
 0.78834826608E+02 0.61529729922E+02 0.47786398476E+02 0.37371879269E+02 0.29735783307E+02
 0.24257862600E+02 0.20060535402E+02 0.17591286305E+02 0.15744811121E+02 0.14429905588E+02
 0.13541842690E+02 0.12982588636E+02 0.12674742524E+02 0.12569653221E+02 0.12651533305E+02
 0.12939168144E+02 0.13485813601E+02 0.14376655622E+02 0.15722016279E+02 0.17643869144E+02
 0.20597212392E+02 0.24757151768E+02 0.30688381006E+02 0.39005039758E+02 0.50361549968E+02
 0.65279688371E+02 0.83836799747E+02 0.10524866009E+03 0.12746714209E+03 0.14716122631E+03
 0.10300419286E+03 0.10553300787E+03 0.10221928804E+03 0.93832704448E+02 0.82129449645E+02
 0.69167033238E+02 0.56666152040E+02 0.45702952658E+02 0.36728295716E+02 0.29735783307E+02
 0.24477795184E+02 0.20614190994E+02 0.17721254690E+02 0.15806042570E+02 0.14394727296E+02
 0.13397993830E+02 0.12726451390E+02 0.12302458140E+02 0.12067135295E+02 0.11983840134E+02
 0.12039738104E+02 0.12246657484E+02 0.12641658635E+02 0.13286948075E+02 0.14267876869E+02
 0.15686935742E+02 0.17651486365E+02 0.20597212392E+02 0.24592428356E+02 0.30055923297E+02
 0.37331523820E+02 0.46650087715E+02 0.57965247328E+02 0.70731627327E+02 0.83747896101E+02
 0.95194575530E+02 0.68472974838E+02 0.70139131553E+02 0.68501044904E+02 0.63893441263E+02
 0.57189447835E+02 0.49495656800E+02 0.41815643764E+02 0.34854430683E+02 0.28974424957E+02
 0.24257862600E+02 0.20614190994E+02 0.17759662050E+02 0.15830028385E+02 0.14369865936E+02
 0.13304634818E+02 0.12555315464E+02 0.12049674022E+02 0.11728829730E+02 0.11550060452E+02
 0.11487390284E+02 0.11531432969E+02 0.11689469443E+02 0.11986128255E+02 0.12464423684E+02
 0.13186220212E+02 0.14230452046E+02 0.15686935742E+02 0.17643869144E+02 0.20168480755E+02
 0.24100831606E+02 0.28829087820E+02 0.34726663272E+02 0.41705560515E+02 0.49403901395E+02
 0.57116586666E+02 0.63840176774E+02 0.47740837620E+02 0.48812924992E+02 0.47970743097E+02
 0.45362618416E+02 0.41433941543E+02 0.36781896098E+02 0.31990270395E+02 0.27508524422E+02
 0.23603986888E+02 0.20060535402E+02 0.17721254690E+02 0.15830028385E+02 0.14360186053E+02
 0.13257195719E+02 0.12455205737E+02 0.11889642777E+02 0.11505079415E+02 0.11258832555E+02
 0.11121526950E+02 0.11076112343E+02 0.11116650913E+02 0.11247770000E+02 0.11485159104E+02
 0.11856944344E+02 0.12405194198E+02 0.13186220212E+02 0.14267876869E+02 0.15722016279E+02
 0.17610947833E+02 0.19968384926E+02 0.23303244144E+02 0.27120759084E+02 0.31521233012E+02
 0.36263343436E+02 0.40928410365E+02 0.44954964519E+02 0.35226406860E+02 0.35904170842E+02
 0.35435180625E+02 0.33887560709E+02 0.31496125605E+02 0.28592935605E+02 0.25519621344E+02
 0.22560426993E+02 0.19715288305E+02 0.17591286305E+02 0.15806042570E+02 0.14369865936E+02
 0.13257195719E+02 0.12422127241E+02 0.11812033369E+02 0.11377455273E+02 0.11077820234E+02
 0.10883541475E+02 0.10775607194E+02 0.10743931928E+02 0.10785624100E+02 0.10904012696E+02
 0.11108841865E+02 0.11417538962E+02 0.11856944344E+02 0.12464423684E+02 0.13286948075E+02
 0.14376655622E+02 0.15781797339E+02 0.17533014170E+02 0.19626607773E+02 0.22008497134E+02
 0.25131171012E+02 0.28141796150E+02 0.31046298478E+02 0.33518465658E+02 0.27608442475E+02
 0.28025492374E+02 0.27725187206E+02 0.26742569168E+02 0.25207749916E+02 0.22992049762E+02
 0.21081696056E+02 0.19156042812E+02 0.17347140601E+02 0.15744811121E+02 0.14394727296E+02
 0.13304634818E+02 0.12455205737E+02 0.11812033369E+02 0.11336156717E+02 0.10991675953E+02
 0.10750079321E+02 0.10591663456E+02 0.10504874552E+02 0.10484576499E+02 0.10530217500E+02
 0.10644656650E+02 0.10834060667E+02 0.11108841865E+02 0.11485159104E+02 0.11986128255E+02
 0.12641658635E+02 0.13485813601E+02 0.14550875965E+02 0.15857988247E+02 0.17405372813E+02
 0.19156549233E+02 0.21032188323E+02 0.22909590995E+02 0.24632661541E+02 0.26542248908E+02
 0.22864908256E+02 0.23086069496E+02 0.22851414807E+02 0.22183022339E+02 0.21151943258E+02
 0.19864438414E+02 0.18442394863E+02 0.17003141310E+02 0.15643360084E+02 0.14429905588E+02
 0.13397993830E+02 0.12555315464E+02 0.11889642777E+02 0.11377455273E+02 0.10991675953E+02
 0.10707398983E+02 0.10505223863E+02 0.10372373977E+02 0.10302150480E+02 0.10292466280E+02
 0.10344227306E+02 0.10460190305E+02 0.10644656650E+02 0.10904012696E+02 0.11247770000E+02
 0.11689469443E+02 0.12246657484E+02 0.12939168144E+02 0.13785186097E+02 0.14795053130E+02
 0.15963511245E+02 0.17261957166E+02 0.18633060419E+02 0.19990366435E+02 0.21224866748E+02
 0.22218839680E+02 0.20180665826E+02 0.20287866296E+02 0.20061716372E+02 0.19521121991E+02
 0.18718307272E+02 0.17729408434E+02 0.16641216637E+02 0.15537491213E+02 0.14487951312E+02
 0.13541842690E+02 0.12726451390E+02 0.12049674022E+02 0.11505079415E+02 0.11077820234E+02
 0.10750079321E+02 0.10505223863E+02 0.10330322250E+02 0.10217077825E+02 0.10161526437E+02
 0.10163015431E+02 0.10223016511E+02 0.10344227306E+02 0.10530217500E+02 0.10785624100E+02
 0.11116650913E+02 0.11531432969E+02 0.12039738104E+02 0.12651533305E+02 0.13374156787E+02
 0.14208195561E+02 0.15142635539E+02 0.16150352564E+02 0.17185407531E+02 0.18183686501E+02
 0.19067976516E+02 0.19757521329E+02 0.18688539356E+02 0.18685712402E+02 0.18424691499E+02
 0.17927240132E+02 0.17237262054E+02 0.16413615593E+02 0.15520863312E+02 0.14620142091E+02
 0.13762042675E+02 0.12982588636E+02 0.12302458140E+02 0.11728829730E+02 0.11258832555E+02
 0.10883541475E+02 0.10591663456E+02 0.10372373977E+02 0.10217077825E+02 0.10120135402E+02
 0.10078790705E+02 0.10092643682E+02 0.10163015431E+02 0.10292466280E+02 0.10484576499E+02
 0.10743931928E+02 0.11076112343E+02 0.11487390284E+02 0.11983840134E+02 0.12569653221E+02
 0.13244655389E+02 0.14001299760E+02 0.14821703766E+02 0.15675542121E+02 0.16519705725E+02
 0.17300493522E+02 0.17958655843E+02 0.18436886473E+02 0.18213112534E+02 0.18095721866E+02
 0.17754366606E+02 0.17219691442E+02 0.16537192938E+02 0.15760255364E+02 0.14942757149E+02
 0.14132727236E+02 0.13368071040E+02 0.12674742524E+02 0.12067135295E+02 0.11550060452E+02
 0.11121526950E+02 0.10775607194E+02 0.10504874552E+02 0.10302150480E+02 0.10161526437E+02
 0.10078790705E+02 0.10051480059E+02 0.10078790705E+02 0.10161526437E+02 0.10302150480E+02
 0.10504874552E+02 0.10775607194E+02 0.11121526950E+02 0.11550060452E+02 0.12067135295E+02
 0.12674742524E+02 0.13368071040E+02 0.14132727236E+02 0.14942757149E+02 0.15760255364E+02
 0.16537192938E+02 0.17219691442E+02 0.17754366606E+02 0.18095721866E+02 0.18688539356E+02
 0.18436886473E+02 0.17958655843E+02 0.17300493522E+02 0.16519705725E+02 0.15675542121E+02
 0.14821703766E+02 0.14001299760E+02 0.13244655389E+02 0.12569653221E+02 0.11983840134E+02
 0.11487390284E+02 0.11076112343E+02 0.10743931928E+02 0.10484576499E+02 0.10292466280E+02
 0.10163015431E+02 0.10092643682E+02 0.10078790705E+02 0.10120135402E+02 0.10217077825E+02
 0.10372373977E+02 0.10591663456E+02 0.10883541475E+02 0.11258832555E+02 0.11728829730E+02
 0.12302458140E+02 0.12982588636E+02 0.13762042675E+02 0.14620142091E+02 0.15520863312E+02
 0.16413615593E+02 0.17237262054E+02 0.17927240132E+02 0.18424691499E+02 0.18685712402E+02
 0.20180665826E+02 0.19757521329E+02 0.19067976516E+02 0.18183686501E+02 0.17185407531E+02
 0.16150352564E+02 0.15142635539E+02 0.14208195561E+02 0.13374156787E+02 0.12651533305E+02
 0.12039738104E+02 0.11531432969E+02 0.11116650913E+02 0.10785624100E+02 0.10530217500E+02
 0.10344227306E+02 0.10223016511E+02 0.10163015431E+02 0.10161526437E+02 0.10217077825E+02
 0.10330322250E+02 0.10505223863E+02 0.10750079321E+02 0.11077820234E+02 0.11505079415E+02
 0.12049674022E+02 0.12726451390E+02 0.13541842690E+02 0.14487951312E+02 0.15537491213E+02
 0.16641216637E+02 0.17729408434E+02 0.18718307272E+02 0.19521121991E+02 0.20061716372E+02
 0.20287866296E+02 0.22864908256E+02 0.22218839680E+02 0.21224866748E+02 0.19990366435E+02
 0.18633060419E+02 0.17261957166E+02 0.15963511245E+02 0.14795053130E+02 0.13785186097E+02
 0.12939168144E+02 0.12246657484E+02 0.11689469443E+02 0.11247770000E+02 0.10904012696E+02
 0.10644656650E+02 0.10460190305E+02 0.10344227306E+02 0.10292466280E+02 0.10302150480E+02
 0.10372373977E+02 0.10505223863E+02 0.10707398983E+02 0.10991675953E+02 0.11377455273E+02
 0.11889642777E+02 0.12555315464E+02 0.13397993830E+02 0.14429905588E+02 0.15643360084E+02
 0.17003141310E+02 0.18442394863E+02 0.19864438414E+02 0.21151943258E+02 0.22183022339E+02
 0.22851414807E+02 0.23086069496E+02 0.27608442475E+02 0.26542248908E+02 0.24632661541E+02
 0.22909590995E+02 0.21032188323E+02 0.19156549233E+02 0.17405372813E+02 0.15857988247E+02
 0.14550875965E+02 0.13485813601E+02 0.12641658635E+02 0.11986128255E+02 0.11485159104E+02
 0.11108841865E+02 0.10834060667E+02 0.10644656650E+02 0.10530217500E+02 0.10484576499E+02
 0.10504874552E+02 0.10591663456E+02 0.10750079321E+02 0.10991675953E+02 0.11336156717E+02
 0.11812033369E+02 0.12455205737E+02 0.13304634818E+02 0.14394727296E+02 0.15744811121E+02
 0.17347140601E+02 0.19156042812E+02 0.21081696056E+02 0.22992049762E+02 0.25207749916E+02
 0.26742569168E+02 0.27725187206E+02 0.28025492374E+02 0.35226406860E+02 0.33518465658E+02
 0.31046298478E+02 0.28141796150E+02 0.25131171012E+02 0.22008497134E+02 0.19626607773E+02
 0.17533014170E+02 0.15781797339E+02 0.14376655622E+02 0.13286948075E+02 0.12464423684E+02
 0.11856944344E+02 0.11417538962E+02 0.11108841865E+02 0.10904012696E+02 0.10785624100E+02
 0.10743931928E+02 0.10775607194E+02 0.10883541475E+02 0.11077820234E+02 0.11377455273E+02
 0.11812033369E+02 0.12422127241E+02 0.13257195719E+02 0.14369865936E+02 0.15806042570E+02
 0.17591286305E+02 0.19715288305E+02 0.22560426993E+02 0.25519621344E+02 0.28592935605E+02
 0.31496125605E+02 0.33887560709E+02 0.35435180625E+02 0.35904170842E+02 0.47740837620E+02
 0.44954964519E+02 0.40928410365E+02 0.36263343436E+02 0.31521233012E+02 0.27120759084E+02
 0.23303244144E+02 0.19968384926E+02 0.17610947833E+02 0.15722016279E+02 0.14267876869E+02
 0.13186220212E+02 0.12405194198E+02 0.11856944344E+02 0.11485159104E+02 0.11247770000E+02
 0.11116650913E+02 0.11076112343E+02 0.11121526950E+02 0.11258832555E+02 0.11505079415E+02
 0.11889642777E+02 0.12455205737E+02 0.13257195719E+02 0.14360186053E+02 0.15830028385E+02
 0.17721254690E+02 0.20060535402E+02 0.23603986888E+02 0.27508524422E+02 0.31990270395E+02
 0.36781896098E+02 0.41433941543E+02 0.45362618416E+02 0.47970743097E+02 0.48812924992E+02
 0.68472974838E+02 0.63840176774E+02 0.57116586666E+02 0.49403901395E+02 0.41705560515E+02
 0.34726663272E+02 0.28829087820E+02 0.24100831606E+02 0.20168480755E+02 0.17643869144E+02
 0.15686935742E+02 0.14230452046E+02 0.13186220212E+02 0.12464423684E+02 0.11986128255E+02
 0.11689469443E+02 0.11531432969E+02 0.11487390284E+02 0.11550060452E+02 0.11728829730E+02
 0.12049674022E+02 0.12555315464E+02 0.13304634818E+02 0.14369865936E+02 0.15830028385E+02
 0.17759662050E+02 0.20614190994E+02 0.24257862600E+02 0.28974424957E+02 0.34854430683E+02
 0.41815643764E+02 0.49495656800E+02 0.57189447835E+02 0.63893441263E+02 0.68501044904E+02
 0.70139131553E+02 0.10300419286E+03 0.95194575530E+02 0.83747896101E+02 0.70731627327E+02
 0.57965247328E+02 0.46650087715E+02 0.37331523820E+02 0.30055923297E+02 0.24592428356E+02
 0.20597212392E+02 0.17651486365E+02 0.15686935742E+02 0.14267876869E+02 0.13286948075E+02
 0.12641658635E+02 0.12246657484E+02 0.12039738104E+02 0.11983840134E+02 0.12067135295E+02
 0.12302458140E+02 0.12726451390E+02 0.13397993830E+02 0.14394727296E+02 0.15806042570E+02
 0.17721254690E+02 0.20614190994E+02 0.24477795184E+02 0.29735783307E+02 0.36728295716E+02
 0.45702952658E+02 0.56666152040E+02 0.69167033238E+02 0.82129449645E+02 0.93832704448E+02
 0.10221928804E+03 0.10553300787E+03 0.16040268171E+03 0.14716122631E+03 0.12746714209E+03
 0.10524866009E+03 0.83836799747E+02 0.65279688371E+02 0.50361549968E+02 0.39005039758E+02
 0.30688381006E+02 0.24757151768E+02 0.20597212392E+02 0.17643869144E+02 0.15722016279E+02
 0.14376655622E+02 0.13485813601E+02 0.12939168144E+02 0.12651533305E+02 0.12569653221E+02
 0.12674742524E+02 0.12982588636E+02 0.13541842690E+02 0.14429905588E+02 0.15744811121E+02
 0.17591286305E+02 0.20060535402E+02 0.24257862600E+02 0.29735783307E+02 0.37371879269E+02
 0.47786398476E+02 0.61529729922E+02 0.78834826608E+02 0.99246602336E+02 0.12119595956E+03
 0.14180832987E+03 0.15728372320E+03 0.16407375389E+03 0.25432393748E+03 0.23205787134E+03
 0.19826647497E+03 0.16039382405E+03 0.12451054030E+03 0.94061890218E+02 0.70133643596E+02
 0.52327306073E+02 0.39578290254E+02 0.30688381006E+02 0.24592428356E+02 0.20168480755E+02
 0.17610947833E+02 0.15781797339E+02 0.14550875965E+02 0.13785186097E+02 0.13374156787E+02
 0.13244655389E+02 0.13368071040E+02 0.13762042675E+02 0.14487951312E+02 0.15643360084E+02
 0.17347140601E+02 0.19715288305E+02 0.23603986888E+02 0.28974424957E+02 0.36728295716E+02
 0.47786398476E+02 0.63231258956E+02 0.84140465308E+02 0.11122423773E+03 0.14420383773E+03
 0.18098478608E+03 0.21698450759E+03 0.24539970514E+03 0.25919078826E+03 0.40182177010E+03
 0.36562624869E+03 0.30911003531E+03 0.24594861204E+03 0.18688501802E+03 0.13760517642E+03
 0.99581378180E+02 0.71820025685E+02 0.52327306073E+02 0.39005039758E+02 0.30055923297E+02
 0.24100831606E+02 0.19968384926E+02 0.17533014170E+02 0.15857988247E+02 0.14795053130E+02
 0.14208195561E+02 0.14001299760E+02 0.14132727236E+02 0.14620142091E+02 0.15537491213E+02
 0.17003141310E+02 0.19156042812E+02 0.22560426993E+02 0.27508524422E+02 0.34854430683E+02
 0.45702952658E+02 0.61529729922E+02 0.84140465308E+02 0.11545981746E+03 0.15700620702E+03
 0.20894557607E+03 0.26871087371E+03 0.32952910573E+03 0.38004455687E+03 0.40705961413E+03
 0.61294894098E+03 0.55892648953E+03 0.47077275304E+03 0.37138004107E+03 0.27845234585E+03
 0.20125225961E+03 0.14218183187E+03 0.99581378180E+02 0.70133643596E+02 0.50361549968E+02
 0.37331523820E+02 0.28829087820E+02 0.23303244144E+02 0.19626607773E+02 0.17405372813E+02
 0.15963511245E+02 0.15142635539E+02 0.14821703766E+02 0.14942757149E+02 0.15520863312E+02
 0.16641216637E+02 0.18442394863E+02 0.21081696056E+02 0.25519621344E+02 0.31990270395E+02
 0.41815643764E+02 0.56666152040E+02 0.78834826608E+02 0.11122423773E+03 0.15700620702E+03
 0.21878814162E+03 0.29714586355E+03 0.38870966136E+03 0.48417312004E+03 0.56699310109E+03
 0.61557560116E+03 0.85553041516E+03 0.79015802577E+03 0.67415373725E+03 0.53707450834E+03
 0.40363956682E+03 0.28960635647E+03 0.20125225961E+03 0.13760517642E+03 0.94061890218E+02
 0.65279688371E+02 0.46650087715E+02 0.34726663272E+02 0.27120759084E+02 0.22008497134E+02
 0.19156549233E+02 0.17261957166E+02 0.16150352564E+02 0.15675542121E+02 0.15760255364E+02
 0.16413615593E+02 0.17729408434E+02 0.19864438414E+02 0.22992049762E+02 0.28592935605E+02
 0.36781896098E+02 0.49495656800E+02 0.69167033238E+02 0.99246602336E+02 0.14420383773E+03
 0.20894557607E+03 0.29714586355E+03 0.40841391672E+03 0.53565046903E+03 0.66505303607E+03
 0.77786120344E+03 0.84963314146E+03 0.98471954124E+03 0.94515851813E+03 0.85328775625E+03
 0.71708149350E+03 0.55695719286E+03 0.40363956682E+03 0.27845234585E+03 0.18688501802E+03
 0.12451054030E+03 0.83836799747E+02 0.57965247328E+02 0.41705560515E+02 0.31521233012E+02
 0.25131171012E+02 0.21032188323E+02 0.18633060419E+02 0.17185407531E+02 0.16519705725E+02
 0.16537192938E+02 0.17237262054E+02 0.18718307272E+02 0.21151943258E+02 0.25207749916E+02
 0.31496125605E+02 0.41433941543E+02 0.57189447835E+02 0.82129449645E+02 0.12119595956E+03
 0.18098478608E+03 0.26871087371E+03 0.38870966136E+03 0.53565046903E+03 0.68836594100E+03
 0.81697785988E+03 0.90798431498E+03 0.96737892393E+03 0.75761490926E+03 0.79876105032E+03
 0.86121342925E+03 0.84657566019E+03 0.71708149350E+03 0.53707450834E+03 0.37138004107E+03
 0.24594861204E+03 0.16039382405E+03 0.10524866009E+03 0.70731627327E+02 0.49403901395E+02
 0.36263343436E+02 0.28141796150E+02 0.22909590995E+02 0.19990366435E+02 0.18183686501E+02
 0.17300493522E+02 0.17219691442E+02 0.17927240132E+02 0.19521121991E+02 0.22183022339E+02
 0.26742569168E+02 0.33887560709E+02 0.45362618416E+02 0.63893441263E+02 0.93832704448E+02
 0.14180832987E+03 0.21698450759E+03 0.32952910573E+03 0.48417312004E+03 0.66505303607E+03
 0.81697785988E+03 0.86077458053E+03 0.79360653398E+03 0.74351908095E+03 0.59519725988E+03
 0.43222780386E+03 0.61053393716E+03 0.86121342925E+03 0.85328775625E+03 0.67415373725E+03
 0.47077275304E+03 0.30911003531E+03 0.19826647497E+03 0.12746714209E+03 0.83747896101E+02
 0.57116586666E+02 0.40928410365E+02 0.31046298478E+02 0.24632661541E+02 0.21224866748E+02
 0.19067976516E+02 0.17958655843E+02 0.17754366606E+02 0.18424691499E+02 0.20061716372E+02
 0.22851414807E+02 0.27725187206E+02 0.35435180625E+02 0.47970743097E+02 0.68501044904E+02
 0.10221928804E+03 0.15728372320E+03 0.24539970514E+03 0.38004455687E+03 0.56699310109E+03
 0.77786120344E+03 0.90798431498E+03 0.79360653398E+03 0.48026289920E+03 0.46384810087E+03
 0.34012899514E+04 0.13777296845E+04 0.43222780386E+03 0.79876105032E+03 0.94515851813E+03
 0.79015802577E+03 0.55892648953E+03 0.36562624869E+03 0.23205787134E+03 0.14716122631E+03
 0.95194575530E+02 0.63840176774E+02 0.44954964519E+02 0.33518465658E+02 0.26542248908E+02
 0.22218839680E+02 0.19757521329E+02 0.18436886473E+02 0.18095721866E+02 0.18685712402E+02
 0.20287866296E+02 0.23086069496E+02 0.28025492374E+02 0.35904170842E+02 0.48812924992E+02
 0.70139131553E+02 0.10553300787E+03 0.16407375389E+03 0.25919078826E+03 0.40705961413E+03
 0.61557560116E+03 0.84963314146E+03 0.96737892393E+03 0.74351908095E+03 0.46384810087E+03
 0.18917513800E+04 0.45555161786E+04 0.23724662715E+04 0.51184012186E+03 0.77540550994E+03
 0.97673510277E+03 0.84024243209E+03 0.60104021873E+03 0.39445005957E+03 0.25015271651E+03
 0.15812878244E+03 0.10178450682E+03 0.67826290970E+02 0.47405161619E+02 0.35060973842E+02
 0.27537602056E+02 0.22850731059E+02 0.20192134044E+02 0.18714578150E+02 0.18243836476E+02
 0.18714578150E+02 0.20192134044E+02 0.22850731059E+02 0.27537602056E+02 0.35060973842E+02
 0.47405161619E+02 0.67826290970E+02 0.10178450682E+03 0.15812878244E+03 0.25015271651E+03
 0.39445005957E+03 0.60104021873E+03 0.84024243209E+03 0.97673510277E+03 0.77540550994E+03
 0.51184012186E+03 0.23724662715E+04 0.23724662715E+04 0.13125095887E+04 0.43515944122E+03
 0.76461111615E+03 0.96066526666E+03 0.83488659864E+03 0.60374187775E+03 0.39961243349E+03
 0.25493328049E+03 0.16173636276E+03 0.10427301877E+03 0.69468528487E+02 0.48463546335E+02
 0.35731428086E+02 0.27950496618E+02 0.23070368780E+02 0.20298511275E+02 0.18711656727E+02
 0.18127139353E+02 0.18464576817E+02 0.19771895462E+02 0.22209174687E+02 0.26481535502E+02
 0.33371853025E+02 0.44654697301E+02 0.63260262065E+02 0.94103398735E+02 0.14513472422E+03
 0.22835137678E+03 0.35907626600E+03 0.54825874121E+03 0.77594433852E+03 0.93576025305E+03
 0.81450704254E+03 0.43875847402E+03 0.96678379025E+03 0.51184012186E+03 0.43515944122E+03
 0.51753227659E+03 0.81052534696E+03 0.90092314101E+03 0.76483562097E+03 0.55647786039E+03
 0.37329322823E+03 0.24146199099E+03 0.15508573918E+03 0.10101888954E+03 0.67855929255E+02
 0.47632500662E+02 0.35267410990E+02 0.27652844723E+02 0.22837400141E+02 0.20073761449E+02
 0.18452144038E+02 0.17787804410E+02 0.17989368310E+02 0.19086995361E+02 0.21222173742E+02
 0.24597211694E+02 0.30925906492E+02 0.40677668660E+02 0.56632427215E+02 0.82842217827E+02
 0.12580081678E+03 0.19525216860E+03 0.30382895982E+03 0.46213651795E+03 0.66208407275E+03
 0.84235225786E+03 0.86564561331E+03 0.64206727169E+03 0.43875847402E+03 0.77540550994E+03
 0.76461111615E+03 0.81052534696E+03 0.86227077134E+03 0.80777352978E+03 0.65405914945E+03
 0.47562761441E+03 0.32396182313E+03 0.21365912185E+03 0.13990905659E+03 0.92774729936E+02
 0.63316851910E+02 0.45058102896E+02 0.33736704612E+02 0.26679378103E+02 0.22173770953E+02
 0.19536696631E+02 0.17957696499E+02 0.17256306302E+02 0.17335309123E+02 0.18208612169E+02
 0.19996373813E+02 0.22886542373E+02 0.28051587327E+02 0.36068187725E+02 0.49025171238E+02
 0.70028171547E+02 0.10397163878E+03 0.15811926910E+03 0.24201310542E+03 0.36493272503E+03
 0.52758188090E+03 0.70587367801E+03 0.83914028717E+03 0.86564561331E+03 0.81450704254E+03
 0.97673510277E+03 0.96066526666E+03 0.90092314101E+03 0.80777352978E+03 0.67818771269E+03
 0.52676785693E+03 0.38220532117E+03 0.26445514438E+03 0.17838520351E+03 0.11967347287E+03
 0.81262849618E+02 0.56709358088E+02 0.41178534985E+02 0.31371348232E+02 0.25158842052E+02
 0.21150074269E+02 0.18739229713E+02 0.17271976357E+02 0.16577891671E+02 0.16559365741E+02
 0.17216981580E+02 0.18648698849E+02 0.21022915587E+02 0.25070831545E+02 0.31380388625E+02
 0.41427485907E+02 0.57450010170E+02 0.82913850105E+02 0.12289402974E+03 0.18412690837E+03
 0.27393423978E+03 0.39671873458E+03 0.54743297018E+03 0.70587367801E+03 0.84235225786E+03
 0.93576025305E+03 0.84024243209E+03 0.83488659864E+03 0.76483562097E+03 0.65405914945E+03
 0.52676785693E+03 0.40170690823E+03 0.29245495984E+03 0.20587605187E+03 0.14229356008E+03
 0.98101081300E+02 0.68501470746E+02 0.49121777402E+02 0.36583438322E+02 0.28498777178E+02
 0.22970606939E+02 0.19871878119E+02 0.17757028735E+02 0.16453509295E+02 0.15805655907E+02
 0.15720451693E+02 0.16188835437E+02 0.17287423202E+02 0.19161338310E+02 0.21984118555E+02
 0.27028160763E+02 0.34534987532E+02 0.46293027634E+02 0.64645045428E+02 0.92966149860E+02
 0.13576134506E+03 0.19824488310E+03 0.28490948945E+03 0.39671873458E+03 0.52758188090E+03
 0.66208407275E+03 0.77594433852E+03 0.60104021873E+03 0.60374187775E+03 0.55647786039E+03
 0.47562761441E+03 0.38220532117E+03 0.29245495984E+03 0.21556836839E+03 0.15489169806E+03
 0.10988802361E+03 0.78017991744E+02 0.56183421736E+02 0.41543038569E+02 0.31847903355E+02
 0.25457353043E+02 0.21074702201E+02 0.18460269893E+02 0.16676345447E+02 0.15566490340E+02
 0.14993191390E+02 0.14871977654E+02 0.15187904327E+02 0.15998423789E+02 0.17423624936E+02
 0.19620927134E+02 0.23250755830E+02 0.28707161581E+02 0.37096912207E+02 0.49944008106E+02
 0.69418943805E+02 0.98393581095E+02 0.14026068792E+03 0.19824488310E+03 0.27393423978E+03
 0.36493272503E+03 0.46213651795E+03 0.54825874121E+03 0.39445005957E+03 0.39961243349E+03
 0.37329322823E+03 0.32396182313E+03 0.26445514438E+03 0.20587605187E+03 0.15489169806E+03
 0.11405800973E+03 0.83242400561E+02 0.60973016276E+02 0.45371823897E+02 0.34669246570E+02
 0.27416607012E+02 0.22527707199E+02 0.19163933031E+02 0.17031801534E+02 0.15580415534E+02
 0.14671708075E+02 0.14188277131E+02 0.14056831554E+02 0.14259866425E+02 0.14838650224E+02
 0.15888500879E+02 0.17544467663E+02 0.19954132024E+02 0.24032303874E+02 0.29912134649E+02
 0.38742369231E+02 0.51877164092E+02 0.71078090979E+02 0.98393581095E+02 0.13576134506E+03
 0.18412690837E+03 0.24201310542E+03 0.30382895982E+03 0.35907626600E+03 0.25015271651E+03
 0.25493328049E+03 0.24146199099E+03 0.21365912185E+03 0.17838520351E+03 0.14229356008E+03
 0.10988802361E+03 0.83242400561E+02 0.62649361897E+02 0.47424063460E+02 0.36514571796E+02
 0.28859635746E+02 0.23554396415E+02 0.19714853714E+02 0.17369435274E+02 0.15682501983E+02
 0.14538516994E+02 0.13819463396E+02 0.13428623608E+02 0.13305190860E+02 0.13431701337E+02
 0.13836512803E+02 0.14592128010E+02 0.15808257718E+02 0.17617081743E+02 0.20148381942E+02
 0.24513288373E+02 0.30532803221E+02 0.39305753836E+02 0.51877164092E+02 0.69418943805E+02
 0.92966149860E+02 0.12289402974E+03 0.15811926910E+03 0.19525216860E+03 0.22835137678E+03
 0.15812878244E+03 0.16173636276E+03 0.15508573918E+03 0.13990905659E+03 0.11967347287E+03