       N       E                     dE             d eps       ncg     rms          rms(c)
DAV:   1     0.808714403584E+02    0.80871E+02   -0.80584E+03  4360   0.164E+03
DAV:   2    -0.140779746254E+02   -0.94949E+02   -0.88461E+02  4262   0.269E+02
DAV:   3    -0.161941224241E+02   -0.21161E+01   -0.20554E+01  4808   0.581E+01
DAV:   4    -0.162254152268E+02   -0.31293E-01   -0.31298E-01  6138   0.550E+00
DAV:   5    -0.162256657489E+02   -0.25052E-03   -0.25163E-03  5020   0.473E-01    0.144E+01
DAV:   6    -0.142622016999E+02    0.19635E+01   -0.16515E+01  4460   0.835E+01    0.796E+00
DAV:   7    -0.139285558627E+02    0.33365E+00   -0.23000E+00  4622   0.298E+01    0.482E+00
DAV:   8    -0.140781378369E+02   -0.14958E+00   -0.15141E-01  5742   0.635E+00    0.217E+00
DAV:   9    -0.140352376543E+02    0.42900E-01   -0.34571E-02  6164   0.279E+00    0.237E+00
DAV:  10    -0.140250573989E+02    0.10180E-01   -0.95593E-04  6030   0.446E-01    0.266E+00
DAV:  11    -0.140697123845E+02   -0.44655E-01   -0.32391E-02  5248   0.302E+00    0.424E-01
DAV:  12    -0.140701679867E+02   -0.45560E-03   -0.10046E-03  6000   0.384E-01    0.156E-01
DAV:  13    -0.140699622202E+02    0.20577E-03   -0.17117E-04  5626   0.214E-01    0.892E-03
DAV:  14    -0.140699510665E+02    0.11154E-04   -0.65525E-06  4702   0.286E-02    0.923E-03
DAV:  15    -0.140699594937E+02   -0.84272E-05   -0.33321E-07  4892   0.753E-03    0.482E-03
DAV:  16    -0.140699685348E+02   -0.90411E-05   -0.20354E-07  3126   0.676E-03    0.499E-04
DAV:  17    -0.140699677254E+02    0.80939E-06   -0.12258E-08  2272   0.151E-03    0.422E-04
DAV:  18    -0.140699687529E+02   -0.10275E-05   -0.31966E-09  2230   0.846E-04    0.652E-05
DAV:  19    -0.140699687454E+02    0.75247E-08   -0.94159E-10  2194   0.306E-04
   1 F= -.14069969E+02 E0= -.14069969E+02  d E =0.000000E+00  mag=     3.1561
