       N       E                     dE             d eps       ncg     rms          rms(c)
DAV:   1     0.197236225218E+03    0.19724E+03   -0.11896E+04  3792   0.135E+03
DAV:   2    -0.670469650787E+01   -0.20394E+03   -0.19328E+03  3416   0.352E+02
DAV:   3    -0.152275439345E+02   -0.85228E+01   -0.84929E+01  3632   0.801E+01
DAV:   4    -0.152928057981E+02   -0.65262E-01   -0.65259E-01  3640   0.673E+00
DAV:   5    -0.152937759095E+02   -0.97011E-03   -0.97011E-03  3696   0.760E-01
DAV:   6    -0.152937977545E+02   -0.21845E-04   -0.21847E-04  3656   0.104E-01
DAV:   7    -0.152937983439E+02   -0.58939E-06   -0.58865E-06  2968   0.165E-02
   1 F= -.15293798E+02 E0= -.15273236E+02  d E =-.411254E-01  mag=     4.4316
