=========================================
SLURM_JOB_ID = 63457063
SLURM_JOB_NODELIST = lnode43
SLURM_GPUS = 
SLURM_CPUS_ON_NODE = 8
SLURM_JOB_PARTITION = lenovo
SLURM_TASK_PID = 4141472
CUDA_VISIBLE_DEVICES = 
==========================================
 running on    8 total cores
 distrk:  each k-point on    8 cores,    1 groups
 distr:  one band on    4 cores,    2 groups
 using from now: INCAR     
 vasp.5.4.4.18Apr17-6-g9f103f2a35 (build Apr 28 2018 00:24:27) complex          
  
 POSCAR found type information on POSCAR  Eu O 
 POSCAR found :  2 types and       2 ions
 scaLAPACK will be used

 ----------------------------------------------------------------------------- 
|                                                                             |
|  ADVICE TO THIS USER RUNNING 'VASP/VAMP'   (HEAR YOUR MASTER'S VOICE ...):  |
|                                                                             |
|      You have a (more or less) 'small supercell' and for smaller cells      |
|      it is recommended  to use the reciprocal-space projection scheme!      |
|      The real space optimization is not  efficient for small cells and it   |
|      is also less accurate ...                                              |
|      Therefore set LREAL=.FALSE. in the  INCAR file                         |
|                                                                             |
 ----------------------------------------------------------------------------- 

 LDA part: xc-table for Pade appr. of Perdew
 generate k-points for:   20   20   20
 POSCAR, INCAR and KPOINTS ok, starting setup
 FFT: planning ...
 WAVECAR not read
 entering main loop
       N       E                     dE             d eps       ncg     rms          rms(c)
DAV:   1     0.143125697673E+03    0.14313E+03   -0.99809E+03 77232   0.255E+03
DAV:   2    -0.519762063650E+01   -0.14832E+03   -0.13048E+03 68656   0.296E+02
DAV:   3    -0.197206785710E+02   -0.14523E+02   -0.13937E+02 71680   0.976E+01
DAV:   4    -0.204726447788E+02   -0.75197E+00   -0.73161E+00100080   0.200E+01
DAV:   5    -0.204976862793E+02   -0.25042E-01   -0.24950E-01 85688   0.283E+00    0.186E+01
DAV:   6    -0.259444571885E+02   -0.54468E+01   -0.10257E+02 94844   0.110E+02    0.283E+01
DAV:   7    -0.208134177992E+02    0.51310E+01   -0.31817E+01 79584   0.870E+01    0.105E+01
DAV:   8    -0.209124934140E+02   -0.99076E-01   -0.13416E+00 87992   0.100E+01    0.519E+00
DAV:   9    -0.209234673985E+02   -0.10974E-01   -0.15262E+00 99492   0.105E+01    0.284E+00
DAV:  10    -0.208626157850E+02    0.60852E-01   -0.22456E-01 89300   0.422E+00    0.108E+00
DAV:  11    -0.208555779351E+02    0.70378E-02   -0.17360E-02 91044   0.130E+00    0.870E-01
DAV:  12    -0.208571158906E+02   -0.15380E-02   -0.23189E-02 96444   0.141E+00    0.365E-01
DAV:  13    -0.208573399442E+02   -0.22405E-03   -0.19544E-03 92756   0.293E-01    0.249E-01
DAV:  14    -0.208573711781E+02   -0.31234E-04   -0.26019E-03 92872   0.463E-01    0.107E-01
DAV:  15    -0.208572728045E+02    0.98374E-04   -0.23043E-04 92948   0.113E-01    0.517E-02
DAV:  16    -0.208572952829E+02   -0.22478E-04   -0.32185E-05 92656   0.484E-02    0.238E-02
DAV:  17    -0.208572953250E+02   -0.42081E-07   -0.36170E-06103096   0.141E-02    0.111E-02
DAV:  18    -0.208572959472E+02   -0.62225E-06   -0.18541E-06 91792   0.112E-02    0.863E-03
DAV:  19    -0.208572953740E+02    0.57323E-06   -0.54569E-07 87852   0.671E-03    0.210E-03
DAV:  20    -0.208572956356E+02   -0.26157E-06   -0.77271E-08 50088   0.241E-03    0.612E-04
DAV:  21    -0.208572955838E+02    0.51719E-07   -0.35322E-08 35668   0.137E-03
   1 F= -.20857296E+02 E0= -.20857296E+02  d E =0.000000E+00  mag=     6.9820
