unknown system                          
   1.00000000000000     
     1.649466    1.258417    1.258417
     1.649466   -1.258417   -1.258417
     0.000000    2.758996   -2.758996
   Fe
     2
Direct
  0.500000  0.500000  0.500000
  0.000000  0.000000  0.000000
 
   36   36   60
 0.23162296594E+07 0.20119845263E+05 0.51678525065E+04 0.86540031585E+03 0.20532950020E+03
 0.10486367991E+03 0.64525223995E+02 0.37215798353E+02 0.20049214216E+02 0.10329040888E+02
 0.51784229543E+01 0.25543696450E+01 0.12480418211E+01 0.60688985000E+00 0.29477678463E+00
 0.14428709286E+00 0.72725030078E-01 0.41344942150E-01 0.32391996486E-01 0.41344942150E-01
 0.72725030078E-01 0.14428709286E+00 0.29477678463E+00 0.60688985000E+00 0.12480418211E+01
 0.25543696450E+01 0.51784229543E+01 0.10329040888E+02 0.20049214216E+02 0.37215798353E+02
 0.64525223995E+02 0.10486367991E+03 0.20532950020E+03 0.86540031585E+03 0.51678525065E+04
 0.20119845263E+05 0.20119845263E+05 0.13264450270E+05 0.38854353489E+04 0.73947089167E+03
 0.19579765623E+03 0.10362934731E+03 0.64278741818E+02 0.37312315636E+02 0.20222255264E+02
 0.10472364757E+02 0.52729612228E+01 0.26102474228E+01 0.12791036949E+01 0.62350105249E+00
 0.30340585874E+00 0.14861882250E+00 0.74727062844E-01 0.41926640553E-01 0.31804413540E-01
 0.39182261345E-01 0.67746245258E-01 0.13355106468E+00 0.27207346009E+00 0.55900512622E+00
 0.11473697043E+01 0.23438020480E+01 0.47437667722E+01 0.94513891197E+01 0.18345715164E+02
 0.34132565570E+02 0.59497116589E+02 0.96444751238E+02 0.17184066112E+03 0.57866483652E+03
 0.30595534044E+04 0.11566265364E+05 0.51678525065E+04 0.38854353489E+04 0.14376241460E+04
 0.39361966012E+03 0.15434809997E+03 0.93296445148E+02 0.58818722083E+02 0.34397791098E+02
 0.18821400432E+02 0.98469385404E+01 0.50065343677E+01 0.25001378531E+01 0.12346377320E+01
 0.60585163297E+00 0.29652617040E+00 0.14587936079E+00 0.73452788373E-01 0.40839990741E-01
 0.30108220371E-01 0.35717670837E-01 0.60472347316E-01 0.11797191283E+00 0.23885877036E+00
 0.48795132762E+00 0.99525424650E+00 0.20203649491E+01 0.40618094030E+01 0.80399864776E+01
 0.15523532788E+02 0.28819802585E+02 0.50402775716E+02 0.81587529775E+02 0.12929774821E+03
 0.27819931440E+03 0.97403991219E+03 0.30595534044E+04 0.86540031585E+03 0.73947089167E+03
 0.39361966012E+03 0.19042006366E+03 0.11519298277E+03 0.77440657156E+02 0.49450171384E+02
 0.29190250275E+02 0.16189903416E+02 0.85993652034E+01 0.44372723569E+01 0.22462735233E+01
 0.11230275041E+01 0.55710341932E+00 0.27527970630E+00 0.13647633515E+00 0.69074329512E-01
 0.38204923455E-01 0.27493220580E-01 0.31354785227E-01 0.51809259947E-01 0.99616233826E-01
 0.19985856075E+00 0.40436302359E+00 0.81684582298E+00 0.16406898753E+01 0.32616881229E+01
 0.63826294109E+01 0.12193449606E+02 0.22469015614E+02 0.39258850056E+02 0.63775680133E+02
 0.96170573126E+02 0.14728718861E+03 0.27819931440E+03 0.57866483652E+03 0.20532950020E+03
 0.19579765623E+03 0.15434809997E+03 0.11519298277E+03 0.85011311503E+02 0.59353769329E+02
 0.38230773173E+02 0.22866981431E+02 0.12914982158E+02 0.69972643750E+01 0.36814092537E+01
 0.18976605230E+01 0.96428058353E+00 0.48547749768E+00 0.24301285643E+00 0.12179043500E+00
 0.62174809854E-01 0.34341578708E-01 0.24221910970E-01 0.26558054651E-01 0.42669521199E-01
 0.80600922403E-01 0.15973935505E+00 0.31911386672E+00 0.63644534404E+00 0.12602487940E+01
 0.24677374606E+01 0.47531296466E+01 0.89414448630E+01 0.16262751082E+02 0.28209843101E+02
 0.45892252037E+02 0.68992208359E+02 0.96170573126E+02 0.12929774821E+03 0.17184066112E+03
 0.10486367991E+03 0.10362934731E+03 0.93296445148E+02 0.77440657156E+02 0.59353769329E+02
 0.41860412547E+02 0.27280718658E+02 0.16623389026E+02 0.96050462357E+01 0.53302626218E+01
 0.28704635199E+01 0.15122374289E+01 0.78375472300E+00 0.40168248809E+00 0.20437082795E+00
 0.10382771252E+00 0.53618298935E-01 0.29691892117E-01 0.20595669620E-01 0.21754589819E-01
 0.33844064628E-01 0.62673203233E-01 0.12226563837E+00 0.24068183674E+00 0.47256019751E+00
 0.91985060639E+00 0.17684530259E+01 0.33413421734E+01 0.61647977762E+01 0.11012322462E+02
 0.18839214125E+02 0.30457912987E+02 0.45892252037E+02 0.63775680133E+02 0.81587529775E+02
 0.96444751238E+02 0.64525223995E+02 0.64278741818E+02 0.58818722083E+02 0.49450171384E+02
 0.38230773173E+02 0.27280718658E+02 0.18107753171E+02 0.11299975117E+02 0.67054651178E+01
 0.38238173871E+01 0.21140799060E+01 0.11414325196E+01 0.60513946374E+00 0.31652785997E+00
 0.16409020218E+00 0.84736255638E-01 0.44356736769E-01 0.24726306553E-01 0.16917669529E-01
 0.17262653542E-01 0.25919400889E-01 0.46954355656E-01 0.89916031139E-01 0.17413554886E+00
 0.33571212992E+00 0.64113933906E+00 0.12075604917E+01 0.22322863348E+01 0.40278817156E+01
 0.70405419671E+01 0.11816277887E+02 0.18839214125E+02 0.28209843101E+02 0.39258850056E+02
 0.50402775716E+02 0.59497116589E+02 0.37215798353E+02 0.37312315636E+02 0.34397791098E+02
 0.29190250275E+02 0.22866981431E+02 0.16623389026E+02 0.11299975117E+02 0.72481047143E+01
 0.44285936806E+01 0.26005385557E+01 0.14790093578E+01 0.81991950602E+00 0.44557862107E+00
 0.23838360908E+00 0.12611337332E+00 0.66364384370E-01 0.35275734298E-01 0.19850736833E-01
 0.13458154829E-01 0.13275739833E-01 0.19245769107E-01 0.33959114214E-01 0.63800677049E-01
 0.12122116004E+00 0.22928520607E+00 0.42889937125E+00 0.79007472147E+00 0.14271363566E+01
 0.25138575169E+01 0.42902615538E+01 0.70405419671E+01 0.11012322462E+02 0.16262751082E+02
 0.22469015614E+02 0.28819802585E+02 0.34132565570E+02 0.20049214216E+02 0.20222255264E+02
 0.18821400432E+02 0.16189903416E+02 0.12914982158E+02 0.96050462357E+01 0.67054651178E+01
 0.44285936806E+01 0.27892279808E+01 0.16880680554E+01 0.98851475568E+00 0.56342251485E+00
 0.31419169988E+00 0.17219665973E+00 0.93085486454E-01 0.49992587178E-01 0.27027523940E-01
 0.15393013728E-01 0.10369633345E-01 0.99287605125E-02 0.13863899348E-01 0.23811227931E-01
 0.43785761570E-01 0.81554533983E-01 0.15117356296E+00 0.27673173684E+00 0.49836359474E+00
 0.87872222258E+00 0.15099801212E+01 0.25138575169E+01 0.40278817156E+01 0.61647977762E+01
 0.89414448630E+01 0.12193449606E+02 0.15523532788E+02 0.18345715164E+02 0.10329040888E+02
 0.10472364757E+02 0.98469385404E+01 0.85993652034E+01 0.69972643750E+01 0.53302626218E+01
 0.38238173871E+01 0.26005385557E+01 0.16880680554E+01 0.10529624383E+01 0.63496082764E+00
 0.37227608272E+00 0.21314474727E+00 0.11969769577E+00 0.66231137241E-01 0.36315292322E-01
 0.20017605990E-01 0.11546932599E-01 0.77666535156E-02 0.72328214549E-02 0.97278133661E-02
 0.16230805360E-01 0.29160634397E-01 0.53228130116E-01 0.96586034647E-01 0.17304600577E+00
 0.30444632516E+00 0.52414421343E+00 0.87872222258E+00 0.14271363566E+01 0.22322863348E+01
 0.33413421734E+01 0.47531296466E+01 0.63826294109E+01 0.80399864776E+01 0.94513891197E+01
 0.51784229543E+01 0.52729612228E+01 0.50065343677E+01 0.44372723569E+01 0.36814092537E+01
 0.28704635199E+01 0.21140799060E+01 0.14790093578E+01 0.98851475568E+00 0.63496082764E+00
 0.39413678157E+00 0.23755277993E+00 0.13966421027E+00 0.80420142163E-01 0.45547862018E-01
 0.25521934349E-01 0.14344275261E-01 0.83928104533E-02 0.56506990247E-02 0.51308216528E-02
 0.66663062712E-02 0.10780264697E-01 0.18930389493E-01 0.33795893147E-01 0.60073016630E-01
 0.10526150538E+00 0.18109549984E+00 0.30444632516E+00 0.49836359474E+00 0.79007472147E+00
 0.12075604917E+01 0.17684530259E+01 0.24677374606E+01 0.32616881229E+01 0.40618094030E+01
 0.47437667722E+01 0.25543696450E+01 0.26102474228E+01 0.25001378531E+01 0.22462735233E+01
 0.18976605230E+01 0.15122374289E+01 0.11414325196E+01 0.81991950602E+00 0.56342251485E+00
 0.37227608273E+00 0.23755277993E+00 0.14711364228E+00 0.88767298886E-01 0.52395682239E-01
 0.30372866115E-01 0.17403028601E-01 0.99802833258E-02 0.59400987382E-02 0.40077923787E-02
 0.35683739574E-02 0.44616121573E-02 0.70033440425E-02 0.11993573572E-01 0.20976459979E-01
 0.36478246584E-01 0.62578063491E-01 0.10526150538E+00 0.17304600577E+00 0.27673173684E+00
 0.42889937125E+00 0.64113933905E+00 0.91985060639E+00 0.12602487940E+01 0.16406898753E+01
 0.20203649491E+01 0.23438020480E+01 0.12480418211E+01 0.12791036949E+01 0.12346377320E+01
 0.11230275041E+01 0.96428058353E+00 0.78375472300E+00 0.60513946375E+00 0.44557862107E+00
 0.31419169988E+00 0.21314474728E+00 0.13966421027E+00 0.88767298890E-01 0.54932018156E-01
 0.33218671292E-01 0.19720176632E-01 0.11556146846E-01 0.67732675022E-02 0.41003656608E-02
 0.27893732190E-02 0.24392928107E-02 0.29520930477E-02 0.44700940917E-02 0.74589425226E-02
 0.12749943926E-01 0.21733710081E-01 0.36478246583E-01 0.60073016624E-01 0.96586034652E-01
 0.15117356296E+00 0.22928520607E+00 0.33571212992E+00 0.47256019751E+00 0.63644534404E+00
 0.81684582298E+00 0.99525424650E+00 0.11473697043E+01 0.60688985001E+00 0.62350105249E+00
 0.60585163297E+00 0.55710341932E+00 0.48547749768E+00 0.40168248809E+00 0.31652785997E+00
 0.23838360908E+00 0.17219665973E+00 0.11969769577E+00 0.80420142165E-01 0.52395682239E-01
 0.33218671289E-01 0.20580631463E-01 0.12502066114E-01 0.74911696451E-02 0.44779764575E-02
 0.27599379860E-02 0.18893927359E-02 0.16369767125E-02 0.19220446848E-02 0.28280348392E-02
 0.45841598273E-02 0.76504952462E-02 0.12749943921E-01 0.20976459980E-01 0.33795893146E-01
 0.53228130114E-01 0.81554533980E-01 0.12122116004E+00 0.17413554885E+00 0.24068183674E+00
 0.31911386672E+00 0.40436302359E+00 0.48795132762E+00 0.55900512622E+00 0.29477678462E+00
 0.30340585874E+00 0.29652617040E+00 0.27527970631E+00 0.24301285643E+00 0.20437082795E+00
 0.16409020217E+00 0.12611337332E+00 0.93085486454E-01 0.66231137238E-01 0.45547862018E-01
 0.30372866113E-01 0.19720176628E-01 0.12502066114E-01 0.77663046513E-02 0.47501804919E-02
 0.28992922540E-02 0.18185677489E-02 0.12612994944E-02 0.10845410173E-02 0.12468332970E-02
 0.17818216535E-02 0.28194613108E-02 0.45841598279E-02 0.74589425205E-02 0.11993573571E-01
 0.18930389494E-01 0.29160634395E-01 0.43785761572E-01 0.63800677049E-01 0.89916031136E-01
 0.12226563837E+00 0.15973935504E+00 0.19985856076E+00 0.23885877036E+00 0.27207346009E+00
 0.14428709286E+00 0.14861882250E+00 0.14587936079E+00 0.13647633516E+00 0.12179043500E+00
 0.10382771252E+00 0.84736255632E-01 0.66364384371E-01 0.49992587181E-01 0.36315292322E-01
 0.25521934353E-01 0.17403028604E-01 0.11556146846E-01 0.74911696437E-02 0.47501804900E-02
 0.29681410422E-02 0.18508332304E-02 0.11902886599E-02 0.84195437698E-03 0.73109110379E-03
 0.82679575790E-03 0.11561096900E-02 0.17818216545E-02 0.28280348385E-02 0.44700940976E-02
 0.70033440444E-02 0.10780264697E-01 0.16230805360E-01 0.23811227931E-01 0.33959114215E-01
 0.46954355661E-01 0.62673203231E-01 0.80600922403E-01 0.99616233828E-01 0.11797191283E+00
 0.13355106468E+00 0.72725030072E-01 0.74727062844E-01 0.73452788375E-01 0.69074329510E-01
 0.62174809856E-01 0.53618298933E-01 0.44356736772E-01 0.35275734299E-01 0.27027523939E-01
 0.20017605997E-01 0.14344275263E-01 0.99802833260E-02 0.67732674967E-02 0.44779764590E-02
 0.28992922542E-02 0.18508332306E-02 0.11886174545E-02 0.79071804146E-03 0.58641867940E-03
 0.52621958037E-03 0.60350557752E-03 0.82679575764E-03 0.12468332983E-02 0.19220446818E-02
 0.29520930479E-02 0.44616121601E-02 0.66663062739E-02 0.97278133693E-02 0.13863899351E-01
 0.19245769108E-01 0.25919400888E-01 0.33844064627E-01 0.42669521198E-01 0.51809259946E-01
 0.60472347317E-01 0.67746245258E-01 0.41344942149E-01 0.41926640555E-01 0.40839990740E-01
 0.38204923455E-01 0.34341578709E-01 0.29691892116E-01 0.24726306545E-01 0.19850736832E-01
 0.15393013729E-01 0.11546932598E-01 0.83928104545E-02 0.59400987377E-02 0.41003656583E-02
 0.27599379871E-02 0.18185677461E-02 0.11902886585E-02 0.79071804470E-03 0.55717322675E-03
 0.44601132095E-03 0.43705608277E-03 0.52621958150E-03 0.73109110247E-03 0.10845410184E-02
 0.16369767131E-02 0.24392928142E-02 0.35683739571E-02 0.51308216501E-02 0.72328214547E-02
 0.99287605144E-02 0.13275739831E-01 0.17262653541E-01 0.21754589819E-01 0.26558054651E-01
 0.31354785227E-01 0.35717670836E-01 0.39182261346E-01 0.32391996481E-01 0.31804413530E-01
 0.30108220349E-01 0.27493220586E-01 0.24221910985E-01 0.20595669615E-01 0.16917669537E-01
 0.13458154825E-01 0.10369633317E-01 0.77666535121E-02 0.56506990387E-02 0.40077923724E-02
 0.27893732284E-02 0.18893927339E-02 0.12612994851E-02 0.84195439430E-03 0.58641868605E-03
 0.44601131572E-03 0.40408002678E-03 0.44601131549E-03 0.58641868577E-03 0.84195439423E-03
 0.12612994851E-02 0.18893927339E-02 0.27893732284E-02 0.40077923723E-02 0.56506990387E-02
 0.77666535121E-02 0.10369633317E-01 0.13458154825E-01 0.16917669537E-01 0.20595669615E-01
 0.24221910985E-01 0.27493220586E-01 0.30108220349E-01 0.31804413530E-01 0.41344942149E-01
 0.39182261346E-01 0.35717670836E-01 0.31354785227E-01 0.26558054651E-01 0.21754589819E-01
 0.17262653541E-01 0.13275739831E-01 0.99287605144E-02 0.72328214547E-02 0.51308216500E-02
 0.35683739572E-02 0.24392928142E-02 0.16369767131E-02 0.10845410184E-02 0.73109110248E-03
 0.52621958145E-03 0.43705608323E-03 0.44601132117E-03 0.55717322584E-03 0.79071804470E-03
 0.11902886585E-02 0.18185677461E-02 0.27599379871E-02 0.41003656583E-02 0.59400987376E-02
 0.83928104546E-02 0.11546932598E-01 0.15393013729E-01 0.19850736832E-01 0.24726306545E-01
 0.29691892116E-01 0.34341578709E-01 0.38204923455E-01 0.40839990740E-01 0.41926640555E-01
 0.72725030072E-01 0.67746245258E-01 0.60472347317E-01 0.51809259946E-01 0.42669521198E-01
 0.33844064627E-01 0.25919400888E-01 0.19245769108E-01 0.13863899351E-01 0.97278133693E-02
 0.66663062739E-02 0.44616121602E-02 0.29520930479E-02 0.19220446818E-02 0.12468332982E-02
 0.82679575763E-03 0.60350557750E-03 0.52621958019E-03 0.58641867912E-03 0.79071804151E-03
 0.11886174546E-02 0.18508332306E-02 0.28992922542E-02 0.44779764590E-02 0.67732674967E-02
 0.99802833259E-02 0.14344275263E-01 0.20017605997E-01 0.27027523939E-01 0.35275734299E-01
 0.44356736772E-01 0.53618298933E-01 0.62174809856E-01 0.69074329510E-01 0.73452788375E-01
 0.74727062843E-01 0.14428709286E+00 0.13355106468E+00 0.11797191283E+00 0.99616233828E-01
 0.80600922403E-01 0.62673203231E-01 0.46954355661E-01 0.33959114215E-01 0.23811227930E-01
 0.16230805360E-01 0.10780264697E-01 0.70033440444E-02 0.44700940976E-02 0.28280348384E-02
 0.17818216544E-02 0.11561096900E-02 0.82679575781E-03 0.73109110396E-03 0.84195437694E-03
 0.11902886597E-02 0.18508332306E-02 0.29681410422E-02 0.47501804901E-02 0.74911696437E-02
 0.11556146846E-01 0.17403028604E-01 0.25521934353E-01 0.36315292322E-01 0.49992587182E-01
 0.66364384371E-01 0.84736255632E-01 0.10382771252E+00 0.12179043500E+00 0.13647633516E+00
 0.14587936079E+00 0.14861882250E+00 0.29477678462E+00 0.27207346009E+00 0.23885877036E+00
 0.19985856076E+00 0.15973935504E+00 0.12226563837E+00 0.89916031136E-01 0.63800677049E-01
 0.43785761572E-01 0.29160634395E-01 0.18930389494E-01 0.11993573571E-01 0.74589425205E-02
 0.45841598278E-02 0.28194613108E-02 0.17818216535E-02 0.12468332970E-02 0.10845410174E-02
 0.12612994945E-02 0.18185677489E-02 0.28992922541E-02 0.47501804919E-02 0.77663046513E-02
 0.12502066114E-01 0.19720176628E-01 0.30372866113E-01 0.45547862018E-01 0.66231137238E-01
 0.93085486454E-01 0.12611337332E+00 0.16409020217E+00 0.20437082795E+00 0.24301285643E+00
 0.27527970631E+00 0.29652617039E+00 0.30340585874E+00 0.60688985001E+00 0.55900512622E+00
 0.48795132762E+00 0.40436302359E+00 0.31911386672E+00 0.24068183674E+00 0.17413554885E+00
 0.12122116004E+00 0.81554533980E-01 0.53228130114E-01 0.33795893147E-01 0.20976459980E-01
 0.12749943921E-01 0.76504952462E-02 0.45841598272E-02 0.28280348392E-02 0.19220446847E-02
 0.16369767125E-02 0.18893927358E-02 0.27599379862E-02 0.44779764576E-02 0.74911696451E-02
 0.12502066114E-01 0.20580631463E-01 0.33218671289E-01 0.52395682239E-01 0.80420142165E-01
 0.11969769577E+00 0.17219665973E+00 0.23838360908E+00 0.31652785997E+00 0.40168248809E+00
 0.48547749768E+00 0.55710341932E+00 0.60585163297E+00 0.62350105249E+00 0.12480418211E+01
 0.11473697043E+01 0.99525424650E+00 0.81684582298E+00 0.63644534404E+00 0.47256019751E+00
 0.33571212992E+00 0.22928520607E+00 0.15117356296E+00 0.96586034652E-01 0.60073016624E-01
 0.36478246583E-01 0.21733710081E-01 0.12749943926E-01 0.74589425226E-02 0.44700940916E-02
 0.29520930476E-02 0.24392928105E-02 0.27893732190E-02 0.41003656609E-02 0.67732675022E-02
 0.11556146846E-01 0.19720176632E-01 0.33218671292E-01 0.54932018156E-01 0.88767298890E-01
 0.13966421027E+00 0.21314474728E+00 0.31419169988E+00 0.44557862107E+00 0.60513946375E+00
 0.78375472300E+00 0.96428058353E+00 0.11230275041E+01 0.12346377320E+01 0.12791036949E+01
 0.25543696450E+01 0.23438020480E+01 0.20203649491E+01 0.16406898753E+01 0.12602487940E+01
 0.91985060639E+00 0.64113933905E+00 0.42889937125E+00 0.27673173684E+00 0.17304600577E+00
 0.10526150538E+00 0.62578063491E-01 0.36478246584E-01 0.20976459979E-01 0.11993573572E-01
 0.70033440425E-02 0.44616121573E-02 0.35683739573E-02 0.40077923790E-02 0.59400987383E-02
 0.99802833258E-02 0.17403028601E-01 0.30372866115E-01 0.52395682239E-01 0.88767298886E-01
 0.14711364228E+00 0.23755277993E+00 0.37227608273E+00 0.56342251485E+00 0.81991950602E+00
 0.11414325196E+01 0.15122374289E+01 0.18976605230E+01 0.22462735233E+01 0.25001378531E+01
 0.26102474228E+01 0.51784229543E+01 0.47437667722E+01 0.40618094030E+01 0.32616881229E+01
 0.24677374606E+01 0.17684530259E+01 0.12075604917E+01 0.79007472147E+00 0.49836359474E+00
 0.30444632516E+00 0.18109549984E+00 0.10526150538E+00 0.60073016630E-01 0.33795893147E-01
 0.18930389493E-01 0.10780264697E-01 0.66663062712E-02 0.51308216525E-02 0.56506990248E-02
 0.83928104536E-02 0.14344275261E-01 0.25521934349E-01 0.45547862018E-01 0.80420142163E-01
 0.13966421027E+00 0.23755277993E+00 0.39413678157E+00 0.63496082764E+00 0.98851475568E+00
 0.14790093578E+01 0.21140799060E+01 0.28704635199E+01 0.36814092537E+01 0.44372723569E+01
 0.50065343677E+01 0.52729612228E+01 0.10329040888E+02 0.94513891197E+01 0.80399864776E+01
 0.63826294109E+01 0.47531296466E+01 0.33413421734E+01 0.22322863348E+01 0.14271363566E+01
 0.87872222258E+00 0.52414421343E+00 0.30444632516E+00 0.17304600577E+00 0.96586034647E-01
 0.53228130116E-01 0.29160634397E-01 0.16230805360E-01 0.97278133660E-02 0.72328214549E-02
 0.77666535155E-02 0.11546932599E-01 0.20017605990E-01 0.36315292322E-01 0.66231137241E-01
 0.11969769577E+00 0.21314474727E+00 0.37227608272E+00 0.63496082764E+00 0.10529624383E+01
 0.16880680554E+01 0.26005385557E+01 0.38238173871E+01 0.53302626218E+01 0.69972643750E+01
 0.85993652034E+01 0.98469385404E+01 0.10472364757E+02 0.20049214216E+02 0.18345715164E+02
 0.15523532788E+02 0.12193449606E+02 0.89414448630E+01 0.61647977762E+01 0.40278817156E+01
 0.25138575169E+01 0.15099801212E+01 0.87872222258E+00 0.49836359474E+00 0.27673173684E+00
 0.15117356296E+00 0.81554533983E-01 0.43785761570E-01 0.23811227931E-01 0.13863899348E-01
 0.99287605123E-02 0.10369633345E-01 0.15393013728E-01 0.27027523940E-01 0.49992587178E-01
 0.93085486455E-01 0.17219665973E+00 0.31419169988E+00 0.56342251485E+00 0.98851475568E+00
 0.16880680554E+01 0.27892279808E+01 0.44285936806E+01 0.67054651178E+01 0.96050462357E+01
 0.12914982158E+02 0.16189903416E+02 0.18821400432E+02 0.20222255264E+02 0.37215798353E+02
 0.34132565570E+02 0.28819802585E+02 0.22469015614E+02 0.16262751082E+02 0.11012322462E+02
 0.70405419671E+01 0.42902615538E+01 0.25138575169E+01 0.14271363566E+01 0.79007472147E+00
 0.42889937125E+00 0.22928520607E+00 0.12122116004E+00 0.63800677049E-01 0.33959114214E-01
 0.19245769107E-01 0.13275739833E-01 0.13458154829E-01 0.19850736834E-01 0.35275734297E-01
 0.66364384370E-01 0.12611337332E+00 0.23838360908E+00 0.44557862107E+00 0.81991950602E+00
 0.14790093578E+01 0.26005385557E+01 0.44285936806E+01 0.72481047143E+01 0.11299975117E+02
 0.16623389026E+02 0.22866981431E+02 0.29190250275E+02 0.34397791098E+02 0.37312315636E+02
 0.64525223995E+02 0.59497116589E+02 0.50402775716E+02 0.39258850056E+02 0.28209843101E+02
 0.18839214125E+02 0.11816277887E+02 0.70405419671E+01 0.40278817156E+01 0.22322863348E+01
 0.12075604917E+01 0.64113933906E+00 0.33571212992E+00 0.17413554886E+00 0.89916031139E-01
 0.46954355656E-01 0.25919400889E-01 0.17262653542E-01 0.16917669529E-01 0.24726306553E-01
 0.44356736769E-01 0.84736255638E-01 0.16409020218E+00 0.31652785997E+00 0.60513946374E+00
 0.11414325196E+01 0.21140799060E+01 0.38238173871E+01 0.67054651178E+01 0.11299975117E+02
 0.18107753171E+02 0.27280718658E+02 0.38230773173E+02 0.49450171384E+02 0.58818722083E+02
 0.64278741818E+02 0.10486367991E+03 0.96444751238E+02 0.81587529775E+02 0.63775680133E+02
 0.45892252037E+02 0.30457912987E+02 0.18839214125E+02 0.11012322462E+02 0.61647977762E+01
 0.33413421734E+01 0.17684530259E+01 0.91985060639E+00 0.47256019751E+00 0.24068183674E+00
 0.12226563837E+00 0.62673203233E-01 0.33844064628E-01 0.21754589819E-01 0.20595669620E-01
 0.29691892117E-01 0.53618298935E-01 0.10382771252E+00 0.20437082795E+00 0.40168248809E+00
 0.78375472300E+00 0.15122374289E+01 0.28704635199E+01 0.53302626218E+01 0.96050462357E+01
 0.16623389026E+02 0.27280718658E+02 0.41860412547E+02 0.59353769329E+02 0.77440657156E+02
 0.93296445148E+02 0.10362934731E+03 0.20532950020E+03 0.17184066112E+03 0.12929774821E+03
 0.96170573126E+02 0.68992208359E+02 0.45892252037E+02 0.28209843101E+02 0.16262751082E+02
 0.89414448630E+01 0.47531296466E+01 0.24677374606E+01 0.12602487940E+01 0.63644534404E+00
 0.31911386672E+00 0.15973935505E+00 0.80600922403E-01 0.42669521199E-01 0.26558054651E-01
 0.24221910970E-01 0.34341578708E-01 0.62174809854E-01 0.12179043500E+00 0.24301285643E+00
 0.48547749768E+00 0.96428058353E+00 0.18976605230E+01 0.36814092537E+01 0.69972643750E+01
 0.12914982158E+02 0.22866981431E+02 0.38230773173E+02 0.59353769329E+02 0.85011311503E+02
 0.11519298277E+03 0.15434809997E+03 0.19579765623E+03 0.86540031585E+03 0.57866483652E+03
 0.27819931440E+03 0.14728718861E+03 0.96170573126E+02 0.63775680133E+02 0.39258850056E+02
 0.22469015614E+02 0.12193449606E+02 0.63826294109E+01 0.32616881229E+01 0.16406898753E+01
 0.81684582298E+00 0.40436302359E+00 0.19985856075E+00 0.99616233826E-01 0.51809259947E-01
 0.31354785227E-01 0.27493220580E-01 0.38204923455E-01 0.69074329512E-01 0.13647633515E+00
 0.27527970630E+00 0.55710341932E+00 0.11230275041E+01 0.22462735233E+01 0.44372723569E+01
 0.85993652034E+01 0.16189903416E+02 0.29190250275E+02 0.49450171384E+02 0.77440657156E+02
 0.11519298277E+03 0.19042006366E+03 0.39361966012E+03 0.73947089167E+03 0.51678525065E+04
 0.30595534044E+04 0.97403991219E+03 0.27819931440E+03 0.12929774821E+03 0.81587529775E+02
 0.50402775716E+02 0.28819802585E+02 0.15523532788E+02 0.80399864776E+01 0.40618094030E+01
 0.20203649491E+01 0.99525424650E+00 0.48795132762E+00 0.23885877036E+00 0.11797191283E+00
 0.60472347316E-01 0.35717670837E-01 0.30108220371E-01 0.40839990742E-01 0.73452788373E-01
 0.14587936079E+00 0.29652617040E+00 0.60585163297E+00 0.12346377320E+01 0.25001378531E+01
 0.50065343677E+01 0.98469385404E+01 0.18821400432E+02 0.34397791098E+02 0.58818722083E+02
 0.93296445148E+02 0.15434809997E+03 0.39361966012E+03 0.14376241460E+04 0.38854353489E+04
 0.20119845263E+05 0.11566265364E+05 0.30595534044E+04 0.57866483652E+03 0.17184066112E+03
 0.96444751238E+02 0.59497116589E+02 0.34132565570E+02 0.18345715164E+02 0.94513891197E+01
 0.47437667722E+01 0.23438020480E+01 0.11473697043E+01 0.55900512622E+00 0.27207346009E+00
 0.13355106468E+00 0.67746245258E-01 0.39182261344E-01 0.31804413540E-01 0.41926640554E-01
 0.74727062844E-01 0.14861882250E+00 0.30340585874E+00 0.62350105249E+00 0.12791036949E+01
 0.26102474228E+01 0.52729612228E+01 0.10472364757E+02 0.20222255264E+02 0.37312315636E+02
 0.64278741818E+02 0.10362934731E+03 0.19579765623E+03 0.73947089167E+03 0.38854353489E+04
 0.13264450270E+05 0.21031731631E+05 0.12777865143E+05 0.35393897915E+04 0.66467517808E+03
 0.18428589353E+03 0.10025521744E+03 0.62022951723E+02 0.35789104934E+02 0.19312664969E+02
 0.99732373458E+01 0.50128109627E+01 0.24786538993E+01 0.12137816231E+01 0.59140213753E+00
 0.28777318390E+00 0.14109183440E+00 0.71227146321E-01 0.40550345249E-01 0.31794132244E-01
 0.40550345249E-01 0.71227146322E-01 0.14109183440E+00 0.28777318390E+00 0.59140213753E+00
 0.12137816231E+01 0.24786538993E+01 0.50128109627E+01 0.99732373458E+01 0.19312664969E+02
 0.35789104934E+02 0.62022951723E+02 0.10025521744E+03 0.18428589353E+03 0.66467517808E+03
 0.35393897915E+04 0.12777865143E+05 0.12777865143E+05 0.87411687341E+04 0.27025457965E+04
 0.57556702957E+03 0.17678962227E+03 0.99117144028E+02 0.61786223150E+02 0.35881761934E+02
 0.19478793404E+02 0.10111090130E+02 0.51039769772E+01 0.25327710645E+01 0.12438886657E+01
 0.60753948799E+00 0.29617407163E+00 0.14531688754E+00 0.73181788898E-01 0.41118292545E-01
 0.31218789461E-01 0.38433628747E-01 0.66361747073E-01 0.13061306090E+00 0.26566076667E+00
 0.54487653057E+00 0.11160725067E+01 0.22749383902E+01 0.45933602265E+01 0.91288414284E+01
 0.17677018844E+02 0.32829598200E+02 0.57191995680E+02 0.92432285934E+02 0.15766768183E+03
 0.46064250110E+03 0.21572310438E+04 0.76501153398E+04 0.35393897915E+04 0.27025457965E+04
 0.10629240171E+04 0.32618700617E+03 0.14336441675E+03 0.89473576991E+02 0.56540138594E+02
 0.33084128119E+02 0.18133776089E+02 0.95094844978E+01 0.48468265456E+01 0.24261347990E+01
 0.12007890860E+01 0.59039132653E+00 0.28947652271E+00 0.14264231274E+00 0.71936385221E-01
 0.40051497331E-01 0.29556963008E-01 0.35040432179E-01 0.59252779847E-01 0.11540532254E+00
 0.23330500724E+00 0.47574926839E+00 0.96855458673E+00 0.19620104483E+01 0.39351952379E+01
 0.77703119714E+01 0.14966439008E+02 0.27730762370E+02 0.48453222125E+02 0.78371909866E+02
 0.12213582270E+03 0.24024172658E+03 0.74104358833E+03 0.21572310438E+04 0.66467517808E+03
 0.57556702957E+03 0.32618700617E+03 0.17253392763E+03 0.10965874304E+03 0.74409088567E+02
 0.47538067856E+02 0.28086289455E+02 0.15606593843E+02 0.83087695801E+01 0.42976711179E+01
 0.21806014680E+01 0.10924692746E+01 0.54302472247E+00 0.26878271250E+00 0.13346198384E+00
 0.67655720678E-01 0.37469034345E-01 0.26994305300E-01 0.30766911510E-01 0.50779935931E-01
 0.97481294389E-01 0.19529198264E+00 0.39445572443E+00 0.79534983772E+00 0.15943318444E+01
 0.31624549846E+01 0.61737981480E+01 0.11766227291E+02 0.21635563870E+02 0.37750395888E+02
 0.61303045940E+02 0.92175557999E+02 0.13748493580E+03 0.24024172658E+03 0.46064250110E+03
 0.18428589353E+03 0.17678962227E+03 0.14336441675E+03 0.10965874304E+03 0.81631210981E+02
 0.57054259419E+02 0.36763509226E+02 0.22017548826E+02 0.12459785307E+02 0.67659550444E+01
 0.35678762879E+01 0.18431181074E+01 0.93850935838E+00 0.47334028345E+00 0.23735052544E+00
 0.11912685650E+00 0.60910076657E-01 0.33684497066E-01 0.23786048767E-01 0.26068538442E-01
 0.41836760066E-01 0.78909977516E-01 0.15616200855E+00 0.31146254971E+00 0.62011105004E+00
 0.12256129773E+01 0.23947995221E+01 0.46023933068E+01 0.86379954990E+01 0.15676578081E+02
 0.27145362961E+02 0.44120240933E+02 0.66312674713E+02 0.92175557999E+02 0.12213582270E+03
 0.15766768183E+03 0.10025521744E+03 0.99117144028E+02 0.89473576991E+02 0.74409088567E+02
 0.57054259419E+02 0.40248291875E+02 0.26253648175E+02 0.16023014448E+02 0.92767612796E+01
 0.51592333785E+01 0.27842995388E+01 0.14697874184E+01 0.76322749889E+00 0.39184764453E+00
 0.19968439170E+00 0.10158903248E+00 0.52538361854E-01 0.29131610439E-01 0.20227584978E-01
 0.21362455461E-01 0.33193979971E-01 0.61390599237E-01 0.11958921599E+00 0.23507529231E+00
 0.46078021627E+00 0.89540094046E+00 0.17180397954E+01 0.32394593311E+01 0.59636859371E+01
 0.10630383601E+02 0.18150887697E+02 0.29302757060E+02 0.44120240933E+02 0.61303045940E+02
 0.78371909866E+02 0.92432285934E+02 0.62022951723E+02 0.61786223150E+02 0.56540138594E+02
 0.47538067856E+02 0.36763509226E+02 0.26253648175E+02 0.17448523724E+02 0.10907063930E+02
 0.64848660623E+01 0.37053727295E+01 0.20527118396E+01 0.11103172452E+01 0.58969232350E+00
 0.30894609979E+00 0.16039999111E+00 0.82946933757E-01 0.43476175482E-01 0.24267617587E-01
 0.16619297004E-01 0.16958411673E-01 0.25435526752E-01 0.46017733317E-01 0.88003786988E-01
 0.17019777615E+00 0.32762132421E+00 0.62466487118E+00 0.11745413992E+01 0.21670673296E+01
 0.39023959782E+01 0.68076383963E+01 0.11403623374E+02 0.18150887697E+02 0.27145362961E+02
 0.37750395889E+02 0.48453222125E+02 0.57191995680E+02 0.35789104934E+02 0.35881761934E+02
 0.33084128119E+02 0.28086289455E+02 0.22017548826E+02 0.16023014448E+02 0.10907063930E+02
 0.70075484650E+01 0.42893041039E+01 0.25233735567E+01 0.14375975938E+01 0.79832591041E+00
 0.43454324581E+00 0.23283287170E+00 0.12334003816E+00 0.64991181326E-01 0.34586524193E-01
 0.19488114500E-01 0.13224161057E-01 0.13045230112E-01 0.18894335512E-01 0.33298761614E-01
 0.62487262553E-01 0.11856697073E+00 0.22396485101E+00 0.41832213765E+00 0.76935718409E+00
 0.13873399304E+01 0.24393941661E+01 0.41558192570E+01 0.68076383963E+01 0.10630383601E+02
 0.15676578081E+02 0.21635563870E+02 0.27730762370E+02 0.32829598200E+02 0.19312664969E+02
 0.19478793404E+02 0.18133776089E+02 0.15606593843E+02 0.12459785307E+02 0.92767612796E+01
 0.64848660623E+01 0.42893041039E+01 0.27057803009E+01 0.16402124409E+01 0.96201502946E+00
 0.54916032771E+00 0.30667036849E+00 0.16830228070E+00 0.91098959454E-01 0.48986120578E-01
 0.26515684327E-01 0.15119566244E-01 0.10195551953E-01 0.97644677988E-02 0.13620578862E-01
 0.23365210019E-01 0.42909806953E-01 0.79833987060E-01 0.14779546337E+00 0.27019139131E+00
 0.48586972284E+00 0.85539763935E+00 0.14676039199E+01 0.24393941661E+01 0.39023959782E+01
 0.59636859371E+01 0.86379954990E+01 0.11766227291E+02 0.14966439008E+02 0.17677018844E+02
 0.99732373458E+01 0.10111090130E+02 0.95094844978E+01 0.83087695801E+01 0.67659550444E+01
 0.51592333785E+01 0.37053727295E+01 0.25233735567E+01 0.16402124409E+01 0.10245239658E+01