unknown system                          
   1.00000000000000     
     1.649466    1.258417    1.258417
     1.649466   -1.258417   -1.258417
     0.000000    2.758996   -2.758996
   Fe
     2
Direct
  0.500000  0.500000  0.500000
  0.000000  0.000000  0.000000
 
   36   36   60
 0.74844033658E+03 0.16969998655E+04 0.26615692922E+03 0.34266192635E+03 0.45400574295E+03
 0.39460649768E+03 0.28190787193E+03 0.18425044191E+03 0.11628671687E+03 0.73104799794E+02
 0.46693678267E+02 0.30744340200E+02 0.21084143202E+02 0.15195405221E+02 0.11550132256E+02
 0.92962256880E+01 0.79872623906E+01 0.72865582302E+01 0.70570727320E+01 0.72865582302E+01
 0.79872623906E+01 0.92962256880E+01 0.11550132256E+02 0.15195405221E+02 0.21084143202E+02
 0.30744340200E+02 0.46693678267E+02 0.73104799794E+02 0.11628671687E+03 0.18425044191E+03
 0.28190787193E+03 0.39460649768E+03 0.45400574295E+03 0.34266192635E+03 0.26615692922E+03
 0.16969998655E+04 0.16969998655E+04 0.91565675009E+03 0.23116904515E+03 0.36040245982E+03
 0.45421464581E+03 0.39208796678E+03 0.28107684731E+03 0.18461278778E+03 0.11700966017E+03
 0.73786382036E+02 0.47218482438E+02 0.31114561294E+02 0.21335325264E+02 0.15358726561E+02
 0.11654989371E+02 0.93520524626E+01 0.80129596376E+01 0.72821395150E+01 0.70229418079E+01
 0.72141959595E+01 0.78671643600E+01 0.91063865136E+01 0.11015356564E+02 0.14681790065E+02
 0.20229556559E+02 0.29304284293E+02 0.44226428765E+02 0.68865545377E+02 0.10907896277E+03
 0.17251442882E+03 0.26476984447E+03 0.37605766068E+03 0.45234069584E+03 0.38646913549E+03
 0.22649656297E+03 0.73501290913E+03 0.26615692922E+03 0.23116904515E+03 0.28409833849E+03
 0.42158372095E+03 0.44747267375E+03 0.36831060831E+03 0.26242296609E+03 0.17352432925E+03
 0.11109656741E+03 0.70774429017E+02 0.45710869133E+02 0.30356758847E+02 0.20947827162E+02
 0.15151018532E+02 0.11533408605E+02 0.92690266333E+01 0.79407803216E+01 0.72009852104E+01
 0.69224060014E+01 0.70708629223E+01 0.76619636336E+01 0.87975780750E+01 0.10581030624E+02
 0.13877474455E+02 0.18884130030E+02 0.27009524722E+02 0.40231860592E+02 0.61854874577E+02
 0.96850880432E+02 0.15186969334E+03 0.23276720620E+03 0.33612452496E+03 0.43075247442E+03
 0.44446938406E+03 0.32899460632E+03 0.22649656297E+03 0.34266192635E+03 0.36040245982E+03
 0.42158372095E+03 0.45413328931E+03 0.41293873874E+03 0.32361187746E+03 0.22933944315E+03
 0.15331729841E+03 0.99761388907E+02 0.64644217142E+02 0.42426441078E+02 0.28586090317E+02
 0.19972911238E+02 0.14595768220E+02 0.11198349918E+02 0.90524220863E+01 0.77753533278E+01
 0.70475100224E+01 0.67613769083E+01 0.68661000189E+01 0.73864771627E+01 0.83940793862E+01
 0.10017744362E+02 0.12863632283E+02 0.17212070603E+02 0.24167141609E+02 0.35311095899E+02
 0.53247026229E+02 0.81840119974E+02 0.12632396272E+03 0.19192531873E+03 0.27937736616E+03
 0.37539498396E+03 0.44420544162E+03 0.44446938406E+03 0.38646913549E+03 0.45400574295E+03
 0.45421464581E+03 0.44747267375E+03 0.41293873874E+03 0.34603249301E+03 0.26426524066E+03
 0.18805663894E+03 0.12794453775E+03 0.85139057297E+02 0.56466007217E+02 0.37893934030E+02
 0.26058327555E+02 0.18535722873E+02 0.13755304859E+02 0.10518350657E+02 0.87180970579E+01
 0.75266751041E+01 0.68322468031E+01 0.65478168670E+01 0.66140469209E+01 0.70565939543E+01
 0.79274859356E+01 0.93574705804E+01 0.11732074083E+02 0.15387285934E+02 0.21102128903E+02
 0.30089768797E+02 0.44236581165E+02 0.66327873799E+02 0.10007397419E+03 0.14944767262E+03
 0.21644890482E+03 0.29674096412E+03 0.37539498396E+03 0.43075247442E+03 0.45234069584E+03
 0.39460649768E+03 0.39208796678E+03 0.36831060831E+03 0.32361187746E+03 0.26426524066E+03
 0.20161207798E+03 0.14575124605E+03 0.10162920882E+03 0.69557263140E+02 0.47472098564E+02
 0.32743425953E+02 0.23096927936E+02 0.16803874953E+02 0.12713757463E+02 0.99332346476E+01
 0.82913675612E+01 0.72104377433E+01 0.65683711706E+01 0.62926725953E+01 0.63288019627E+01
 0.66914697355E+01 0.74284729089E+01 0.86410206782E+01 0.10420709773E+02 0.13558865018E+02
 0.18092999901E+02 0.25074415462E+02 0.35768472787E+02 0.52047253070E+02 0.76304757878E+02
 0.11115265991E+03 0.15827778526E+03 0.21644890482E+03 0.27937736616E+03 0.33612452496E+03
 0.37605766068E+03 0.28190787193E+03 0.28107684731E+03 0.26242296609E+03 0.22933944315E+03
 0.18805663894E+03 0.14575124605E+03 0.10802293516E+03 0.77643180118E+02 0.54902141716E+02
 0.38715216310E+02 0.27560787521E+02 0.20014363016E+02 0.14952104002E+02 0.11562506331E+02
 0.92525101634E+01 0.78029449766E+01 0.68455209526E+01 0.62705719452E+01 0.60093367912E+01
 0.60227857706E+01 0.63113884079E+01 0.69202719646E+01 0.79185648559E+01 0.94182809347E+01
 0.11827155348E+02 0.15339914376E+02 0.20591466404E+02 0.28410148249E+02 0.39959072031E+02
 0.56671747786E+02 0.80069936641E+02 0.11115265991E+03 0.14944767262E+03 0.19192531873E+03
 0.23276720620E+03 0.26476984447E+03 0.18425044191E+03 0.18461278778E+03 0.17352432925E+03
 0.15331729841E+03 0.12794453775E+03 0.10162920882E+03 0.77643180118E+02 0.57731001802E+02
 0.42300857384E+02 0.30907212418E+02 0.22768396940E+02 0.17064503257E+02 0.13124210054E+02
 0.10240958014E+02 0.85198859078E+01 0.72828864636E+01 0.64545928477E+01 0.59518475754E+01
 0.57127007102E+01 0.57066643889E+01 0.59352988296E+01 0.64220493744E+01 0.72322131412E+01
 0.84424611713E+01 0.10136942337E+02 0.12943267260E+02 0.16795901996E+02 0.22375172480E+02
 0.30340090430E+02 0.41511028641E+02 0.56671747786E+02 0.76304757878E+02 0.10007397419E+03
 0.12632396272E+03 0.15186969334E+03 0.17251442882E+03 0.11628671687E+03 0.11700966017E+03
 0.11109656741E+03 0.99761388907E+02 0.85139057297E+02 0.69557263140E+02 0.54902141716E+02
 0.42300857384E+02 0.32159335420E+02 0.24376916190E+02 0.18606832690E+02 0.14415865935E+02
 0.11415099299E+02 0.92268238549E+01 0.77849057032E+01 0.67563779753E+01 0.60571552024E+01
 0.56269347423E+01 0.54121845343E+01 0.53949361509E+01 0.55698746273E+01 0.59569982280E+01
 0.65969358237E+01 0.75540568271E+01 0.89050804324E+01 0.10921415657E+02 0.13719598438E+02
 0.17622908014E+02 0.23025178054E+02 0.30340090430E+02 0.39959072031E+02 0.52047253070E+02
 0.66327873799E+02 0.81840119974E+02 0.96850880432E+02 0.10907896277E+03 0.73104799794E+02
 0.73786382036E+02 0.70774429017E+02 0.64644217142E+02 0.56466007217E+02 0.47472098564E+02
 0.38715216310E+02 0.30907212418E+02 0.24376916190E+02 0.19174681954E+02 0.15157286524E+02
 0.12144264682E+02 0.97859217439E+01 0.82497208953E+01 0.70879892024E+01 0.62472118213E+01
 0.56721397711E+01 0.53073421606E+01 0.51209474911E+01 0.50958338627E+01 0.52285474539E+01
 0.55322739716E+01 0.60308246002E+01 0.67749898474E+01 0.78168042559E+01 0.92205785959E+01
 0.11282783500E+02 0.13998811450E+02 0.17622908014E+02 0.22375172480E+02 0.28410148249E+02
 0.35768472787E+02 0.44236581165E+02 0.53247026229E+02 0.61854874577E+02 0.68865545377E+02
 0.46693678267E+02 0.47218482438E+02 0.45710869133E+02 0.42426441078E+02 0.37893934030E+02
 0.32743425953E+02 0.27560787521E+02 0.22768396940E+02 0.18606832690E+02 0.15157286524E+02
 0.12408088294E+02 0.10094893430E+02 0.85764494008E+01 0.73670073748E+01 0.64475302951E+01
 0.57758323798E+01 0.53068857055E+01 0.50034163185E+01 0.48443571298E+01 0.48155867389E+01
 0.49171242438E+01 0.51527431590E+01 0.55424679948E+01 0.61102785876E+01 0.69047730174E+01
 0.79642159692E+01 0.93322553739E+01 0.11282783500E+02 0.13719598438E+02 0.16795901996E+02
 0.20591466404E+02 0.25074415462E+02 0.30089768797E+02 0.35311095899E+02 0.40231860592E+02
 0.44226428765E+02 0.30744340200E+02 0.31114561294E+02 0.30356758847E+02 0.28586090317E+02
 0.26058327555E+02 0.23096927936E+02 0.20014363016E+02 0.17064503257E+02 0.14415865935E+02
 0.12144264682E+02 0.10094893430E+02 0.86937463942E+01 0.75257471064E+01 0.65959137474E+01
 0.58814602863E+01 0.53517788009E+01 0.49734241624E+01 0.47253387546E+01 0.45906799991E+01
 0.45630113760E+01 0.46382655259E+01 0.48228893522E+01 0.51248069129E+01 0.55636109185E+01
 0.61597262156E+01 0.69520750720E+01 0.79642159692E+01 0.92205785959E+01 0.10921415657E+02
 0.12943267260E+02 0.15339914376E+02 0.18092999901E+02 0.21102128903E+02 0.24167141609E+02
 0.27009524722E+02 0.29304284293E+02 0.21084143202E+02 0.21335325264E+02 0.20947827162E+02
 0.19972911238E+02 0.18535722873E+02 0.16803874953E+02 0.14952104002E+02 0.13124210054E+02
 0.11415099299E+02 0.97859217439E+01 0.85764494008E+01 0.75257471064E+01 0.66504287862E+01
 0.59463806305E+01 0.53980882280E+01 0.49813363936E+01 0.46791672715E+01 0.44768353322E+01
 0.43662598925E+01 0.43406517969E+01 0.43995703637E+01 0.45433365341E+01 0.47797905093E+01
 0.51176114477E+01 0.55731962958E+01 0.61597262156E+01 0.69047730174E+01 0.78168042559E+01
 0.89050804324E+01 0.10136942337E+02 0.11827155348E+02 0.13558865018E+02 0.15387285934E+02
 0.17212070603E+02 0.18884130030E+02 0.20229556559E+02 0.15195405221E+02 0.15358726561E+02
 0.15151018532E+02 0.14595768220E+02 0.13755304859E+02 0.12713757463E+02 0.11562506331E+02
 0.10240958014E+02 0.92268238549E+01 0.82497208953E+01 0.73670073748E+01 0.65959137474E+01
 0.59463806305E+01 0.54168059540E+01 0.49932856954E+01 0.46657140122E+01 0.44237302531E+01
 0.42608406338E+01 0.41705079341E+01 0.41502504493E+01 0.41976814698E+01 0.43145701648E+01
 0.45023272141E+01 0.47677102000E+01 0.51176114477E+01 0.55636109185E+01 0.61102785876E+01
 0.67749898474E+01 0.75540568271E+01 0.84424611713E+01 0.94182809347E+01 0.10420709773E+02
 0.11732074083E+02 0.12863632283E+02 0.13877474455E+02 0.14681790065E+02 0.11550132256E+02
 0.11654989371E+02 0.11533408605E+02 0.11198349918E+02 0.10518350657E+02 0.99332346476E+01
 0.92525101634E+01 0.85198859078E+01 0.77849057032E+01 0.70879892024E+01 0.64475302951E+01
 0.58814602863E+01 0.53980882280E+01 0.49932856954E+01 0.46636152197E+01 0.44039783926E+01
 0.42110075260E+01 0.40800605161E+01 0.40085187305E+01 0.39936911651E+01 0.40352961109E+01
 0.41329156053E+01 0.42882471522E+01 0.45023272141E+01 0.47797905093E+01 0.51248069129E+01
 0.55424679948E+01 0.60308246002E+01 0.65969358237E+01 0.72322131412E+01 0.79185648559E+01
 0.86410206782E+01 0.93574705804E+01 0.10017744362E+02 0.10581030624E+02 0.11015356564E+02
 0.92962256880E+01 0.93520524626E+01 0.92690266333E+01 0.90524220863E+01 0.87180970579E+01
 0.82913675612E+01 0.78029449766E+01 0.72828864636E+01 0.67563779753E+01 0.62472118213E+01
 0.57758323798E+01 0.53517788009E+01 0.49813363936E+01 0.46657140122E+01 0.44039783926E+01
 0.41965332086E+01 0.40414308028E+01 0.39371842087E+01 0.38815116371E+01 0.38737025398E+01
 0.39127072338E+01 0.39992238354E+01 0.41329156053E+01 0.43145701648E+01 0.45433365341E+01
 0.48228893522E+01 0.51527431590E+01 0.55322739716E+01 0.59569982280E+01 0.64220493744E+01
 0.69202719646E+01 0.74284729089E+01 0.79274859356E+01 0.83940793862E+01 0.87975780750E+01
 0.91063865136E+01 0.79872623906E+01 0.80129596376E+01 0.79407803216E+01 0.77753533278E+01
 0.75266751041E+01 0.72104377433E+01 0.68455209526E+01 0.64545928477E+01 0.60571552024E+01
 0.56721397711E+01 0.53068857055E+01 0.49734241624E+01 0.46791672715E+01 0.44237302531E+01
 0.42110075260E+01 0.40414308028E+01 0.39158138240E+01 0.38324126794E+01 0.37912068959E+01
 0.37907452810E+01 0.38315517420E+01 0.39127072338E+01 0.40352961109E+01 0.41976814698E+01
 0.43995703637E+01 0.46382655259E+01 0.49171242438E+01 0.52285474539E+01 0.55698746273E+01
 0.59352988296E+01 0.63113884079E+01 0.66914697355E+01 0.70565939543E+01 0.73864771627E+01
 0.76619636336E+01 0.78671643600E+01 0.72865582302E+01 0.72821395150E+01 0.72009852104E+01
 0.70475100224E+01 0.68322468031E+01 0.65683711706E+01 0.62705719452E+01 0.59518475754E+01
 0.56269347423E+01 0.53073421606E+01 0.50034163185E+01 0.47253387546E+01 0.44768353322E+01
 0.42608406338E+01 0.40800605161E+01 0.39371842087E+01 0.38324126794E+01 0.37657491214E+01
 0.37366774880E+01 0.37451222914E+01 0.37907452810E+01 0.38737025398E+01 0.39936911651E+01
 0.41502504493E+01 0.43406517969E+01 0.45630113760E+01 0.48155867389E+01 0.50958338627E+01
 0.53949361509E+01 0.57066643889E+01 0.60227857706E+01 0.63288019627E+01 0.66140469209E+01
 0.68661000189E+01 0.70708629223E+01 0.72141959595E+01 0.70570727320E+01 0.70229418079E+01
 0.69224060014E+01 0.67613769083E+01 0.65478168670E+01 0.62926725953E+01 0.60093367912E+01
 0.57127007102E+01 0.54121845343E+01 0.51209474911E+01 0.48443571298E+01 0.45906799991E+01
 0.43662598925E+01 0.41705079341E+01 0.40085187305E+01 0.38815116371E+01 0.37912068959E+01
 0.37366774880E+01 0.37187867247E+01 0.37366774880E+01 0.37912068959E+01 0.38815116371E+01
 0.40085187305E+01 0.41705079341E+01 0.43662598925E+01 0.45906799991E+01 0.48443571298E+01
 0.51209474911E+01 0.54121845343E+01 0.57127007102E+01 0.60093367912E+01 0.62926725953E+01
 0.65478168670E+01 0.67613769083E+01 0.69224060014E+01 0.70229418079E+01 0.72865582302E+01
 0.72141959595E+01 0.70708629223E+01 0.68661000189E+01 0.66140469209E+01 0.63288019627E+01
 0.60227857706E+01 0.57066643889E+01 0.53949361509E+01 0.50958338627E+01 0.48155867389E+01
 0.45630113760E+01 0.43406517969E+01 0.41502504493E+01 0.39936911651E+01 0.38737025398E+01
 0.37907452810E+01 0.37451222914E+01 0.37366774880E+01 0.37657491214E+01 0.38324126794E+01
 0.39371842087E+01 0.40800605161E+01 0.42608406338E+01 0.44768353322E+01 0.47253387546E+01
 0.50034163185E+01 0.53073421606E+01 0.56269347423E+01 0.59518475754E+01 0.62705719452E+01
 0.65683711706E+01 0.68322468031E+01 0.70475100224E+01 0.72009852104E+01 0.72821395150E+01
 0.79872623906E+01 0.78671643600E+01 0.76619636336E+01 0.73864771627E+01 0.70565939543E+01
 0.66914697355E+01 0.63113884079E+01 0.59352988296E+01 0.55698746273E+01 0.52285474539E+01
 0.49171242438E+01 0.46382655259E+01 0.43995703637E+01 0.41976814698E+01 0.40352961109E+01
 0.39127072338E+01 0.38315517420E+01 0.37907452810E+01 0.37912068959E+01 0.38324126794E+01
 0.39158138240E+01 0.40414308028E+01 0.42110075260E+01 0.44237302531E+01 0.46791672715E+01
 0.49734241624E+01 0.53068857055E+01 0.56721397711E+01 0.60571552024E+01 0.64545928477E+01
 0.68455209526E+01 0.72104377433E+01 0.75266751041E+01 0.77753533278E+01 0.79407803216E+01
 0.80129596376E+01 0.92962256880E+01 0.91063865136E+01 0.87975780750E+01 0.83940793862E+01
 0.79274859356E+01 0.74284729089E+01 0.69202719646E+01 0.64220493744E+01 0.59569982280E+01
 0.55322739716E+01 0.51527431590E+01 0.48228893522E+01 0.45433365341E+01 0.43145701648E+01
 0.41329156053E+01 0.39992238354E+01 0.39127072338E+01 0.38737025398E+01 0.38815116371E+01
 0.39371842087E+01 0.40414308028E+01 0.41965332086E+01 0.44039783926E+01 0.46657140122E+01
 0.49813363936E+01 0.53517788009E+01 0.57758323798E+01 0.62472118213E+01 0.67563779753E+01
 0.72828864636E+01 0.78029449766E+01 0.82913675612E+01 0.87180970579E+01 0.90524220863E+01
 0.92690266333E+01 0.93520524626E+01 0.11550132256E+02 0.11015356564E+02 0.10581030624E+02
 0.10017744362E+02 0.93574705804E+01 0.86410206782E+01 0.79185648559E+01 0.72322131412E+01
 0.65969358237E+01 0.60308246002E+01 0.55424679948E+01 0.51248069129E+01 0.47797905093E+01
 0.45023272141E+01 0.42882471522E+01 0.41329156053E+01 0.40352961109E+01 0.39936911651E+01
 0.40085187305E+01 0.40800605161E+01 0.42110075260E+01 0.44039783926E+01 0.46636152197E+01
 0.49932856954E+01 0.53980882280E+01 0.58814602863E+01 0.64475302951E+01 0.70879892024E+01
 0.77849057032E+01 0.85198859078E+01 0.92525101634E+01 0.99332346476E+01 0.10518350657E+02
 0.11198349918E+02 0.11533408605E+02 0.11654989371E+02 0.15195405221E+02 0.14681790065E+02
 0.13877474455E+02 0.12863632283E+02 0.11732074083E+02 0.10420709773E+02 0.94182809347E+01
 0.84424611713E+01 0.75540568271E+01 0.67749898474E+01 0.61102785876E+01 0.55636109185E+01
 0.51176114477E+01 0.47677102000E+01 0.45023272141E+01 0.43145701648E+01 0.41976814698E+01
 0.41502504493E+01 0.41705079341E+01 0.42608406338E+01 0.44237302531E+01 0.46657140122E+01
 0.49932856954E+01 0.54168059540E+01 0.59463806305E+01 0.65959137474E+01 0.73670073748E+01
 0.82497208953E+01 0.92268238549E+01 0.10240958014E+02 0.11562506331E+02 0.12713757463E+02
 0.13755304859E+02 0.14595768220E+02 0.15151018532E+02 0.15358726561E+02 0.21084143202E+02
 0.20229556559E+02 0.18884130030E+02 0.17212070603E+02 0.15387285934E+02 0.13558865018E+02
 0.11827155348E+02 0.10136942337E+02 0.89050804324E+01 0.78168042559E+01 0.69047730174E+01
 0.61597262156E+01 0.55731962958E+01 0.51176114477E+01 0.47797905093E+01 0.45433365341E+01
 0.43995703637E+01 0.43406517969E+01 0.43662598925E+01 0.44768353322E+01 0.46791672715E+01
 0.49813363936E+01 0.53980882280E+01 0.59463806305E+01 0.66504287862E+01 0.75257471064E+01
 0.85764494008E+01 0.97859217439E+01 0.11415099299E+02 0.13124210054E+02 0.14952104002E+02
 0.16803874953E+02 0.18535722873E+02 0.19972911238E+02 0.20947827162E+02 0.21335325264E+02
 0.30744340200E+02 0.29304284293E+02 0.27009524722E+02 0.24167141609E+02 0.21102128903E+02
 0.18092999901E+02 0.15339914376E+02 0.12943267260E+02 0.10921415657E+02 0.92205785959E+01
 0.79642159692E+01 0.69520750720E+01 0.61597262156E+01 0.55636109185E+01 0.51248069129E+01
 0.48228893522E+01 0.46382655259E+01 0.45630113760E+01 0.45906799991E+01 0.47253387546E+01
 0.49734241624E+01 0.53517788009E+01 0.58814602863E+01 0.65959137474E+01 0.75257471064E+01
 0.86937463942E+01 0.10094893430E+02 0.12144264682E+02 0.14415865935E+02 0.17064503257E+02
 0.20014363016E+02 0.23096927936E+02 0.26058327555E+02 0.28586090317E+02 0.30356758847E+02
 0.31114561294E+02 0.46693678267E+02 0.44226428765E+02 0.40231860592E+02 0.35311095899E+02
 0.30089768797E+02 0.25074415462E+02 0.20591466404E+02 0.16795901996E+02 0.13719598438E+02
 0.11282783500E+02 0.93322553739E+01 0.79642159692E+01 0.69047730174E+01 0.61102785876E+01
 0.55424679948E+01 0.51527431590E+01 0.49171242438E+01 0.48155867389E+01 0.48443571298E+01
 0.50034163185E+01 0.53068857055E+01 0.57758323798E+01 0.64475302951E+01 0.73670073748E+01
 0.85764494008E+01 0.10094893430E+02 0.12408088294E+02 0.15157286524E+02 0.18606832690E+02
 0.22768396940E+02 0.27560787521E+02 0.32743425953E+02 0.37893934030E+02 0.42426441078E+02
 0.45710869133E+02 0.47218482438E+02 0.73104799794E+02 0.68865545377E+02 0.61854874577E+02
 0.53247026229E+02 0.44236581165E+02 0.35768472787E+02 0.28410148249E+02 0.22375172480E+02
 0.17622908014E+02 0.13998811450E+02 0.11282783500E+02 0.92205785959E+01 0.78168042559E+01
 0.67749898474E+01 0.60308246002E+01 0.55322739716E+01 0.52285474539E+01 0.50958338627E+01
 0.51209474911E+01 0.53073421606E+01 0.56721397711E+01 0.62472118213E+01 0.70879892024E+01
 0.82497208953E+01 0.97859217439E+01 0.12144264682E+02 0.15157286524E+02 0.19174681954E+02
 0.24376916190E+02 0.30907212418E+02 0.38715216310E+02 0.47472098564E+02 0.56466007217E+02
 0.64644217142E+02 0.70774429017E+02 0.73786382036E+02 0.11628671687E+03 0.10907896277E+03
 0.96850880432E+02 0.81840119974E+02 0.66327873799E+02 0.52047253070E+02 0.39959072031E+02
 0.30340090430E+02 0.23025178054E+02 0.17622908014E+02 0.13719598438E+02 0.10921415657E+02
 0.89050804324E+01 0.75540568271E+01 0.65969358237E+01 0.59569982280E+01 0.55698746273E+01
 0.53949361509E+01 0.54121845343E+01 0.56269347423E+01 0.60571552024E+01 0.67563779753E+01
 0.77849057032E+01 0.92268238549E+01 0.11415099299E+02 0.14415865935E+02 0.18606832690E+02
 0.24376916190E+02 0.32159335420E+02 0.42300857384E+02 0.54902141716E+02 0.69557263140E+02
 0.85139057297E+02 0.99761388907E+02 0.11109656741E+03 0.11700966017E+03 0.18425044191E+03
 0.17251442882E+03 0.15186969334E+03 0.12632396272E+03 0.10007397419E+03 0.76304757878E+02
 0.56671747786E+02 0.41511028641E+02 0.30340090430E+02 0.22375172480E+02 0.16795901996E+02
 0.12943267260E+02 0.10136942337E+02 0.84424611713E+01 0.72322131412E+01 0.64220493744E+01
 0.59352988296E+01 0.57066643889E+01 0.57127007102E+01 0.59518475754E+01 0.64545928477E+01
 0.72828864636E+01 0.85198859078E+01 0.10240958014E+02 0.13124210054E+02 0.17064503257E+02
 0.22768396940E+02 0.30907212418E+02 0.42300857384E+02 0.57731001802E+02 0.77643180118E+02
 0.10162920882E+03 0.12794453775E+03 0.15331729841E+03 0.17352432925E+03 0.18461278778E+03
 0.28190787193E+03 0.26476984447E+03 0.23276720620E+03 0.19192531873E+03 0.14944767262E+03
 0.11115265991E+03 0.80069936641E+02 0.56671747786E+02 0.39959072031E+02 0.28410148249E+02
 0.20591466404E+02 0.15339914376E+02 0.11827155348E+02 0.94182809347E+01 0.79185648559E+01
 0.69202719646E+01 0.63113884079E+01 0.60227857706E+01 0.60093367912E+01 0.62705719452E+01
 0.68455209526E+01 0.78029449766E+01 0.92525101634E+01 0.11562506331E+02 0.14952104002E+02
 0.20014363016E+02 0.27560787521E+02 0.38715216310E+02 0.54902141716E+02 0.77643180118E+02
 0.10802293516E+03 0.14575124605E+03 0.18805663894E+03 0.22933944315E+03 0.26242296609E+03
 0.28107684731E+03 0.39460649768E+03 0.37605766068E+03 0.33612452496E+03 0.27937736616E+03
 0.21644890482E+03 0.15827778526E+03 0.11115265991E+03 0.76304757878E+02 0.52047253070E+02
 0.35768472787E+02 0.25074415462E+02 0.18092999901E+02 0.13558865018E+02 0.10420709773E+02
 0.86410206782E+01 0.74284729089E+01 0.66914697355E+01 0.63288019627E+01 0.62926725953E+01
 0.65683711706E+01 0.72104377433E+01 0.82913675612E+01 0.99332346476E+01 0.12713757463E+02
 0.16803874953E+02 0.23096927936E+02 0.32743425953E+02 0.47472098564E+02 0.69557263140E+02
 0.10162920882E+03 0.14575124605E+03 0.20161207798E+03 0.26426524066E+03 0.32361187746E+03
 0.36831060831E+03 0.39208796678E+03 0.45400574295E+03 0.45234069584E+03 0.43075247442E+03
 0.37539498396E+03 0.29674096412E+03 0.21644890482E+03 0.14944767262E+03 0.10007397419E+03
 0.66327873799E+02 0.44236581165E+02 0.30089768797E+02 0.21102128903E+02 0.15387285934E+02
 0.11732074083E+02 0.93574705804E+01 0.79274859356E+01 0.70565939543E+01 0.66140469209E+01
 0.65478168670E+01 0.68322468031E+01 0.75266751041E+01 0.87180970579E+01 0.10518350657E+02
 0.13755304859E+02 0.18535722873E+02 0.26058327555E+02 0.37893934030E+02 0.56466007217E+02
 0.85139057297E+02 0.12794453775E+03 0.18805663894E+03 0.26426524066E+03 0.34603249301E+03
 0.41293873874E+03 0.44747267375E+03 0.45421464581E+03 0.34266192635E+03 0.38646913549E+03
 0.44446938406E+03 0.44420544162E+03 0.37539498396E+03 0.27937736616E+03 0.19192531873E+03
 0.12632396272E+03 0.81840119974E+02 0.53247026229E+02 0.35311095899E+02 0.24167141609E+02
 0.17212070603E+02 0.12863632283E+02 0.10017744362E+02 0.83940793862E+01 0.73864771627E+01
 0.68661000189E+01 0.67613769083E+01 0.70475100224E+01 0.77753533278E+01 0.90524220863E+01
 0.11198349918E+02 0.14595768220E+02 0.19972911238E+02 0.28586090317E+02 0.42426441078E+02
 0.64644217142E+02 0.99761388907E+02 0.15331729841E+03 0.22933944315E+03 0.32361187746E+03
 0.41293873874E+03 0.45413328931E+03 0.42158372095E+03 0.36040245982E+03 0.26615692922E+03
 0.22649656297E+03 0.32899460632E+03 0.44446938406E+03 0.43075247442E+03 0.33612452496E+03
 0.23276720620E+03 0.15186969334E+03 0.96850880432E+02 0.61854874577E+02 0.40231860592E+02
 0.27009524722E+02 0.18884130030E+02 0.13877474455E+02 0.10581030624E+02 0.87975780750E+01
 0.76619636336E+01 0.70708629223E+01 0.69224060014E+01 0.72009852104E+01 0.79407803216E+01
 0.92690266333E+01 0.11533408605E+02 0.15151018532E+02 0.20947827162E+02 0.30356758847E+02
 0.45710869133E+02 0.70774429017E+02 0.11109656741E+03 0.17352432925E+03 0.26242296609E+03
 0.36831060831E+03 0.44747267375E+03 0.42158372095E+03 0.28409833849E+03 0.23116904515E+03
 0.16969998655E+04 0.73501290913E+03 0.22649656297E+03 0.38646913549E+03 0.45234069584E+03
 0.37605766068E+03 0.26476984447E+03 0.17251442882E+03 0.10907896277E+03 0.68865545377E+02
 0.44226428765E+02 0.29304284293E+02 0.20229556559E+02 0.14681790065E+02 0.11015356564E+02
 0.91063865136E+01 0.78671643600E+01 0.72141959595E+01 0.70229418079E+01 0.72821395150E+01
 0.80129596376E+01 0.93520524626E+01 0.11654989371E+02 0.15358726561E+02 0.21335325264E+02
 0.31114561294E+02 0.47218482438E+02 0.73786382036E+02 0.11700966017E+03 0.18461278778E+03
 0.28107684731E+03 0.39208796678E+03 0.45421464581E+03 0.36040245982E+03 0.23116904515E+03
 0.91565675009E+03 0.17784864134E+04 0.86205750805E+03 0.22719988887E+03 0.37201621936E+03
 0.45382770310E+03 0.38484752812E+03 0.27343304387E+03 0.17883806907E+03 0.11318503743E+03
 0.71394711063E+02 0.45758105835E+02 0.30228683058E+02 0.20792926318E+02 0.15027337934E+02
 0.11447959190E+02 0.92337744424E+01 0.79430627804E+01 0.72515844085E+01 0.70256160813E+01
 0.72515844085E+01 0.79430627804E+01 0.92337744424E+01 0.11447959190E+02 0.15027337934E+02
 0.20792926318E+02 0.30228683058E+02 0.45758105835E+02 0.71394711063E+02 0.11318503743E+03
 0.17883806907E+03 0.27343304387E+03 0.38484752812E+03 0.45382770310E+03 0.37201621936E+03
 0.22719988887E+03 0.86205750805E+03 0.86205750805E+03 0.48054345034E+03 0.23016485650E+03
 0.38701088581E+03 0.45308962609E+03 0.38228647386E+03 0.27262420724E+03 0.17918808769E+03
 0.11388394171E+03 0.72055274934E+02 0.46268242971E+02 0.30590012470E+02 0.21038527802E+02
 0.15187454016E+02 0.11550630230E+02 0.92887913223E+01 0.79682810183E+01 0.72472054276E+01
 0.69919324667E+01 0.71801480513E+01 0.78245292883E+01 0.90461480821E+01 0.10931024502E+02
 0.14523533525E+02 0.19956556596E+02 0.28823587106E+02 0.43358365062E+02 0.67284596431E+02
 0.10621700168E+03 0.16750155887E+03 0.25677508733E+03 0.36611398410E+03 0.44871856631E+03
 0.40827973453E+03 0.24425479140E+03 0.40046675381E+03 0.22719988887E+03 0.23016485650E+03
 0.31881030643E+03 0.43523427324E+03 0.44196265664E+03 0.35836474248E+03 0.25449622987E+03
 0.16847675221E+03 0.10816768999E+03 0.69135501622E+02 0.44801920371E+02 0.29850158545E+02
 0.20659449160E+02 0.14983512969E+02 0.11431300162E+02 0.92067694029E+01 0.78970194180E+01
 0.71668093020E+01 0.68924887211E+01 0.70384158780E+01 0.76220560927E+01 0.87412908768E+01
 0.10502949631E+02 0.13733471561E+02 0.18640142179E+02 0.26583480258E+02 0.39471786153E+02
 0.60483688480E+02 0.94389558294E+02 0.14756243814E+03 0.22574802361E+03 0.32646829685E+03
 0.42266864501E+03 0.45062940119E+03 0.36016100795E+03 0.24425479140E+03 0.37201621936E+03
 0.38701088581E+03 0.43523427324E+03 0.45246120819E+03 0.40371628944E+03 0.31417010948E+03
 0.22243097244E+03 0.14896048048E+03 0.97205577898E+02 0.63189739266E+02 0.41607436438E+02
 0.28122280266E+02 0.19705254542E+02 0.14438578846E+02 0.10890206718E+02 0.89925422635E+01
 0.77335857701E+01 0.70150626595E+01 0.67332827066E+01 0.68360603457E+01 0.73498427731E+01
 0.83429701645E+01 0.99465074808E+01 0.12737293557E+02 0.17002734913E+02 0.23806471474E+02
 0.34679866507E+02 0.52126138749E+02 0.79858184842E+02 0.12288502081E+03 0.18625227104E+03
 0.27097013383E+03 0.36544936389E+03 0.43793708138E+03 0.45062940119E+03 0.40827973453E+03
 0.45382770310E+03 0.45308962609E+03 0.44196265664E+03 0.40371628944E+03 0.33624470682E+03
 0.25628514403E+03 0.18251523133E+03 0.12445076279E+03 0.83052932974E+02 0.55252102551E+02
 0.37195470269E+02 0.25653681838E+02 0.18298675439E+02 0.13612916515E+02 0.10440972990E+02
 0.86624526262E+01 0.74879609470E+01 0.68021816752E+01 0.65219080246E+01 0.65869374316E+01
 0.70238696597E+01 0.78827854597E+01 0.92937802283E+01 0.11624877147E+02 0.15214271751E+02
 0.20809330991E+02 0.29588853121E+02 0.43367450748E+02 0.64822430087E+02 0.97507437599E+02
 0.14522251028E+03 0.20995816733E+03 0.28788327035E+03 0.36544936389E+03 0.42266864501E+03
 0.44871856631E+03 0.38484752812E+03 0.38228647386E+03 0.35836474248E+03 0.31417010948E+03
 0.25628514403E+03 0.19561387504E+03 0.14165195893E+03 0.99012064317E+02 0.67954532429E+02
 0.46514048458E+02 0.32176731724E+02 0.22759708166E+02 0.16602278426E+02 0.12589598484E+02
 0.98626728493E+01 0.82411935639E+01 0.71752306450E+01 0.65415100442E+01 0.62693297386E+01
 0.63050064654E+01 0.66626949361E+01 0.73902174965E+01 0.85858748242E+01 0.10343922855E+02
 0.13419367753E+02 0.17864512263E+02 0.24692069224E+02 0.35124766151E+02 0.50959682720E+02
 0.74494554623E+02 0.10822174513E+03 0.15374981760E+03 0.20995816733E+03 0.27097013383E+03
 0.32646829685E+03 0.36611398410E+03 0.27343304387E+03 0.27262420724E+03 0.25449622987E+03
 0.22243097244E+03 0.18251523133E+03 0.14165195893E+03 0.10519565828E+03 0.75791921828E+02
 0.53732784737E+02 0.37994615326E+02 0.27120266526E+02 0.19744828499E+02 0.14786517375E+02
 0.11457985804E+02 0.91898505147E+01 0.77596175572E+01 0.68145260354E+01 0.62471094308E+01
 0.59889190099E+01 0.60022859835E+01 0.62873072089E+01 0.68881949314E+01 0.78730982040E+01
 0.93531288198E+01 0.11717584187E+02 0.15166401163E+02 0.20309453848E+02 0.27948851443E+02
 0.39205205344E+02 0.55450904459E+02 0.78142893772E+02 0.10822174513E+03 0.14522251028E+03
 0.18625227104E+03 0.22574802361E+03 0.25677508733E+03 0.17883806907E+03 0.17918808769E+03
 0.16847675221E+03 0.14896048048E+03 0.12445076279E+03 0.99012064317E+02 0.75791921828E+02
 0.56479008761E+02 0.41484996555E+02 0.30385282863E+02 0.22438251771E+02 0.16856344269E+02
 0.12992370475E+02 0.10166371398E+02 0.84658890930E+01 0.72457765135E+01 0.64279893768E+01
 0.59317860427E+01 0.56953000140E+01 0.56892648993E+01 0.59150909150E+01 0.63956880239E+01
 0.71956802169E+01 0.83894377997E+01 0.10063024531E+02 0.12814201600E+02 0.16592840977E+02
 0.22053597850E+02 0.29831343053E+02 0.40716148249E+02 0.55450904459E+02 0.74494554623E+02
 0.97507437599E+02 0.12288502081E+03 0.14756243814E+03 0.16750155887E+03 0.11318503743E+03
 0.11388394171E+03 0.10816768999E+03 0.97205577898E+02 0.83052932974E+02 0.67954532429E+02
 0.53732784737E+02 0.41484996555E+02 0.31606060462E+02 0.24010389603E+02 0.18366800634E+02
 0.14260030088E+02 0.11312325673E+02 0.91638891669E+01 0.77413063004E+01 0.67261651304E+01
 0.60358187990E+01 0.56105744083E+01 0.53982236316E+01 0.53812552603E+01 0.55539846538E+01
 0.59364677446E+01 0.65677195733E+01 0.75128163689E+01 0.88457992619E+01 0.10611776002E+02
 0.13576190643E+02 0.17402590318E+02 0.22688907957E+02 0.29831343053E+02 0.39205205344E+02
 0.50959682720E+02 0.64822430087E+02 0.79858184842E+02 0.94389558294E+02 0.10621700168E+03
 0.71394711063E+02 0.72055274934E+02 0.69135501622E+02 0.63189739266E+02 0.55252102551E+02
 0.46514048458E+02 0.37994615326E+02 0.30385282863E+02 0.24010389603E+02 0.18922649007E+02