 vasp.5.4.4.18Apr17-6-g9f103f2a35 (build Apr 28 2018 00:24:27) complex          
  
 executed on             LinuxIFC date 2021.03.19  23:54:46
 running on    8 total cores
 distrk:  each k-point on    8 cores,    1 groups
 distr:  one band on NCORES_PER_BAND=   4 cores,    2 groups


--------------------------------------------------------------------------------------------------------


 INCAR:
 POTCAR:    PAW_PBE Co 02Aug2007                  
 POTCAR:    PAW_PBE Co 02Aug2007                  
   SHA256 =  0e690c60710354995174544f52f9f2c30879afabeffe3b3fbd4001cb294e56d4 Co
   COPYR  = (c) Copyright 02Aug2007 Georg Kresse                                
   COPYR  = This file is part of the software VASP. Any use, copying, and all ot
   COPYR  = If you do not have a valid VASP license, you may not use, copy or di
   VRHFIN =Co: d8 s1                                                            
   LEXCH  = PE                                                                  
   EATOM  =   813.3670 eV,   59.7808 Ry                                         
                                                                                
   TITEL  = PAW_PBE Co 02Aug2007                                                
   LULTRA =        F    use ultrasoft PP ?                                      
   IUNSCR =        1    unscreen: 0-lin 1-nonlin 2-no                           
   RPACOR =    2.000    partial core radius                                     
   POMASS =   58.933; ZVAL   =    9.000    mass and valenz                      
   RCORE  =    2.300    outmost cutoff radius                                   
   RWIGS  =    2.460; RWIGS  =    1.302    wigner-seitz radius (au A)           
   ENMAX  =  267.968; ENMIN  =  200.976 eV                                      
   RCLOC  =    1.203    cutoff for local pot                                    
   LCOR   =        T    correct aug charges                                     
   LPAW   =        T    paw PP                                                  
   EAUG   =  477.818                                                            
   DEXC   =    0.000                                                            
   RMAX   =    2.360    core radius for proj-oper                               
   RAUG   =    1.300    factor for augmentation sphere                          
   RDEP   =    2.393    radius for radial grids                                 
   RDEPT  =    1.864    core radius for aug-charge                              
                                                                                
   Atomic configuration                                                         
    9 entries                                                                   
     n  l   j            E        occ.                                          
     1  0  0.50     -7587.6674   2.0000                                         
     2  0  0.50      -893.6084   2.0000                                         
     2  1  1.50      -764.5805   6.0000                                         
     3  0  0.50       -97.5973   2.0000                                         
     3  1  1.50       -60.9648   6.0000                                         
     3  2  2.50        -4.2382   8.0000                                         
     4  0  0.50        -4.3746   1.0000                                         
     4  1  1.50        -4.0817   0.0000                                         
     4  3  2.50        -1.3606   0.0000                                         
   Description                                                                  
     l       E           TYP  RCUT    TYP  RCUT                                 
     2     -4.2382362     23  2.300                                             
     2     -5.5988188     23  2.300                                             
     0     -4.3745797     23  2.300                                             
     0      5.7660125     23  2.300                                             
     1     -2.7211652     23  2.300                                             
     1     16.9860234     23  2.300                                             
  local pseudopotential read in
  partial core-charges read in
  partial kinetic energy density read in
  atomic valenz-charges read in
  non local Contribution for L=           2  read in
    real space projection operators read in
  non local Contribution for L=           2  read in
    real space projection operators read in
  non local Contribution for L=           0  read in
    real space projection operators read in
  non local Contribution for L=           0  read in
    real space projection operators read in
  non local Contribution for L=           1  read in
    real space projection operators read in
  non local Contribution for L=           1  read in
    real space projection operators read in
    PAW grid and wavefunctions read in
 
   number of l-projection  operators is LMAX  =           6
   number of lm-projection operators is LMMAX =          18
 
  PAW_PBE Co 02Aug2007                  :
 energy of atom  1       EATOM= -813.3670
 kinetic energy error for atom=    0.0028 (will be added to EATOM!!)
 
 
 POSCAR: Co2 str #: 7                            
  positions in direct lattice
  No initial velocities read in
 exchange correlation table for  LEXCH =        8
   RHO(1)=    0.500       N(1)  =     2000
   RHO(2)=  100.500       N(2)  =     4000
 


--------------------------------------------------------------------------------------------------------


 ion  position               nearest neighbor table
   1  1.000  0.750  0.333-   2 2.47   4 2.47   2 2.47   4 2.47   2 2.47   2 2.47   3 2.49   3 2.49
                             3 2.49   3 2.49
   2  0.500  0.250  0.167-   1 2.47   3 2.47   1 2.47   3 2.47   1 2.47   1 2.47   4 2.49   4 2.49
                             4 2.49   4 2.49
   3  0.500  0.750  0.833-   4 2.47   2 2.47   4 2.47   2 2.47   4 2.47   4 2.47   1 2.49   1 2.49
                             1 2.49   1 2.49
   4  0.000  0.250  0.667-   3 2.47   1 2.47   3 2.47   1 2.47   3 2.47   3 2.47   2 2.49   2 2.49
                             2 2.49   2 2.49
 
  LATTYP: Found a simple orthorhombic cell.
 ALAT       =     2.4918165332
 B/A-ratio  =     1.6115142293
 C/A-ratio  =     1.7320511166
  
  Lattice vectors:
  
 A1 = (  -1.2459083000,   2.1579764000,   0.0000000000)
 A2 = (   0.0000000000,   0.0000000000,   4.0155978000)
 A3 = (   3.7377257000,   2.1579764000,   0.0000000000)


Analysis of symmetry for initial positions (statically):
=====================================================================
 Subroutine PRICEL returns following result:
 
  LATTYP: Found a hexagonal cell.
 ALAT       =     2.4918139915
 C/A-ratio  =     1.6115158730
  
  Lattice vectors:
  
 A1 = (  -1.2459070292,   2.1579741989,   0.0000000000)
 A2 = (   2.4918163646,   0.0000011006,   0.0000000000)
 A3 = (   0.0000000000,   0.0000000000,  -4.0155978000)
 
   2 primitive cells build up your supercell.
 

 Routine SETGRP: Setting up the symmetry group for a 
 simple orthorhombic supercell.


 Subroutine GETGRP returns: Found  8 space group operations
 (whereof  4 operations were pure point group operations)
 out of a pool of  8 trial point group operations.


The static configuration has the point symmetry C_2h.
 The point group associated with its full space group is D_2h.


Analysis of symmetry for dynamics (positions and initial velocities):
=====================================================================
 Subroutine PRICEL returns following result:
 
  LATTYP: Found a hexagonal cell.
 ALAT       =     2.4918139915
 C/A-ratio  =     1.6115158730
  
  Lattice vectors:
  
 A1 = (  -1.2459070292,   2.1579741989,   0.0000000000)
 A2 = (   2.4918163646,   0.0000011006,   0.0000000000)
 A3 = (   0.0000000000,   0.0000000000,  -4.0155978000)
 
   2 primitive cells build up your supercell.
 

 Routine SETGRP: Setting up the symmetry group for a 
 simple orthorhombic supercell.


 Subroutine GETGRP returns: Found  8 space group operations
 (whereof  4 operations were pure point group operations)
 out of a pool of  8 trial point group operations.


The dynamic configuration has the point symmetry C_2h.
 The point group associated with its full space group is D_2h.


Analysis of structural, dynamic, and magnetic symmetry:
=====================================================================
 Subroutine PRICEL returns following result:
 
  LATTYP: Found a hexagonal cell.
 ALAT       =     2.4918139915
 C/A-ratio  =     1.6115158730
  
  Lattice vectors:
  
 A1 = (  -1.2459070292,   2.1579741989,   0.0000000000)
 A2 = (   2.4918163646,   0.0000011006,   0.0000000000)
 A3 = (   0.0000000000,   0.0000000000,  -4.0155978000)
 
   2 primitive cells build up your supercell.
 

 Routine SETGRP: Setting up the symmetry group for a 
 simple orthorhombic supercell.


 Subroutine GETGRP returns: Found  8 space group operations
 (whereof  4 operations were pure point group operations)
 out of a pool of  8 trial point group operations.


The magnetic configuration has the point symmetry C_2h.
 The point group associated with its full space group is D_2h.


 Subroutine INISYM returns: Found  8 space group operations
 (whereof  4 operations are pure point group operations),
 and found     2 'primitive' translations

 
 
 KPOINTS: pymatgen v2021.2.8.1 with grid density =

Automatic generation of k-mesh.
Space group operators:
 irot       det(A)        alpha          n_x          n_y          n_z        tau_x        tau_y        tau_z
    1     1.000000     0.000000     1.000000     0.000000     0.000000     0.000000     0.000000     0.000000
    2    -1.000000     0.000000     1.000000     0.000000     0.000000     0.000000     0.000000     0.000000
    3     1.000000   180.000000     0.500000    -0.866025     0.000000     0.000000     0.000000     0.000000
    4    -1.000000   180.000000     0.500000    -0.866025     0.000000     0.000000     0.000000     0.000000
    5     1.000000   180.000000     0.866025     0.500000     0.000000     0.000000    -0.500000     0.000000
    6    -1.000000   180.000000     0.866025     0.500000     0.000000     0.000000    -0.500000     0.000000
    7     1.000000   180.000000     0.000000     0.000000     1.000000     0.000000    -0.500000     0.000000
    8    -1.000000   180.000000     0.000000     0.000000     1.000000     0.000000    -0.500000     0.000000
 
 Subroutine IBZKPT returns following result:
 ===========================================
 
 Found    144 irreducible k-points:
 
 Following reciprocal coordinates:
            Coordinates               Weight
  0.000000  0.000000  0.000000      1.000000
  0.100000  0.000000 -0.000000      2.000000
  0.200000  0.000000  0.000000      2.000000
  0.300000  0.000000  0.000000      2.000000
  0.400000  0.000000  0.000000      2.000000
  0.500000  0.000000  0.000000      1.000000
  0.000000  0.100000  0.000000      2.000000
  0.100000  0.100000 -0.000000      4.000000
  0.200000  0.100000  0.000000      4.000000
  0.300000  0.100000  0.000000      4.000000
  0.400000  0.100000  0.000000      4.000000
  0.500000  0.100000  0.000000      2.000000
  0.000000  0.200000  0.000000      2.000000
  0.100000  0.200000 -0.000000      4.000000
  0.200000  0.200000  0.000000      4.000000
  0.300000  0.200000  0.000000      4.000000
  0.400000  0.200000  0.000000      4.000000
  0.500000  0.200000  0.000000      2.000000
  0.000000  0.300000  0.000000      2.000000
  0.100000  0.300000 -0.000000      4.000000
  0.200000  0.300000  0.000000      4.000000
  0.300000  0.300000  0.000000      4.000000
  0.400000  0.300000  0.000000      4.000000
  0.500000  0.300000  0.000000      2.000000
  0.000000  0.400000  0.000000      2.000000
  0.100000  0.400000 -0.000000      4.000000
  0.200000  0.400000  0.000000      4.000000
  0.300000  0.400000  0.000000      4.000000
  0.400000  0.400000  0.000000      4.000000
  0.500000  0.400000  0.000000      2.000000
  0.000000  0.500000  0.000000      1.000000
  0.100000  0.500000 -0.000000      2.000000
  0.200000  0.500000  0.000000      2.000000
  0.300000  0.500000  0.000000      2.000000
  0.400000  0.500000  0.000000      2.000000
  0.500000  0.500000  0.000000      1.000000
  0.000000  0.000000  0.166667      2.000000
  0.100000  0.000000  0.166667      4.000000
  0.200000  0.000000  0.166667      4.000000
  0.300000  0.000000  0.166667      4.000000
  0.400000  0.000000  0.166667      4.000000
  0.500000  0.000000  0.166667      2.000000
  0.000000  0.100000  0.166667      4.000000
  0.100000  0.100000  0.166667      8.000000
  0.200000  0.100000  0.166667      8.000000
  0.300000  0.100000  0.166667      8.000000
  0.400000  0.100000  0.166667      8.000000
  0.500000  0.100000  0.166667      4.000000
  0.000000  0.200000  0.166667      4.000000
  0.100000  0.200000  0.166667      8.000000
  0.200000  0.200000  0.166667      8.000000
  0.300000  0.200000  0.166667      8.000000
  0.400000  0.200000  0.166667      8.000000
  0.500000  0.200000  0.166667      4.000000
  0.000000  0.300000  0.166667      4.000000
  0.100000  0.300000  0.166667      8.000000
  0.200000  0.300000  0.166667      8.000000
  0.300000  0.300000  0.166667      8.000000
  0.400000  0.300000  0.166667      8.000000
  0.500000  0.300000  0.166667      4.000000
  0.000000  0.400000  0.166667      4.000000
  0.100000  0.400000  0.166667      8.000000
  0.200000  0.400000  0.166667      8.000000
  0.300000  0.400000  0.166667      8.000000
  0.400000  0.400000  0.166667      8.000000
  0.500000  0.400000  0.166667      4.000000
  0.000000  0.500000  0.166667      2.000000
  0.100000  0.500000  0.166667      4.000000
  0.200000  0.500000  0.166667      4.000000
  0.300000  0.500000  0.166667      4.000000
  0.400000  0.500000  0.166667      4.000000
  0.500000  0.500000  0.166667      2.000000
  0.000000  0.000000  0.333333      2.000000
  0.100000  0.000000  0.333333      4.000000
  0.200000  0.000000  0.333333      4.000000
  0.300000  0.000000  0.333333      4.000000
  0.400000  0.000000  0.333333      4.000000
  0.500000  0.000000  0.333333      2.000000
  0.000000  0.100000  0.333333      4.000000
  0.100000  0.100000  0.333333      8.000000
  0.200000  0.100000  0.333333      8.000000
  0.300000  0.100000  0.333333      8.000000
  0.400000  0.100000  0.333333      8.000000
  0.500000  0.100000  0.333333      4.000000
  0.000000  0.200000  0.333333      4.000000
  0.100000  0.200000  0.333333      8.000000
  0.200000  0.200000  0.333333      8.000000
  0.300000  0.200000  0.333333      8.000000
  0.400000  0.200000  0.333333      8.000000
  0.500000  0.200000  0.333333      4.000000
  0.000000  0.300000  0.333333      4.000000
  0.100000  0.300000  0.333333      8.000000
  0.200000  0.300000  0.333333      8.000000
  0.300000  0.300000  0.333333      8.000000
  0.400000  0.300000  0.333333      8.000000
  0.500000  0.300000  0.333333      4.000000
  0.000000  0.400000  0.333333      4.000000
  0.100000  0.400000  0.333333      8.000000
  0.200000  0.400000  0.333333      8.000000
  0.300000  0.400000  0.333333      8.000000
  0.400000  0.400000  0.333333      8.000000
  0.500000  0.400000  0.333333      4.000000
  0.000000  0.500000  0.333333      2.000000
  0.100000  0.500000  0.333333      4.000000
  0.200000  0.500000  0.333333      4.000000
  0.300000  0.500000  0.333333      4.000000
  0.400000  0.500000  0.333333      4.000000
  0.500000  0.500000  0.333333      2.000000
  0.000000  0.000000  0.500000      1.000000
  0.100000  0.000000  0.500000      2.000000
  0.200000  0.000000  0.500000      2.000000
  0.300000  0.000000  0.500000      2.000000
  0.400000  0.000000  0.500000      2.000000
  0.500000  0.000000  0.500000      1.000000
  0.000000  0.100000  0.500000      2.000000
  0.100000  0.100000  0.500000      4.000000
  0.200000  0.100000  0.500000      4.000000
  0.300000  0.100000  0.500000      4.000000
  0.400000  0.100000  0.500000      4.000000
  0.500000  0.100000  0.500000      2.000000
  0.000000  0.200000  0.500000      2.000000
  0.100000  0.200000  0.500000      4.000000
  0.200000  0.200000  0.500000      4.000000
  0.300000  0.200000  0.500000      4.000000
  0.400000  0.200000  0.500000      4.000000
  0.500000  0.200000  0.500000      2.000000
  0.000000  0.300000  0.500000      2.000000
  0.100000  0.300000  0.500000      4.000000
  0.200000  0.300000  0.500000      4.000000
  0.300000  0.300000  0.500000      4.000000
  0.400000  0.300000  0.500000      4.000000
  0.500000  0.300000  0.500000      2.000000
  0.000000  0.400000  0.500000      2.000000
  0.100000  0.400000  0.500000      4.000000
  0.200000  0.400000  0.500000      4.000000
  0.300000  0.400000  0.500000      4.000000
  0.400000  0.400000  0.500000      4.000000
  0.500000  0.400000  0.500000      2.000000
  0.000000  0.500000  0.500000      1.000000
  0.100000  0.500000  0.500000      2.000000
  0.200000  0.500000  0.500000      2.000000
  0.300000  0.500000  0.500000      2.000000
  0.400000  0.500000  0.500000      2.000000
  0.500000  0.500000  0.500000      1.000000
 
 Following cartesian coordinates:
            Coordinates               Weight
  0.000000  0.000000  0.000000      1.000000
 -0.020066  0.034755  0.000000      2.000000
 -0.040131  0.069510  0.000000      2.000000
 -0.060197  0.104264  0.000000      2.000000
 -0.080263  0.139019  0.000000      2.000000
 -0.100328  0.173774  0.000000      1.000000
  0.000000  0.000000  0.024903      2.000000
 -0.020066  0.034755  0.024903      4.000000
 -0.040131  0.069510  0.024903      4.000000
 -0.060197  0.104264  0.024903      4.000000
 -0.080263  0.139019  0.024903      4.000000
 -0.100328  0.173774  0.024903      2.000000
  0.000000  0.000000  0.049806      2.000000
 -0.020066  0.034755  0.049806      4.000000
 -0.040131  0.069510  0.049806      4.000000
 -0.060197  0.104264  0.049806      4.000000
 -0.080263  0.139019  0.049806      4.000000
 -0.100328  0.173774  0.049806      2.000000
  0.000000  0.000000  0.074709      2.000000
 -0.020066  0.034755  0.074709      4.000000
 -0.040131  0.069510  0.074709      4.000000
 -0.060197  0.104264  0.074709      4.000000
 -0.080263  0.139019  0.074709      4.000000
 -0.100328  0.173774  0.074709      2.000000
  0.000000  0.000000  0.099612      2.000000
 -0.020066  0.034755  0.099612      4.000000
 -0.040131  0.069510  0.099612      4.000000
 -0.060197  0.104264  0.099612      4.000000
 -0.080263  0.139019  0.099612      4.000000
 -0.100328  0.173774  0.099612      2.000000
  0.000000  0.000000  0.124514      1.000000
 -0.020066  0.034755  0.124514      2.000000
 -0.040131  0.069510  0.124514      2.000000
 -0.060197  0.104264  0.124514      2.000000
 -0.080263  0.139019  0.124514      2.000000
 -0.100328  0.173774  0.124514      1.000000
  0.033443  0.019308  0.000000      2.000000
  0.013377  0.054063  0.000000      4.000000
 -0.006689  0.088818  0.000000      4.000000
 -0.026754  0.123573  0.000000      4.000000
 -0.046820  0.158327  0.000000      4.000000
 -0.066886  0.193082  0.000000      2.000000
  0.033443  0.019308  0.024903      4.000000
  0.013377  0.054063  0.024903      8.000000
 -0.006689  0.088818  0.024903      8.000000
 -0.026754  0.123573  0.024903      8.000000
 -0.046820  0.158327  0.024903      8.000000
 -0.066886  0.193082  0.024903      4.000000
  0.033443  0.019308  0.049806      4.000000
  0.013377  0.054063  0.049806      8.000000
 -0.006689  0.088818  0.049806      8.000000
 -0.026754  0.123573  0.049806      8.000000
 -0.046820  0.158327  0.049806      8.000000
 -0.066886  0.193082  0.049806      4.000000
  0.033443  0.019308  0.074709      4.000000
  0.013377  0.054063  0.074709      8.000000
 -0.006689  0.088818  0.074709      8.000000
 -0.026754  0.123573  0.074709      8.000000
 -0.046820  0.158327  0.074709      8.000000
 -0.066886  0.193082  0.074709      4.000000
  0.033443  0.019308  0.099612      4.000000
  0.013377  0.054063  0.099612      8.000000
 -0.006689  0.088818  0.099612      8.000000
 -0.026754  0.123573  0.099612      8.000000
 -0.046820  0.158327  0.099612      8.000000
 -0.066886  0.193082  0.099612      4.000000
  0.033443  0.019308  0.124514      2.000000
  0.013377  0.054063  0.124514      4.000000
 -0.006689  0.088818  0.124514      4.000000
 -0.026754  0.123573  0.124514      4.000000
 -0.046820  0.158327  0.124514      4.000000
 -0.066886  0.193082  0.124514      2.000000
  0.066886  0.038616  0.000000      2.000000
  0.046820  0.073371  0.000000      4.000000
  0.026754  0.108126  0.000000      4.000000
  0.006689  0.142881  0.000000      4.000000
 -0.013377  0.177636  0.000000      4.000000
 -0.033443  0.212390  0.000000      2.000000
  0.066886  0.038616  0.024903      4.000000
  0.046820  0.073371  0.024903      8.000000
  0.026754  0.108126  0.024903      8.000000
  0.006689  0.142881  0.024903      8.000000
 -0.013377  0.177636  0.024903      8.000000
 -0.033443  0.212390  0.024903      4.000000
  0.066886  0.038616  0.049806      4.000000
  0.046820  0.073371  0.049806      8.000000
  0.026754  0.108126  0.049806      8.000000
  0.006689  0.142881  0.049806      8.000000
 -0.013377  0.177636  0.049806      8.000000
 -0.033443  0.212390  0.049806      4.000000
  0.066886  0.038616  0.074709      4.000000
  0.046820  0.073371  0.074709      8.000000
  0.026754  0.108126  0.074709      8.000000
  0.006689  0.142881  0.074709      8.000000
 -0.013377  0.177636  0.074709      8.000000
 -0.033443  0.212390  0.074709      4.000000
  0.066886  0.038616  0.099612      4.000000
  0.046820  0.073371  0.099612      8.000000
  0.026754  0.108126  0.099612      8.000000
  0.006689  0.142881  0.099612      8.000000
 -0.013377  0.177636  0.099612      8.000000
 -0.033443  0.212390  0.099612      4.000000
  0.066886  0.038616  0.124514      2.000000
  0.046820  0.073371  0.124514      4.000000
  0.026754  0.108126  0.124514      4.000000
  0.006689  0.142881  0.124514      4.000000
 -0.013377  0.177636  0.124514      4.000000
 -0.033443  0.212390  0.124514      2.000000
  0.100328  0.057925  0.000000      1.000000
  0.080263  0.092679  0.000000      2.000000
  0.060197  0.127434  0.000000      2.000000
  0.040131  0.162189  0.000000      2.000000
  0.020066  0.196944  0.000000      2.000000
  0.000000  0.231699  0.000000      1.000000
  0.100328  0.057925  0.024903      2.000000
  0.080263  0.092679  0.024903      4.000000
  0.060197  0.127434  0.024903      4.000000
  0.040131  0.162189  0.024903      4.000000
  0.020066  0.196944  0.024903      4.000000
  0.000000  0.231699  0.024903      2.000000
  0.100328  0.057925  0.049806      2.000000
  0.080263  0.092679  0.049806      4.000000
  0.060197  0.127434  0.049806      4.000000
  0.040131  0.162189  0.049806      4.000000
  0.020066  0.196944  0.049806      4.000000
  0.000000  0.231699  0.049806      2.000000
  0.100328  0.057925  0.074709      2.000000
  0.080263  0.092679  0.074709      4.000000
  0.060197  0.127434  0.074709      4.000000
  0.040131  0.162189  0.074709      4.000000
  0.020066  0.196944  0.074709      4.000000
  0.000000  0.231699  0.074709      2.000000
  0.100328  0.057925  0.099612      2.000000
  0.080263  0.092679  0.099612      4.000000
  0.060197  0.127434  0.099612      4.000000
  0.040131  0.162189  0.099612      4.000000
  0.020066  0.196944  0.099612      4.000000
  0.000000  0.231699  0.099612      2.000000
  0.100328  0.057925  0.124514      1.000000
  0.080263  0.092679  0.124514      2.000000
  0.060197  0.127434  0.124514      2.000000
  0.040131  0.162189  0.124514      2.000000
  0.020066  0.196944  0.124514      2.000000
  0.000000  0.231699  0.124514      1.000000
 
 TETIRR: Found   1800 inequivalent tetrahedra from     3600


--------------------------------------------------------------------------------------------------------




 Dimension of arrays:
   k-points           NKPTS =    144   k-points in BZ     NKDIM =    144   number of bands    NBANDS=     22
   number of dos      NEDOS =    301   number of ions     NIONS =      4
   non local maximal  LDIM  =      6   non local SUM 2l+1 LMDIM =     18
   total plane-waves  NPLWV =   8064
   max r-space proj   IRMAX =      1   max aug-charges    IRDMAX=   7563
   dimension x,y,z NGX =    14 NGY =   24 NGZ =   24
   dimension x,y,z NGXF=    28 NGYF=   48 NGZF=   48
   support grid    NGXF=    28 NGYF=   48 NGZF=   48
   ions per type =               4
   NGX,Y,Z   is equivalent  to a cutoff of   9.34,  9.94,  9.24 a.u.
   NGXF,Y,Z  is equivalent  to a cutoff of  18.68, 19.87, 18.49 a.u.

 SYSTEM =  "Co_hcp"                                
 POSCAR =  Co2 str #: 7                            

 Startparameter for this run:
   NWRITE =      2    write-flag & timer
   PREC   = normal    normal or accurate (medium, high low for compatibility)
   ISTART =      0    job   : 0-new  1-cont  2-samecut
   ICHARG =      2    charge: 1-file 2-atom 10-const
   ISPIN  =      2    spin polarized calculation?
   LNONCOLLINEAR =      F non collinear calculations
   LSORBIT =      F    spin-orbit coupling
   INIWAV =      1    electr: 0-lowe 1-rand  2-diag
   LASPH  =      F    aspherical Exc in radial PAW
   METAGGA=      F    non-selfconsistent MetaGGA calc.

 Electronic Relaxation 1
   ENCUT  =  520.0 eV  38.22 Ry    6.18 a.u.   4.63  7.47  8.02*2*pi/ulx,y,z
   ENINI  =  520.0     initial cutoff
   ENAUG  =  477.8 eV  augmentation charge cutoff
   NELM   =     60;   NELMIN=  2; NELMDL= -5     # of ELM steps 
   EDIFF  = 0.1E-05   stopping-criterion for ELM
   LREAL  =      F    real-space projection
   NLSPLINE    = F    spline interpolate recip. space projectors
   LCOMPAT=      F    compatible to vasp.4.4
   GGA_COMPAT  = T    GGA compatible to vasp.4.4-vasp.4.6
   LMAXPAW     = -100 max onsite density
   LMAXMIX     =    2 max onsite mixed and CHGCAR
   VOSKOWN=      0    Vosko Wilk Nusair interpolation
   ROPT   =    0.00000
 Ionic relaxation
   EDIFFG = 0.1E-04   stopping-criterion for IOM
   NSW    =      0    number of steps for IOM
   NBLOCK =      1;   KBLOCK =      1    inner block; outer block 
   IBRION =     -1    ionic relax: 0-MD 1-quasi-New 2-CG
   NFREE  =      1    steps in history (QN), initial steepest desc. (CG)
   ISIF   =      2    stress and relaxation
   IWAVPR =     10    prediction:  0-non 1-charg 2-wave 3-comb
   ISYM   =      2    0-nonsym 1-usesym 2-fastsym
   LCORR  =      T    Harris-Foulkes like correction to forces

   POTIM  = 0.5000    time-step for ionic-motion
   TEIN   =    0.0    initial temperature
   TEBEG  =    0.0;   TEEND  =   0.0 temperature during run
   SMASS  =  -3.00    Nose mass-parameter (am)
   estimated Nose-frequenzy (Omega)   =  0.10E-29 period in steps =****** mass=  -0.142E-27a.u.
   SCALEE = 1.0000    scale energy and forces
   NPACO  =    256;   APACO  = 16.0  distance and # of slots for P.C.
   PSTRESS=    0.0 pullay stress

  Mass of Ions in am
   POMASS =  58.93
  Ionic Valenz
   ZVAL   =   9.00
  Atomic Wigner-Seitz radii
   RWIGS  =  -1.00
  virtual crystal weights 
   VCA    =   1.00
   NELECT =      36.0000    total number of electrons
   NUPDOWN=      -1.0000    fix difference up-down

 DOS related values:
   EMIN   =  10.00;   EMAX   =-10.00  energy-range for DOS
   EFERMI =   0.00
   ISMEAR =    -5;   SIGMA  =   0.05  broadening in eV -4-tet -1-fermi 0-gaus

 Electronic relaxation 2 (details)
   IALGO  =     38    algorithm
   LDIAG  =      T    sub-space diagonalisation (order eigenvalues)
   LSUBROT=      F    optimize rotation matrix (better conditioning)
   TURBO    =      0    0=normal 1=particle mesh
   IRESTART =      0    0=no restart 2=restart with 2 vectors
   NREBOOT  =      0    no. of reboots
   NMIN     =      0    reboot dimension
   EREF     =   0.00    reference energy to select bands
   IMIX   =      4    mixing-type and parameters
     AMIX     =   0.40;   BMIX     =  1.00
     AMIX_MAG =   1.60;   BMIX_MAG =  1.00
     AMIN     =   0.10
     WC   =   100.;   INIMIX=   1;  MIXPRE=   1;  MAXMIX= -45

 Intra band minimization:
   WEIMIN = 0.0000     energy-eigenvalue tresh-hold
   EBREAK =  0.11E-07  absolut break condition
   DEPER  =   0.30     relativ break condition  

   TIME   =   0.40     timestep for ELM

  volume/ion in A,a.u.               =      10.80        72.86
  Fermi-wavevector in a.u.,A,eV,Ry     =   1.540735  2.911567 32.298391  2.373865
  Thomas-Fermi vector in A             =   2.646780
 
 Write flags
   LWAVE        =      F    write WAVECAR
   LDOWNSAMPLE  =      F    k-point downsampling of WAVECAR
   LCHARG       =      F    write CHGCAR
   LVTOT        =      F    write LOCPOT, total local potential
   LVHAR        =      F    write LOCPOT, Hartree potential only
   LELF         =      F    write electronic localiz. function (ELF)
   LORBIT       =     11    0 simple, 1 ext, 2 COOP (PROOUT), +10 PAW based schemes


 Dipole corrections
   LMONO  =      F    monopole corrections only (constant potential shift)
   LDIPOL =      F    correct potential (dipole corrections)
   IDIPOL =      0    1-x, 2-y, 3-z, 4-all directions 
   EPSILON=  1.0000000 bulk dielectric constant

 Exchange correlation treatment:
   GGA     =    --    GGA type
   LEXCH   =     8    internal setting for exchange type
   VOSKOWN=      0    Vosko Wilk Nusair interpolation
   LHFCALC =     F    Hartree Fock is set to
   LHFONE  =     F    Hartree Fock one center treatment
   AEXX    =    0.0000 exact exchange contribution

 Linear response parameters
   LEPSILON=     F    determine dielectric tensor
   LRPA    =     F    only Hartree local field effects (RPA)
   LNABLA  =     F    use nabla operator in PAW spheres
   LVEL    =     F    velocity operator in full k-point grid
   LINTERFAST=   F  fast interpolation
   KINTER  =     0    interpolate to denser k-point grid
   CSHIFT  =0.1000    complex shift for real part using Kramers Kronig
   OMEGAMAX=  -1.0    maximum frequency
   DEG_THRESHOLD= 0.2000000E-02 threshold for treating states as degnerate
   RTIME   =   -0.100 relaxation time in fs
  (WPLASMAI=    0.000 imaginary part of plasma frequency in eV, 0.658/RTIME)
   DFIELD  = 0.0000000 0.0000000 0.0000000 field for delta impulse in time
 
 Orbital magnetization related:
   ORBITALMAG=     F  switch on orbital magnetization
   LCHIMAG   =     F  perturbation theory with respect to B field
   DQ        =  0.001000  dq finite difference perturbation B field
   LLRAUG    =     F  two centre corrections for induced B field



--------------------------------------------------------------------------------------------------------


 Static calculation
 charge density and potential will be updated during run
 spin polarized calculation
 Variant of blocked Davidson
 Davidson routine will perform the subspace rotation
 perform sub-space diagonalisation
    after iterative eigenvector-optimisation
 modified Broyden-mixing scheme, WC =      100.0
 initial mixing is a Kerker type mixing with AMIX =  0.4000 and BMIX =      1.0000
 Hartree-type preconditioning will be used
 using additional bands            4
 reciprocal scheme for non local part
 use partial core corrections
 calculate Harris-corrections to forces 
   (improved forces if not selfconsistent)
 use gradient corrections 
 use of overlap-Matrix (Vanderbilt PP)
 Fermi weights with tetrahedron method with Bloechl corrections


--------------------------------------------------------------------------------------------------------


  energy-cutoff  :      520.00
  volume of cell :       43.19
      direct lattice vectors                 reciprocal lattice vectors
    -1.245908300  2.157976400  0.000000000    -0.200656790  0.347547842  0.000000000
     0.000000000  0.000000000  4.015597800     0.000000000  0.000000000  0.249028924
     3.737725700  2.157976400  0.000000000     0.200656790  0.115849256  0.000000000

  length of vectors
     2.491816533  4.015597800  4.315953609     0.401313655  0.249028924  0.231698505


 
 k-points in units of 2pi/SCALE and weight: pymatgen v2021.2.8.1 with grid density =
   0.00000000  0.00000000  0.00000000       0.002
  -0.02006568  0.03475478  0.00000000       0.003
  -0.04013136  0.06950957  0.00000000       0.003
  -0.06019704  0.10426435  0.00000000       0.003
  -0.08026272  0.13901914  0.00000000       0.003
  -0.10032839  0.17377392  0.00000000       0.002
   0.00000000  0.00000000  0.02490289       0.003
  -0.02006568  0.03475478  0.02490289       0.007
  -0.04013136  0.06950957  0.02490289       0.007
  -0.06019704  0.10426435  0.02490289       0.007
  -0.08026272  0.13901914  0.02490289       0.007
  -0.10032839  0.17377392  0.02490289       0.003
   0.00000000  0.00000000  0.04980578       0.003
  -0.02006568  0.03475478  0.04980578       0.007
  -0.04013136  0.06950957  0.04980578       0.007
  -0.06019704  0.10426435  0.04980578       0.007
  -0.08026272  0.13901914  0.04980578       0.007
  -0.10032839  0.17377392  0.04980578       0.003
   0.00000000  0.00000000  0.07470868       0.003
  -0.02006568  0.03475478  0.07470868       0.007
  -0.04013136  0.06950957  0.07470868       0.007
  -0.06019704  0.10426435  0.07470868       0.007
  -0.08026272  0.13901914  0.07470868       0.007
  -0.10032839  0.17377392  0.07470868       0.003
   0.00000000  0.00000000  0.09961157       0.003
  -0.02006568  0.03475478  0.09961157       0.007
  -0.04013136  0.06950957  0.09961157       0.007
  -0.06019704  0.10426435  0.09961157       0.007
  -0.08026272  0.13901914  0.09961157       0.007
  -0.10032839  0.17377392  0.09961157       0.003
   0.00000000  0.00000000  0.12451446       0.002
  -0.02006568  0.03475478  0.12451446       0.003
  -0.04013136  0.06950957  0.12451446       0.003
  -0.06019704  0.10426435  0.12451446       0.003
  -0.08026272  0.13901914  0.12451446       0.003
  -0.10032839  0.17377392  0.12451446       0.002
   0.03344280  0.01930821  0.00000000       0.003
   0.01337712  0.05406299  0.00000000       0.007
  -0.00668856  0.08881778  0.00000000       0.007
  -0.02675424  0.12357256  0.00000000       0.007
  -0.04681992  0.15832735  0.00000000       0.007
  -0.06688560  0.19308213  0.00000000       0.003
   0.03344280  0.01930821  0.02490289       0.007
   0.01337712  0.05406299  0.02490289       0.013
  -0.00668856  0.08881778  0.02490289       0.013
  -0.02675424  0.12357256  0.02490289       0.013
  -0.04681992  0.15832735  0.02490289       0.013
  -0.06688560  0.19308213  0.02490289       0.007
   0.03344280  0.01930821  0.04980578       0.007
   0.01337712  0.05406299  0.04980578       0.013
  -0.00668856  0.08881778  0.04980578       0.013
  -0.02675424  0.12357256  0.04980578       0.013
  -0.04681992  0.15832735  0.04980578       0.013
  -0.06688560  0.19308213  0.04980578       0.007
   0.03344280  0.01930821  0.07470868       0.007
   0.01337712  0.05406299  0.07470868       0.013
  -0.00668856  0.08881778  0.07470868       0.013
  -0.02675424  0.12357256  0.07470868       0.013
  -0.04681992  0.15832735  0.07470868       0.013
  -0.06688560  0.19308213  0.07470868       0.007
   0.03344280  0.01930821  0.09961157       0.007
   0.01337712  0.05406299  0.09961157       0.013
  -0.00668856  0.08881778  0.09961157       0.013
  -0.02675424  0.12357256  0.09961157       0.013
  -0.04681992  0.15832735  0.09961157       0.013
  -0.06688560  0.19308213  0.09961157       0.007
   0.03344280  0.01930821  0.12451446       0.003
   0.01337712  0.05406299  0.12451446       0.007
  -0.00668856  0.08881778  0.12451446       0.007
  -0.02675424  0.12357256  0.12451446       0.007
  -0.04681992  0.15832735  0.12451446       0.007
  -0.06688560  0.19308213  0.12451446       0.003
   0.06688560  0.03861642  0.00000000       0.003
   0.04681992  0.07337120  0.00000000       0.007
   0.02675424  0.10812599  0.00000000       0.007
   0.00668856  0.14288077  0.00000000       0.007
  -0.01337712  0.17763556  0.00000000       0.007
  -0.03344280  0.21239034  0.00000000       0.003
   0.06688560  0.03861642  0.02490289       0.007
   0.04681992  0.07337120  0.02490289       0.013
   0.02675424  0.10812599  0.02490289       0.013
   0.00668856  0.14288077  0.02490289       0.013
  -0.01337712  0.17763556  0.02490289       0.013
  -0.03344280  0.21239034  0.02490289       0.007
   0.06688560  0.03861642  0.04980578       0.007
   0.04681992  0.07337120  0.04980578       0.013
   0.02675424  0.10812599  0.04980578       0.013
   0.00668856  0.14288077  0.04980578       0.013
  -0.01337712  0.17763556  0.04980578       0.013
  -0.03344280  0.21239034  0.04980578       0.007
   0.06688560  0.03861642  0.07470868       0.007
   0.04681992  0.07337120  0.07470868       0.013
   0.02675424  0.10812599  0.07470868       0.013
   0.00668856  0.14288077  0.07470868       0.013
  -0.01337712  0.17763556  0.07470868       0.013
  -0.03344280  0.21239034  0.07470868       0.007
   0.06688560  0.03861642  0.09961157       0.007
   0.04681992  0.07337120  0.09961157       0.013
   0.02675424  0.10812599  0.09961157       0.013
   0.00668856  0.14288077  0.09961157       0.013
  -0.01337712  0.17763556  0.09961157       0.013
  -0.03344280  0.21239034  0.09961157       0.007
   0.06688560  0.03861642  0.12451446       0.003
   0.04681992  0.07337120  0.12451446       0.007
   0.02675424  0.10812599  0.12451446       0.007
   0.00668856  0.14288077  0.12451446       0.007
  -0.01337712  0.17763556  0.12451446       0.007
  -0.03344280  0.21239034  0.12451446       0.003
   0.10032839  0.05792463  0.00000000       0.002
   0.08026272  0.09267941  0.00000000       0.003
   0.06019704  0.12743420  0.00000000       0.003
   0.04013136  0.16218898  0.00000000       0.003
   0.02006568  0.19694376  0.00000000       0.003
   0.00000000  0.23169855  0.00000000       0.002
   0.10032839  0.05792463  0.02490289       0.003
   0.08026272  0.09267941  0.02490289       0.007
   0.06019704  0.12743420  0.02490289       0.007
   0.04013136  0.16218898  0.02490289       0.007
   0.02006568  0.19694376  0.02490289       0.007
   0.00000000  0.23169855  0.02490289       0.003
   0.10032839  0.05792463  0.04980578       0.003
   0.08026272  0.09267941  0.04980578       0.007
   0.06019704  0.12743420  0.04980578       0.007
   0.04013136  0.16218898  0.04980578       0.007
   0.02006568  0.19694376  0.04980578       0.007
   0.00000000  0.23169855  0.04980578       0.003
   0.10032839  0.05792463  0.07470868       0.003
   0.08026272  0.09267941  0.07470868       0.007
   0.06019704  0.12743420  0.07470868       0.007
   0.04013136  0.16218898  0.07470868       0.007
   0.02006568  0.19694376  0.07470868       0.007
   0.00000000  0.23169855  0.07470868       0.003
   0.10032839  0.05792463  0.09961157       0.003
   0.08026272  0.09267941  0.09961157       0.007
   0.06019704  0.12743420  0.09961157       0.007
   0.04013136  0.16218898  0.09961157       0.007
   0.02006568  0.19694376  0.09961157       0.007
   0.00000000  0.23169855  0.09961157       0.003
   0.10032839  0.05792463  0.12451446       0.002
   0.08026272  0.09267941  0.12451446       0.003
   0.06019704  0.12743420  0.12451446       0.003
   0.04013136  0.16218898  0.12451446       0.003
   0.02006568  0.19694376  0.12451446       0.003
   0.00000000  0.23169855  0.12451446       0.002
 
 k-points in reciprocal lattice and weights: pymatgen v2021.2.8.1 with grid density =
   0.00000000  0.00000000  0.00000000       0.002
   0.10000000  0.00000000 -0.00000000       0.003
   0.20000000  0.00000000  0.00000000       0.003
   0.30000000  0.00000000  0.00000000       0.003
   0.40000000  0.00000000  0.00000000       0.003
   0.50000000  0.00000000  0.00000000       0.002
   0.00000000  0.10000000  0.00000000       0.003
   0.10000000  0.10000000 -0.00000000       0.007
   0.20000000  0.10000000  0.00000000       0.007
   0.30000000  0.10000000  0.00000000       0.007
   0.40000000  0.10000000  0.00000000       0.007
   0.50000000  0.10000000  0.00000000       0.003
   0.00000000  0.20000000  0.00000000       0.003
   0.10000000  0.20000000 -0.00000000       0.007
   0.20000000  0.20000000  0.00000000       0.007
   0.30000000  0.20000000  0.00000000       0.007
   0.40000000  0.20000000  0.00000000       0.007
   0.50000000  0.20000000  0.00000000       0.003
   0.00000000  0.30000000  0.00000000       0.003
   0.10000000  0.30000000 -0.00000000       0.007
   0.20000000  0.30000000  0.00000000       0.007
   0.30000000  0.30000000  0.00000000       0.007
   0.40000000  0.30000000  0.00000000       0.007
   0.50000000  0.30000000  0.00000000       0.003
   0.00000000  0.40000000  0.00000000       0.003
   0.10000000  0.40000000 -0.00000000       0.007
   0.20000000  0.40000000  0.00000000       0.007
   0.30000000  0.40000000  0.00000000       0.007
   0.40000000  0.40000000  0.00000000       0.007
   0.50000000  0.40000000  0.00000000       0.003
   0.00000000  0.50000000  0.00000000       0.002
   0.10000000  0.50000000 -0.00000000       0.003
   0.20000000  0.50000000  0.00000000       0.003
   0.30000000  0.50000000  0.00000000       0.003
   0.40000000  0.50000000  0.00000000       0.003
   0.50000000  0.50000000  0.00000000       0.002
   0.00000000  0.00000000  0.16666667       0.003
   0.10000000  0.00000000  0.16666667       0.007
   0.20000000  0.00000000  0.16666667       0.007
   0.30000000  0.00000000  0.16666667       0.007
   0.40000000  0.00000000  0.16666667       0.007
   0.50000000  0.00000000  0.16666667       0.003
   0.00000000  0.10000000  0.16666667       0.007
   0.10000000  0.10000000  0.16666667       0.013
   0.20000000  0.10000000  0.16666667       0.013
   0.30000000  0.10000000  0.16666667       0.013
   0.40000000  0.10000000  0.16666667       0.013
   0.50000000  0.10000000  0.16666667       0.007
   0.00000000  0.20000000  0.16666667       0.007
   0.10000000  0.20000000  0.16666667       0.013
   0.20000000  0.20000000  0.16666667       0.013
   0.30000000  0.20000000  0.16666667       0.013
   0.40000000  0.20000000  0.16666667       0.013
   0.50000000  0.20000000  0.16666667       0.007
   0.00000000  0.30000000  0.16666667       0.007
   0.10000000  0.30000000  0.16666667       0.013
   0.20000000  0.30000000  0.16666667       0.013
   0.30000000  0.30000000  0.16666667       0.013
   0.40000000  0.30000000  0.16666667       0.013
   0.50000000  0.30000000  0.16666667       0.007
   0.00000000  0.40000000  0.16666667       0.007
   0.10000000  0.40000000  0.16666667       0.013
   0.20000000  0.40000000  0.16666667       0.013
   0.30000000  0.40000000  0.16666667       0.013
   0.40000000  0.40000000  0.16666667       0.013
   0.50000000  0.40000000  0.16666667       0.007
   0.00000000  0.50000000  0.16666667       0.003
   0.10000000  0.50000000  0.16666667       0.007
   0.20000000  0.50000000  0.16666667       0.007
   0.30000000  0.50000000  0.16666667       0.007
   0.40000000  0.50000000  0.16666667       0.007
   0.50000000  0.50000000  0.16666667       0.003
   0.00000000  0.00000000  0.33333333       0.003
   0.10000000  0.00000000  0.33333333       0.007
   0.20000000  0.00000000  0.33333333       0.007
   0.30000000  0.00000000  0.33333333       0.007
   0.40000000  0.00000000  0.33333333       0.007
   0.50000000  0.00000000  0.33333333       0.003
   0.00000000  0.10000000  0.33333333       0.007
   0.10000000  0.10000000  0.33333333       0.013
   0.20000000  0.10000000  0.33333333       0.013
   0.30000000  0.10000000  0.33333333       0.013
   0.40000000  0.10000000  0.33333333       0.013
   0.50000000  0.10000000  0.33333333       0.007
   0.00000000  0.20000000  0.33333333       0.007
   0.10000000  0.20000000  0.33333333       0.013
   0.20000000  0.20000000  0.33333333       0.013
   0.30000000  0.20000000  0.33333333       0.013
   0.40000000  0.20000000  0.33333333       0.013
   0.50000000  0.20000000  0.33333333       0.007
   0.00000000  0.30000000  0.33333333       0.007
   0.10000000  0.30000000  0.33333333       0.013
   0.20000000  0.30000000  0.33333333       0.013
   0.30000000  0.30000000  0.33333333       0.013
   0.40000000  0.30000000  0.33333333       0.013
   0.50000000  0.30000000  0.33333333       0.007
   0.00000000  0.40000000  0.33333333       0.007
   0.10000000  0.40000000  0.33333333       0.013
   0.20000000  0.40000000  0.33333333       0.013
   0.30000000  0.40000000  0.33333333       0.013
   0.40000000  0.40000000  0.33333333       0.013
   0.50000000  0.40000000  0.33333333       0.007
   0.00000000  0.50000000  0.33333333       0.003
   0.10000000  0.50000000  0.33333333       0.007
   0.20000000  0.50000000  0.33333333       0.007
   0.30000000  0.50000000  0.33333333       0.007
   0.40000000  0.50000000  0.33333333       0.007
   0.50000000  0.50000000  0.33333333       0.003
   0.00000000  0.00000000  0.50000000       0.002
   0.10000000  0.00000000  0.50000000       0.003
   0.20000000  0.00000000  0.50000000       0.003
   0.30000000  0.00000000  0.50000000       0.003
   0.40000000  0.00000000  0.50000000       0.003
   0.50000000  0.00000000  0.50000000       0.002
   0.00000000  0.10000000  0.50000000       0.003
   0.10000000  0.10000000  0.50000000       0.007
   0.20000000  0.10000000  0.50000000       0.007
   0.30000000  0.10000000  0.50000000       0.007
   0.40000000  0.10000000  0.50000000       0.007
   0.50000000  0.10000000  0.50000000       0.003
   0.00000000  0.20000000  0.50000000       0.003
   0.10000000  0.20000000  0.50000000       0.007
   0.20000000  0.20000000  0.50000000       0.007
   0.30000000  0.20000000  0.50000000       0.007
   0.40000000  0.20000000  0.50000000       0.007
   0.50000000  0.20000000  0.50000000       0.003
   0.00000000  0.30000000  0.50000000       0.003
   0.10000000  0.30000000  0.50000000       0.007
   0.20000000  0.30000000  0.50000000       0.007
   0.30000000  0.30000000  0.50000000       0.007
   0.40000000  0.30000000  0.50000000       0.007
   0.50000000  0.30000000  0.50000000       0.003
   0.00000000  0.40000000  0.50000000       0.003
   0.10000000  0.40000000  0.50000000       0.007
   0.20000000  0.40000000  0.50000000       0.007
   0.30000000  0.40000000  0.50000000       0.007
   0.40000000  0.40000000  0.50000000       0.007
   0.50000000  0.40000000  0.50000000       0.003
   0.00000000  0.50000000  0.50000000       0.002
   0.10000000  0.50000000  0.50000000       0.003
   0.20000000  0.50000000  0.50000000       0.003
   0.30000000  0.50000000  0.50000000       0.003
   0.40000000  0.50000000  0.50000000       0.003
   0.50000000  0.50000000  0.50000000       0.002
 
 position of ions in fractional coordinates (direct lattice) 
   0.99999949  0.74999996  0.33333349
   0.50000048  0.25000001  0.16666649
   0.49999949  0.74999996  0.83333349
   0.00000048  0.25000001  0.66666649
 
 position of ions in cartesian coordinates  (Angst):
   0.00000150  2.87730111  3.01169820
  -0.00000111  1.43865160  1.00389950
   2.49181850  2.87730111  3.01169820
   2.49181589  1.43865160  1.00389950
 


--------------------------------------------------------------------------------------------------------


 k-point  1 :   0.0000 0.0000 0.0000  plane waves:    1163
 k-point  2 :   0.1000 0.0000-0.0000  plane waves:    1161
 k-point  3 :   0.2000 0.0000 0.0000  plane waves:    1165
 k-point  4 :   0.3000 0.0000 0.0000  plane waves:    1149
 k-point  5 :   0.4000 0.0000 0.0000  plane waves:    1152
 k-point  6 :   0.5000 0.0000 0.0000  plane waves:    1166
 k-point  7 :   0.0000 0.1000 0.0000  plane waves:    1163
 k-point  8 :   0.1000 0.1000-0.0000  plane waves:    1164
 k-point  9 :   0.2000 0.1000 0.0000  plane waves:    1162
 k-point 10 :   0.3000 0.1000 0.0000  plane waves:    1155
 k-point 11 :   0.4000 0.1000 0.0000  plane waves:    1152
 k-point 12 :   0.5000 0.1000 0.0000  plane waves:    1144
 k-point 13 :   0.0000 0.2000 0.0000  plane waves:    1165
 k-point 14 :   0.1000 0.2000-0.0000  plane waves:    1162
 k-point 15 :   0.2000 0.2000 0.0000  plane waves:    1166
 k-point 16 :   0.3000 0.2000 0.0000  plane waves:    1158
 k-point 17 :   0.4000 0.2000 0.0000  plane waves:    1155
 k-point 18 :   0.5000 0.2000 0.0000  plane waves:    1158
 k-point 19 :   0.0000 0.3000 0.0000  plane waves:    1157
 k-point 20 :   0.1000 0.3000-0.0000  plane waves:    1165
 k-point 21 :   0.2000 0.3000 0.0000  plane waves:    1160
 k-point 22 :   0.3000 0.3000 0.0000  plane waves:    1158
 k-point 23 :   0.4000 0.3000 0.0000  plane waves:    1157
 k-point 24 :   0.5000 0.3000 0.0000  plane waves:    1158
 k-point 25 :   0.0000 0.4000 0.0000  plane waves:    1177
 k-point 26 :   0.1000 0.4000-0.0000  plane waves:    1167
 k-point 27 :   0.2000 0.4000 0.0000  plane waves:    1168
 k-point 28 :   0.3000 0.4000 0.0000  plane waves:    1149
 k-point 29 :   0.4000 0.4000 0.0000  plane waves:    1150
 k-point 30 :   0.5000 0.4000 0.0000  plane waves:    1150
 k-point 31 :   0.0000 0.5000 0.0000  plane waves:    1178
 k-point 32 :   0.1000 0.5000-0.0000  plane waves:    1176
 k-point 33 :   0.2000 0.5000 0.0000  plane waves:    1162
 k-point 34 :   0.3000 0.5000 0.0000  plane waves:    1136
 k-point 35 :   0.4000 0.5000 0.0000  plane waves:    1146
 k-point 36 :   0.5000 0.5000 0.0000  plane waves:    1156
 k-point 37 :   0.0000 0.0000 0.1667  plane waves:    1168
 k-point 38 :   0.1000 0.0000 0.1667  plane waves:    1163
 k-point 39 :   0.2000 0.0000 0.1667  plane waves:    1162
 k-point 40 :   0.3000 0.0000 0.1667  plane waves:    1159
 k-point 41 :   0.4000 0.0000 0.1667  plane waves:    1167
 k-point 42 :   0.5000 0.0000 0.1667  plane waves:    1158
 k-point 43 :   0.0000 0.1000 0.1667  plane waves:    1165
 k-point 44 :   0.1000 0.1000 0.1667  plane waves:    1167
 k-point 45 :   0.2000 0.1000 0.1667  plane waves:    1165
 k-point 46 :   0.3000 0.1000 0.1667  plane waves:    1163
 k-point 47 :   0.4000 0.1000 0.1667  plane waves:    1162
 k-point 48 :   0.5000 0.1000 0.1667  plane waves:    1164
 k-point 49 :   0.0000 0.2000 0.1667  plane waves:    1158
 k-point 50 :   0.1000 0.2000 0.1667  plane waves:    1167
 k-point 51 :   0.2000 0.2000 0.1667  plane waves:    1164
 k-point 52 :   0.3000 0.2000 0.1667  plane waves:    1159
 k-point 53 :   0.4000 0.2000 0.1667  plane waves:    1163
 k-point 54 :   0.5000 0.2000 0.1667  plane waves:    1160
 k-point 55 :   0.0000 0.3000 0.1667  plane waves:    1163
 k-point 56 :   0.1000 0.3000 0.1667  plane waves:    1168
 k-point 57 :   0.2000 0.3000 0.1667  plane waves:    1167
 k-point 58 :   0.3000 0.3000 0.1667  plane waves:    1161
 k-point 59 :   0.4000 0.3000 0.1667  plane waves:    1155
 k-point 60 :   0.5000 0.3000 0.1667  plane waves:    1162
 k-point 61 :   0.0000 0.4000 0.1667  plane waves:    1169
 k-point 62 :   0.1000 0.4000 0.1667  plane waves:    1168
 k-point 63 :   0.2000 0.4000 0.1667  plane waves:    1162
 k-point 64 :   0.3000 0.4000 0.1667  plane waves:    1158
 k-point 65 :   0.4000 0.4000 0.1667  plane waves:    1152
 k-point 66 :   0.5000 0.4000 0.1667  plane waves:    1152
 k-point 67 :   0.0000 0.5000 0.1667  plane waves:    1166
 k-point 68 :   0.1000 0.5000 0.1667  plane waves:    1164
 k-point 69 :   0.2000 0.5000 0.1667  plane waves:    1166
 k-point 70 :   0.3000 0.5000 0.1667  plane waves:    1156
 k-point 71 :   0.4000 0.5000 0.1667  plane waves:    1148
 k-point 72 :   0.5000 0.5000 0.1667  plane waves:    1152
 k-point 73 :   0.0000 0.0000 0.3333  plane waves:    1178
 k-point 74 :   0.1000 0.0000 0.3333  plane waves:    1174
 k-point 75 :   0.2000 0.0000 0.3333  plane waves:    1170
 k-point 76 :   0.3000 0.0000 0.3333  plane waves:    1169
 k-point 77 :   0.4000 0.0000 0.3333  plane waves:    1163
 k-point 78 :   0.5000 0.0000 0.3333  plane waves:    1162
 k-point 79 :   0.0000 0.1000 0.3333  plane waves:    1171
 k-point 80 :   0.1000 0.1000 0.3333  plane waves:    1168
 k-point 81 :   0.2000 0.1000 0.3333  plane waves:    1175
 k-point 82 :   0.3000 0.1000 0.3333  plane waves:    1169
 k-point 83 :   0.4000 0.1000 0.3333  plane waves:    1160
 k-point 84 :   0.5000 0.1000 0.3333  plane waves:    1150
 k-point 85 :   0.0000 0.2000 0.3333  plane waves:    1165
 k-point 86 :   0.1000 0.2000 0.3333  plane waves:    1170
 k-point 87 :   0.2000 0.2000 0.3333  plane waves:    1166
 k-point 88 :   0.3000 0.2000 0.3333  plane waves:    1165
 k-point 89 :   0.4000 0.2000 0.3333  plane waves:    1157
 k-point 90 :   0.5000 0.2000 0.3333  plane waves:    1164
 k-point 91 :   0.0000 0.3000 0.3333  plane waves:    1163
 k-point 92 :   0.1000 0.3000 0.3333  plane waves:    1165
 k-point 93 :   0.2000 0.3000 0.3333  plane waves:    1166
 k-point 94 :   0.3000 0.3000 0.3333  plane waves:    1159
 k-point 95 :   0.4000 0.3000 0.3333  plane waves:    1154
 k-point 96 :   0.5000 0.3000 0.3333  plane waves:    1162
 k-point 97 :   0.0000 0.4000 0.3333  plane waves:    1166
 k-point 98 :   0.1000 0.4000 0.3333  plane waves:    1167
 k-point 99 :   0.2000 0.4000 0.3333  plane waves:    1160
 k-point ** :   0.3000 0.4000 0.3333  plane waves:    1161
 k-point ** :   0.4000 0.4000 0.3333  plane waves:    1159
 k-point ** :   0.5000 0.4000 0.3333  plane waves:    1158
 k-point ** :   0.0000 0.5000 0.3333  plane waves:    1178
 k-point ** :   0.1000 0.5000 0.3333  plane waves:    1156
 k-point ** :   0.2000 0.5000 0.3333  plane waves:    1162
 k-point ** :   0.3000 0.5000 0.3333  plane waves:    1156
 k-point ** :   0.4000 0.5000 0.3333  plane waves:    1158
 k-point ** :   0.5000 0.5000 0.3333  plane waves:    1164
 k-point ** :   0.0000 0.0000 0.5000  plane waves:    1164
 k-point ** :   0.1000 0.0000 0.5000  plane waves:    1184
 k-point ** :   0.2000 0.0000 0.5000  plane waves:    1176
 k-point ** :   0.3000 0.0000 0.5000  plane waves:    1182
 k-point ** :   0.4000 0.0000 0.5000  plane waves:    1164
 k-point ** :   0.5000 0.0000 0.5000  plane waves:    1168
 k-point ** :   0.0000 0.1000 0.5000  plane waves:    1174
 k-point ** :   0.1000 0.1000 0.5000  plane waves:    1180
 k-point ** :   0.2000 0.1000 0.5000  plane waves:    1168
 k-point ** :   0.3000 0.1000 0.5000  plane waves:    1172
 k-point ** :   0.4000 0.1000 0.5000  plane waves:    1160
 k-point ** :   0.5000 0.1000 0.5000  plane waves:    1156
 k-point ** :   0.0000 0.2000 0.5000  plane waves:    1168
 k-point ** :   0.1000 0.2000 0.5000  plane waves:    1170
 k-point ** :   0.2000 0.2000 0.5000  plane waves:    1168
 k-point ** :   0.3000 0.2000 0.5000  plane waves:    1166
 k-point ** :   0.4000 0.2000 0.5000  plane waves:    1164
 k-point ** :   0.5000 0.2000 0.5000  plane waves:    1160
 k-point ** :   0.0000 0.3000 0.5000  plane waves:    1170
 k-point ** :   0.1000 0.3000 0.5000  plane waves:    1166
 k-point ** :   0.2000 0.3000 0.5000  plane waves:    1168
 k-point ** :   0.3000 0.3000 0.5000  plane waves:    1162
 k-point ** :   0.4000 0.3000 0.5000  plane waves:    1160
 k-point ** :   0.5000 0.3000 0.5000  plane waves:    1156
 k-point ** :   0.0000 0.4000 0.5000  plane waves:    1168
 k-point ** :   0.1000 0.4000 0.5000  plane waves:    1162
 k-point ** :   0.2000 0.4000 0.5000  plane waves:    1158
 k-point ** :   0.3000 0.4000 0.5000  plane waves:    1162
 k-point ** :   0.4000 0.4000 0.5000  plane waves:    1156
 k-point ** :   0.5000 0.4000 0.5000  plane waves:    1172
 k-point ** :   0.0000 0.5000 0.5000  plane waves:    1168
 k-point ** :   0.1000 0.5000 0.5000  plane waves:    1156
 k-point ** :   0.2000 0.5000 0.5000  plane waves:    1152
 k-point ** :   0.3000 0.5000 0.5000  plane waves:    1152
 k-point ** :   0.4000 0.5000 0.5000  plane waves:    1152
 k-point ** :   0.5000 0.5000 0.5000  plane waves:    1176

 maximum and minimum number of plane-waves per node :       304      276

 maximum number of plane-waves:      1184
 maximum index in each direction: 
   IXMAX=    4   IYMAX=    7   IZMAX=    8
   IXMIN=   -5   IYMIN=   -7   IZMIN=   -8


 parallel 3D FFT for wavefunctions:
    minimum data exchange during FFTs selected (reduces bandwidth)
 parallel 3D FFT for charge:
    minimum data exchange during FFTs selected (reduces bandwidth)


 total amount of memory used by VASP MPI-rank0    53924. kBytes
=======================================================================

   base      :      30000. kBytes
   nonl-proj :       6323. kBytes
   fftplans  :        377. kBytes
   grid      :        872. kBytes
   one-center:         31. kBytes
   wavefun   :      16321. kBytes
 
     INWAV:  cpu time    0.0000: real time    0.0001
 Broyden mixing: mesh for mixing (old mesh)
   NGX =  9   NGY = 15   NGZ = 17
  (NGX  = 28   NGY  = 48   NGZ  = 48)
  gives a total of   2295 points

 initial charge density was supplied:
 charge density of overlapping atoms calculated
 number of electron      36.0000000 magnetization       0.0000000
 keeping initial charge density in first step


--------------------------------------------------------------------------------------------------------


 Maximum index for augmentation-charges         1109 (set IRDMAX)


--------------------------------------------------------------------------------------------------------


 First call to EWALD:  gamma=   0.505
 Maximum number of real-space cells 4x 2x 2
 Maximum number of reciprocal cells 2x 3x 3

    FEWALD:  cpu time    0.0012: real time    0.0012


--------------------------------------- Iteration      1(   1)  ---------------------------------------


    POTLOK:  cpu time    0.0125: real time    0.0157
    SETDIJ:  cpu time    0.0056: real time    0.0056
     EDDAV:  cpu time    1.9810: real time    2.0098
 BZINTS: Fermi energy: 22.506629; 36.000000 electrons
         Band energy: 614.585999;  BLOECHL correction: -0.136726
       DOS:  cpu time    0.1259: real time    0.1263
    --------------------------------------------
      LOOP:  cpu time    2.1250: real time    2.1573

 eigenvalue-minimisations  : 12680
 total energy-change (2. order) : 0.2347476E+03  (-0.1652756E+04)
 number of electron      36.0000000 magnetization       0.0000000
 augmentation part       36.0000000 magnetization       0.0000000

 Free energy of the ion-electron system (eV)
  ---------------------------------------------------
  alpha Z        PSCENC =       156.93117299
  Ewald energy   TEWEN  =     -3048.26479117
  -Hartree energ DENC   =      -597.98345668
  -exchange      EXHF   =         0.00000000
  -V(xc)+E(xc)   XCENC  =        68.05081717
  PAW double counting   =      2882.91280504    -3094.94166473
  entropy T*S    EENTRO =         0.00000000
  eigenvalues    EBANDS =       614.58599874
  atomic energy  EATOM  =      3253.45675550
  Solvation  Ediel_sol  =         0.00000000
  ---------------------------------------------------
  free energy    TOTEN  =       234.74763687 eV

  energy without entropy =      234.74763687  energy(sigma->0) =      234.74763687


--------------------------------------------------------------------------------------------------------




--------------------------------------- Iteration      1(   2)  ---------------------------------------


     EDDAV:  cpu time    1.9858: real time    1.9941
 BZINTS: Fermi energy: 13.554930; 36.000000 electrons
         Band energy: 364.991766;  BLOECHL correction: -0.056152
       DOS:  cpu time    0.1324: real time    0.1328
    --------------------------------------------
      LOOP:  cpu time    2.1182: real time    2.1269

 eigenvalue-minimisations  : 12798
 total energy-change (2. order) :-0.2495942E+03  (-0.2430388E+03)
 number of electron      36.0000000 magnetization       0.0000000
 augmentation part       36.0000000 magnetization       0.0000000

 Free energy of the ion-electron system (eV)
  ---------------------------------------------------
  alpha Z        PSCENC =       156.93117299
  Ewald energy   TEWEN  =     -3048.26479117
  -Hartree energ DENC   =      -597.98345668
  -exchange      EXHF   =         0.00000000
  -V(xc)+E(xc)   XCENC  =        68.05081717
  PAW double counting   =      2882.91280504    -3094.94166473
  entropy T*S    EENTRO =         0.00000000
  eigenvalues    EBANDS =       364.99176647
  atomic energy  EATOM  =      3253.45675550
  Solvation  Ediel_sol  =         0.00000000
  ---------------------------------------------------
  free energy    TOTEN  =       -14.84659540 eV

  energy without entropy =      -14.84659540  energy(sigma->0) =      -14.84659540


--------------------------------------------------------------------------------------------------------




--------------------------------------- Iteration      1(   3)  ---------------------------------------


     EDDAV:  cpu time    2.3929: real time    2.3998
 BZINTS: Fermi energy: 12.829774; 36.000000 electrons
         Band energy: 348.488416;  BLOECHL correction: -0.056334
       DOS:  cpu time    0.1467: real time    0.1470
    --------------------------------------------
      LOOP:  cpu time    2.5396: real time    2.5469

 eigenvalue-minimisations  : 16262
 total energy-change (2. order) :-0.1650335E+02  (-0.1559261E+02)
 number of electron      36.0000000 magnetization       0.0000000
 augmentation part       36.0000000 magnetization       0.0000000

 Free energy of the ion-electron system (eV)
  ---------------------------------------------------
  alpha Z        PSCENC =       156.93117299
  Ewald energy   TEWEN  =     -3048.26479117
  -Hartree energ DENC   =      -597.98345668
  -exchange      EXHF   =         0.00000000
  -V(xc)+E(xc)   XCENC  =        68.05081717
  PAW double counting   =      2882.91280504    -3094.94166473
  entropy T*S    EENTRO =         0.00000000
  eigenvalues    EBANDS =       348.48841623
  atomic energy  EATOM  =      3253.45675550
  Solvation  Ediel_sol  =         0.00000000
  ---------------------------------------------------
  free energy    TOTEN  =       -31.34994564 eV

  energy without entropy =      -31.34994564  energy(sigma->0) =      -31.34994564


--------------------------------------------------------------------------------------------------------




--------------------------------------- Iteration      1(   4)  ---------------------------------------


     EDDAV:  cpu time    2.3050: real time    2.3112
 BZINTS: Fermi energy: 12.734781; 36.000000 electrons
         Band energy: 347.544671;  BLOECHL correction: -0.052129
       DOS:  cpu time    0.1310: real time    0.1313
    --------------------------------------------
      LOOP:  cpu time    2.4360: real time    2.4425

 eigenvalue-minimisations  : 15744
 total energy-change (2. order) :-0.9437454E+00  (-0.8997148E+00)
 number of electron      36.0000000 magnetization       0.0000000
 augmentation part       36.0000000 magnetization       0.0000000

 Free energy of the ion-electron system (eV)
  ---------------------------------------------------
  alpha Z        PSCENC =       156.93117299
  Ewald energy   TEWEN  =     -3048.26479117
  -Hartree energ DENC   =      -597.98345668
  -exchange      EXHF   =         0.00000000
  -V(xc)+E(xc)   XCENC  =        68.05081717
  PAW double counting   =      2882.91280504    -3094.94166473
  entropy T*S    EENTRO =         0.00000000
  eigenvalues    EBANDS =       347.54467081
  atomic energy  EATOM  =      3253.45675550
  Solvation  Ediel_sol  =         0.00000000
  ---------------------------------------------------
  free energy    TOTEN  =       -32.29369106 eV

  energy without entropy =      -32.29369106  energy(sigma->0) =      -32.29369106


--------------------------------------------------------------------------------------------------------




--------------------------------------- Iteration      1(   5)  ---------------------------------------


     EDDAV:  cpu time    2.4496: real time    2.4563
 BZINTS: Fermi energy: 12.732568; 36.000000 electrons
         Band energy: 347.520361;  BLOECHL correction: -0.052216
       DOS:  cpu time    0.1358: real time    0.1361
    CHARGE:  cpu time    0.1067: real time    0.1071
    MIXING:  cpu time    0.0004: real time    0.0004
    --------------------------------------------
      LOOP:  cpu time    2.6925: real time    2.6999

 eigenvalue-minimisations  : 16626
 total energy-change (2. order) :-0.2430991E-01  (-0.2409585E-01)
 number of electron      35.9999901 magnetization      -0.0000000
 augmentation part       18.2043215 magnetization      -0.0000000

 Broyden mixing:
  rms(total) = 0.20718E+01    rms(broyden)= 0.20718E+01
  rms(prec ) = 0.36105E+01
  weight for this iteration     100.00

 Free energy of the ion-electron system (eV)
  ---------------------------------------------------
  alpha Z        PSCENC =       156.93117299
  Ewald energy   TEWEN  =     -3048.26479117
  -Hartree energ DENC   =      -597.98345668
  -exchange      EXHF   =         0.00000000
  -V(xc)+E(xc)   XCENC  =        68.05081717
  PAW double counting   =      2882.91280504    -3094.94166473
  entropy T*S    EENTRO =         0.00000000
  eigenvalues    EBANDS =       347.52036090
  atomic energy  EATOM  =      3253.45675550
  Solvation  Ediel_sol  =         0.00000000
  ---------------------------------------------------
  free energy    TOTEN  =       -32.31800097 eV

  energy without entropy =      -32.31800097  energy(sigma->0) =      -32.31800097


--------------------------------------------------------------------------------------------------------




--------------------------------------- Iteration      1(   6)  ---------------------------------------


    POTLOK:  cpu time    0.0109: real time    0.0111
    SETDIJ:  cpu time    0.0057: real time    0.0057
     EDDAV:  cpu time    2.2482: real time    2.2543
 BZINTS: Fermi energy:  9.298385; 36.000000 electrons
         Band energy: 256.775318;  BLOECHL correction: -0.047040
       DOS:  cpu time    0.1382: real time    0.1385
    CHARGE:  cpu time    0.1047: real time    0.1050
    MIXING:  cpu time    0.0005: real time    0.0005
    --------------------------------------------
      LOOP:  cpu time    2.5081: real time    2.5151

 eigenvalue-minimisations  : 14848
 total energy-change (2. order) : 0.4031878E+01  (-0.6127032E+01)
 number of electron      35.9999881 magnetization       0.0000000
 augmentation part       21.4442582 magnetization       0.0000000

 Broyden mixing:
  rms(total) = 0.95373E+00    rms(broyden)= 0.95370E+00
  rms(prec ) = 0.13000E+01
  weight for this iteration     100.00

 eigenvalues of (default mixing * dielectric matrix)
  average eigenvalue GAMMA=   0.7345
  0.7345

 Free energy of the ion-electron system (eV)
  ---------------------------------------------------
  alpha Z        PSCENC =       156.93117299
  Ewald energy   TEWEN  =     -3048.26479117
  -Hartree energ DENC   =      -521.35827621
  -exchange      EXHF   =         0.00000000
  -V(xc)+E(xc)   XCENC  =        63.91465514
  PAW double counting   =      3165.07764319    -3354.81860044
  entropy T*S    EENTRO =         0.00000000
  eigenvalues    EBANDS =       256.77531766
  atomic energy  EATOM  =      3253.45675550
  Solvation  Ediel_sol  =         0.00000000
  ---------------------------------------------------
  free energy    TOTEN  =       -28.28612334 eV

  energy without entropy =      -28.28612334  energy(sigma->0) =      -28.28612334


--------------------------------------------------------------------------------------------------------




--------------------------------------- Iteration      1(   7)  ---------------------------------------


    POTLOK:  cpu time    0.0100: real time    0.0101
    SETDIJ:  cpu time    0.0054: real time    0.0054
     EDDAV:  cpu time    2.1029: real time    2.1082
 BZINTS: Fermi energy: 10.436933; 36.000000 electrons
         Band energy: 288.144905;  BLOECHL correction: -0.049635
       DOS:  cpu time    0.1263: real time    0.1273
    CHARGE:  cpu time    0.1050: real time    0.1056
    MIXING:  cpu time    0.0004: real time    0.0004
    --------------------------------------------
      LOOP:  cpu time    2.3499: real time    2.3570

 eigenvalue-minimisations  : 13940
 total energy-change (2. order) : 0.8803734E+00  (-0.6945239E+00)
 number of electron      35.9999888 magnetization       0.0000000
 augmentation part       20.4019136 magnetization       0.0000000

 Broyden mixing:
  rms(total) = 0.41654E+00    rms(broyden)= 0.41654E+00
  rms(prec ) = 0.49021E+00
  weight for this iteration     100.00

 eigenvalues of (default mixing * dielectric matrix)
  average eigenvalue GAMMA=   0.7777
  1.0393  0.5160

 Free energy of the ion-electron system (eV)
  ---------------------------------------------------
  alpha Z        PSCENC =       156.93117299
  Ewald energy   TEWEN  =     -3048.26479117
  -Hartree energ DENC   =      -538.69351598
  -exchange      EXHF   =         0.00000000
  -V(xc)+E(xc)   XCENC  =        64.99872795
  PAW double counting   =      3306.91120722    -3510.89021192
  entropy T*S    EENTRO =         0.00000000
  eigenvalues    EBANDS =       288.14490545
  atomic energy  EATOM  =      3253.45675550
  Solvation  Ediel_sol  =         0.00000000
  ---------------------------------------------------
  free energy    TOTEN  =       -27.40574996 eV

  energy without entropy =      -27.40574996  energy(sigma->0) =      -27.40574996


--------------------------------------------------------------------------------------------------------




--------------------------------------- Iteration      1(   8)  ---------------------------------------


    POTLOK:  cpu time    0.0103: real time    0.0104
    SETDIJ:  cpu time    0.0053: real time    0.0053
     EDDAV:  cpu time    2.2466: real time    2.2543
 BZINTS: Fermi energy: 10.406428; 36.000000 electrons
         Band energy: 287.248888;  BLOECHL correction: -0.049673
       DOS:  cpu time    0.1311: real time    0.1315
    CHARGE:  cpu time    0.1062: real time    0.1065
    MIXING:  cpu time    0.0005: real time    0.0005
    --------------------------------------------
      LOOP:  cpu time    2.5000: real time    2.5085

 eigenvalue-minimisations  : 14916
 total energy-change (2. order) : 0.2675264E-01  (-0.9870278E-02)
 number of electron      35.9999888 magnetization      -0.0000000
 augmentation part       20.3979964 magnetization      -0.0000000

 Broyden mixing:
  rms(total) = 0.18790E+00    rms(broyden)= 0.18790E+00
  rms(prec ) = 0.27163E+00
  weight for this iteration     100.00

 eigenvalues of (default mixing * dielectric matrix)
  average eigenvalue GAMMA=   1.0082
  1.7269  0.6489  0.6489

 Free energy of the ion-electron system (eV)
  ---------------------------------------------------
  alpha Z        PSCENC =       156.93117299
  Ewald energy   TEWEN  =     -3048.26479117
  -Hartree energ DENC   =      -534.54704188
  -exchange      EXHF   =         0.00000000
  -V(xc)+E(xc)   XCENC  =        64.78188182
  PAW double counting   =      3415.47095147    -3622.45681437
  entropy T*S    EENTRO =         0.00000000
  eigenvalues    EBANDS =       287.24888832
  atomic energy  EATOM  =      3253.45675550
  Solvation  Ediel_sol  =         0.00000000
  ---------------------------------------------------
  free energy    TOTEN  =       -27.37899733 eV

  energy without entropy =      -27.37899733  energy(sigma->0) =      -27.37899733


--------------------------------------------------------------------------------------------------------




--------------------------------------- Iteration      1(   9)  ---------------------------------------


    POTLOK:  cpu time    0.0108: real time    0.0112
    SETDIJ:  cpu time    0.0055: real time    0.0055
     EDDAV:  cpu time    2.5972: real time    2.6056
 BZINTS: Fermi energy: 10.331624; 36.000000 electrons
         Band energy: 285.136215;  BLOECHL correction: -0.049772
       DOS:  cpu time    0.1348: real time    0.1353
    CHARGE:  cpu time    0.1064: real time    0.1071
    MIXING:  cpu time    0.0005: real time    0.0005
    --------------------------------------------
      LOOP:  cpu time    2.8552: real time    2.8652

 eigenvalue-minimisations  : 17796
 total energy-change (2. order) : 0.2640879E-01  (-0.2834853E-02)
 number of electron      35.9999887 magnetization      -0.0000000
 augmentation part       20.4712260 magnetization      -0.0000000

 Broyden mixing:
  rms(total) = 0.58563E-01    rms(broyden)= 0.58563E-01
  rms(prec ) = 0.85779E-01
  weight for this iteration     100.00

 eigenvalues of (default mixing * dielectric matrix)
  average eigenvalue GAMMA=   1.0974
  2.1805  0.8530  0.6780  0.6780

 Free energy of the ion-electron system (eV)
  ---------------------------------------------------
  alpha Z        PSCENC =       156.93117299
  Ewald energy   TEWEN  =     -3048.26479117
  -Hartree energ DENC   =      -529.74202219
  -exchange      EXHF   =         0.00000000
  -V(xc)+E(xc)   XCENC  =        64.57497135
  PAW double counting   =      3517.46375226    -3726.90864181
  entropy T*S    EENTRO =         0.00000000
  eigenvalues    EBANDS =       285.13621453
  atomic energy  EATOM  =      3253.45675550
  Solvation  Ediel_sol  =         0.00000000
  ---------------------------------------------------
  free energy    TOTEN  =       -27.35258853 eV

  energy without entropy =      -27.35258853  energy(sigma->0) =      -27.35258853


--------------------------------------------------------------------------------------------------------




--------------------------------------- Iteration      1(  10)  ---------------------------------------


    POTLOK:  cpu time    0.0106: real time    0.0108
    SETDIJ:  cpu time    0.0054: real time    0.0054
     EDDAV:  cpu time    2.5386: real time    2.5458
 BZINTS: Fermi energy: 10.306208; 36.000000 electrons
         Band energy: 284.365812;  BLOECHL correction: -0.049845
       DOS:  cpu time    0.1229: real time    0.1231
    CHARGE:  cpu time    0.1040: real time    0.1042
    MIXING:  cpu time    0.0005: real time    0.0005
    --------------------------------------------
      LOOP:  cpu time    2.7820: real time    2.7899

 eigenvalue-minimisations  : 17578
 total energy-change (2. order) : 0.4023579E-02  (-0.5316211E-03)
 number of electron      35.9999887 magnetization       0.0000000
 augmentation part       20.5009504 magnetization       0.0000000

 Broyden mixing:
  rms(total) = 0.50765E-02    rms(broyden)= 0.50754E-02
  rms(prec ) = 0.56087E-02
  weight for this iteration     100.00

 eigenvalues of (default mixing * dielectric matrix)
  average eigenvalue GAMMA=   1.1358
  2.5056  1.1446  0.6906  0.6906  0.6479

 Free energy of the ion-electron system (eV)
  ---------------------------------------------------
  alpha Z        PSCENC =       156.93117299
  Ewald energy   TEWEN  =     -3048.26479117
  -Hartree energ DENC   =      -527.24807097
  -exchange      EXHF   =         0.00000000
  -V(xc)+E(xc)   XCENC  =        64.47240976
  PAW double counting   =      3579.75042510    -3790.81227857
  entropy T*S    EENTRO =         0.00000000
  eigenvalues    EBANDS =       284.36581240
  atomic energy  EATOM  =      3253.45675550
  Solvation  Ediel_sol  =         0.00000000
  ---------------------------------------------------
  free energy    TOTEN  =       -27.34856496 eV

  energy without entropy =      -27.34856496  energy(sigma->0) =      -27.34856496


--------------------------------------------------------------------------------------------------------




--------------------------------------- Iteration      1(  11)  ---------------------------------------


    POTLOK:  cpu time    0.0099: real time    0.0100
    SETDIJ:  cpu time    0.0053: real time    0.0053
     EDDAV:  cpu time    1.9835: real time    1.9887
 BZINTS: Fermi energy: 10.307465; 36.000000 electrons
         Band energy: 284.393607;  BLOECHL correction: -0.049873
       DOS:  cpu time    0.1394: real time    0.1398
    CHARGE:  cpu time    0.1077: real time    0.1081
    MIXING:  cpu time    0.0005: real time    0.0005
    --------------------------------------------
      LOOP:  cpu time    2.2464: real time    2.2524

 eigenvalue-minimisations  : 12806
 total energy-change (2. order) :-0.3915816E-04  (-0.3487858E-04)
 number of electron      35.9999887 magnetization      -0.0000000
 augmentation part       20.4998162 magnetization      -0.0000000

 Broyden mixing:
  rms(total) = 0.66956E-02    rms(broyden)= 0.66956E-02
  rms(prec ) = 0.70212E-02
  weight for this iteration     100.00

 eigenvalues of (default mixing * dielectric matrix)
  average eigenvalue GAMMA=   1.0541
  2.4424  1.2242  0.7814  0.6721  0.6721  0.5322

 Free energy of the ion-electron system (eV)
  ---------------------------------------------------
  alpha Z        PSCENC =       156.93117299
  Ewald energy   TEWEN  =     -3048.26479117
  -Hartree energ DENC   =      -527.09009913
  -exchange      EXHF   =         0.00000000
  -V(xc)+E(xc)   XCENC  =        64.46723724
  PAW double counting   =      3586.56464645    -3797.80713286
  entropy T*S    EENTRO =         0.00000000
  eigenvalues    EBANDS =       284.39360687
  atomic energy  EATOM  =      3253.45675550
  Solvation  Ediel_sol  =         0.00000000
  ---------------------------------------------------
  free energy    TOTEN  =       -27.34860411 eV

  energy without entropy =      -27.34860411  energy(sigma->0) =      -27.34860411


--------------------------------------------------------------------------------------------------------




--------------------------------------- Iteration      1(  12)  ---------------------------------------


    POTLOK:  cpu time    0.0106: real time    0.0107
    SETDIJ:  cpu time    0.0055: real time    0.0055
     EDDAV:  cpu time    2.5599: real time    2.5662
 BZINTS: Fermi energy: 10.308757; 36.000000 electrons
         Band energy: 284.430410;  BLOECHL correction: -0.049886
       DOS:  cpu time    0.1101: real time    0.1104
    CHARGE:  cpu time    0.1075: real time    0.1078
    MIXING:  cpu time    0.0005: real time    0.0005
    --------------------------------------------
      LOOP:  cpu time    2.7941: real time    2.8011

 eigenvalue-minimisations  : 17346
 total energy-change (2. order) :-0.1577475E-04  (-0.2463379E-05)
 number of electron      35.9999887 magnetization       0.0000000
 augmentation part       20.4985571 magnetization       0.0000000

 Broyden mixing:
  rms(total) = 0.37139E-02    rms(broyden)= 0.37139E-02
  rms(prec ) = 0.37464E-02
  weight for this iteration     100.00

 eigenvalues of (default mixing * dielectric matrix)
  average eigenvalue GAMMA=   1.1008
  2.2748  1.6507  1.0243  0.7625  0.7625  0.6154  0.6154

 Free energy of the ion-electron system (eV)
  ---------------------------------------------------
  alpha Z        PSCENC =       156.93117299
  Ewald energy   TEWEN  =     -3048.26479117
  -Hartree energ DENC   =      -527.16626789
  -exchange      EXHF   =         0.00000000
  -V(xc)+E(xc)   XCENC  =        64.46953153
  PAW double counting   =      3585.91651293    -3797.12194358
  entropy T*S    EENTRO =         0.00000000
  eigenvalues    EBANDS =       284.43040980
  atomic energy  EATOM  =      3253.45675550
  Solvation  Ediel_sol  =         0.00000000
  ---------------------------------------------------
  free energy    TOTEN  =       -27.34861989 eV

  energy without entropy =      -27.34861989  energy(sigma->0) =      -27.34861989


--------------------------------------------------------------------------------------------------------




--------------------------------------- Iteration      1(  13)  ---------------------------------------


    POTLOK:  cpu time    0.0105: real time    0.0107
    SETDIJ:  cpu time    0.0054: real time    0.0054
     EDDAV:  cpu time    1.5011: real time    1.5049
 BZINTS: Fermi energy: 10.308409; 36.000000 electrons
         Band energy: 284.424560;  BLOECHL correction: -0.049899
       DOS:  cpu time    0.1170: real time    0.1173
    CHARGE:  cpu time    0.1058: real time    0.1060
    MIXING:  cpu time    0.0006: real time    0.0006
    --------------------------------------------
[...]
      3       5.2615      1.00000
      4       5.2615      1.00000
      5       7.2603      1.00000
      6       7.2603      1.00000
      7       7.4359      1.00000
      8       7.4359      1.00000
      9       8.2849      1.00000
     10       8.2849      1.00000
     11       8.5418      1.00000
     12       8.5418      1.00000
     13       8.6793      1.00000
     14       8.6793      1.00000
     15       9.1903      1.00000
     16       9.1903      1.00000
     17       9.9117      1.00000
     18       9.9117      1.00000
     19      10.2900      1.00000
     20      10.2900      0.79106
     21      10.6360      0.00000
     22      10.6360      0.00000

 k-point   140 :       0.1000    0.5000    0.5000
  band No.  band energies     occupation 
      1       5.2654      1.00000
      2       5.2654      1.00000
      3       5.4222      1.00000
      4       5.4222      1.00000
      5       7.2524      1.00000
      6       7.2524      1.00000
      7       7.4192      1.00000
      8       7.4192      1.00000
      9       8.2164      1.00000
     10       8.2164      1.00000
     11       8.2830      1.00000
     12       8.2830      1.00000
     13       8.7136      1.00000
     14       8.7136      1.00000
     15       9.4837      1.00000
     16       9.4837      1.00000
     17       9.9101      1.00000
     18       9.9101      1.00000
     19      10.2657      0.86740
     20      10.2657      0.75663
     21      10.8538      0.00000
     22      10.8538      0.00000

 k-point   141 :       0.2000    0.5000    0.5000
  band No.  band energies     occupation 
      1       5.6208      1.00000
      2       5.6208      1.00000
      3       5.7421      1.00000
      4       5.7421      1.00000
      5       7.3046      1.00000
      6       7.3046      1.00000
      7       7.3807      1.00000
      8       7.3807      1.00000
      9       7.8883      1.00000
     10       7.8883      1.00000
     11       8.4304      1.00000
     12       8.4304      1.00000
     13       8.8709      1.00000
     14       8.8709      1.00000
     15       9.4387      1.00000
     16       9.4387      1.00000
     17      10.2075      0.99959
     18      10.2075      1.00387
     19      10.3932      0.02310
     20      10.3932     -0.03562
     21      11.2099      0.00000
     22      11.2100      0.00000

 k-point   142 :       0.3000    0.5000    0.5000
  band No.  band energies     occupation 
      1       5.8234      1.00000
      2       5.8234      1.00000
      3       5.8415      1.00000
      4       5.8415      1.00000
      5       7.2321      1.00000
      6       7.2321      1.00000
      7       7.3718      1.00000
      8       7.3718      1.00000
      9       8.3020      1.00000
     10       8.3020      1.00000
     11       8.8451      1.00000
     12       8.8451      1.00000
     13       9.1888      1.00000
     14       9.1888      1.00000
     15       9.3636      1.00000
     16       9.3636      1.00000
     17      10.3246      0.76581
     18      10.3246      0.58746
     19      10.6996      0.00000
     20      10.6996      0.00000
     21      11.3993      0.00000
     22      11.3993      0.00000

 k-point   143 :       0.4000    0.5000    0.5000
  band No.  band energies     occupation 
      1       5.7565      1.00000
      2       5.7565      1.00000
      3       5.8190      1.00000
      4       5.8190      1.00000
      5       7.1090      1.00000
      6       7.1090      1.00000
      7       7.2925      1.00000
      8       7.2925      1.00000
      9       9.0053      1.00000
     10       9.0053      1.00000
     11       9.2360      1.00000
     12       9.2360      1.00000
     13       9.4298      1.00000
     14       9.4298      1.00000
     15       9.8660      1.00000
     16       9.8660      1.00000
     17      10.5053     -0.07459
     18      10.5053     -0.08549
     19      10.7899      0.00000
     20      10.7899      0.00000
     21      11.7680      0.00000
     22      11.7680      0.00000

 k-point   144 :       0.5000    0.5000    0.5000
  band No.  band energies     occupation 
      1       5.7095      1.00000
      2       5.7095      1.00000
      3       5.7884      1.00000
      4       5.7884      1.00000
      5       7.0561      1.00000
      6       7.0561      1.00000
      7       7.2610      1.00000
      8       7.2610      1.00000
      9       9.0662      1.00000
     10       9.0662      1.00000
     11       9.3460      1.00000
     12       9.3460      1.00000
     13       9.8188      1.00000
     14       9.8188      1.00000
     15      10.3056      1.00000
     16      10.3056      1.00000
     17      10.3417      0.25503
     18      10.3417      0.09622
     19      10.9592      0.00000
     20      10.9592      0.00000
     21      12.0900      0.00000
     22      12.0900      0.00000


--------------------------------------------------------------------------------------------------------


 soft charge-density along one line, spin component           1
         0         1         2         3         4         5         6         7         8         9
 total charge-density along one line
 
 soft charge-density along one line, spin component           2
         0         1         2         3         4         5         6         7         8         9
 total charge-density along one line
 
 pseudopotential strength for first ion, spin component:           1
 -0.417   0.000   0.006   0.000  -0.010  -1.059   0.000   0.006
  0.000  -0.424   0.000  -0.004   0.000   0.000  -1.066   0.000
  0.006   0.000  -0.410   0.000   0.003   0.006   0.000  -1.053
  0.000  -0.004   0.000  -0.429   0.000   0.000  -0.004   0.000
 -0.010   0.000   0.003   0.000  -0.405  -0.010   0.000   0.003
 -1.059   0.000   0.006   0.000  -0.010  -1.642   0.000   0.006
  0.000  -1.066   0.000  -0.004   0.000   0.000  -1.649   0.000
  0.006   0.000  -1.053   0.000   0.003   0.006   0.000  -1.636
  0.000  -0.004   0.000  -1.071   0.000   0.000  -0.004   0.000
 -0.010   0.000   0.003   0.000  -1.048  -0.009   0.000   0.003
 -0.000  -0.000   0.001  -0.000  -0.000  -0.000  -0.000   0.001
 -0.001  -0.000   0.003  -0.000  -0.001  -0.001  -0.000   0.003
 -0.002  -0.000  -0.000  -0.000   0.003  -0.002  -0.000  -0.000
 -0.000  -0.003  -0.000  -0.006  -0.000  -0.000  -0.003  -0.000
  0.000  -0.000  -0.001  -0.000  -0.002   0.000  -0.000  -0.001
 -0.003  -0.000  -0.001  -0.000   0.003  -0.003  -0.000  -0.000
 -0.000  -0.004  -0.000  -0.007  -0.000  -0.000  -0.004  -0.000
  0.000  -0.000  -0.001  -0.000  -0.003   0.000  -0.000  -0.001
 pseudopotential strength for first ion, spin component:           2
  0.492  -0.000   0.028   0.000   0.024  -0.189  -0.000   0.027
 -0.000   0.529  -0.000  -0.028   0.000  -0.000  -0.153  -0.000
  0.028  -0.000   0.473  -0.000   0.016   0.027  -0.000  -0.207
  0.000  -0.028  -0.000   0.496  -0.000   0.000  -0.027  -0.000
  0.024   0.000   0.016  -0.000   0.465   0.023   0.000   0.016
 -0.189  -0.000   0.027   0.000   0.023  -0.808  -0.000   0.026
 -0.000  -0.153  -0.000  -0.027   0.000  -0.000  -0.774  -0.000
  0.027  -0.000  -0.207  -0.000   0.016   0.026  -0.000  -0.825
  0.000  -0.027  -0.000  -0.185  -0.000   0.000  -0.026  -0.000
  0.023   0.000   0.016  -0.000  -0.215   0.022   0.000   0.015
  0.008   0.000  -0.003   0.000   0.005   0.008   0.000  -0.003
  0.015   0.000  -0.005   0.000   0.009   0.015   0.000  -0.005
 -0.001  -0.000   0.001  -0.000   0.001  -0.001  -0.000   0.001
 -0.000   0.001  -0.000   0.002  -0.000  -0.000   0.001  -0.000
 -0.000  -0.000   0.002  -0.000  -0.001  -0.000  -0.000   0.002
 -0.001  -0.000   0.002  -0.000   0.001  -0.001  -0.000   0.002
 -0.000   0.002  -0.000   0.003  -0.000  -0.000   0.002  -0.000
 -0.001  -0.000   0.003  -0.000  -0.001  -0.000  -0.000   0.003
 total augmentation occupancy for first ion, spin component:           1
  2.721  -0.000   0.072   0.000   0.220  -1.391  -0.000  -0.054  -0.000  -0.154  -0.028   0.001  -0.006   0.000  -0.039   0.001
 -0.000   2.889   0.000  -0.105   0.000  -0.000  -1.491  -0.000   0.078   0.000   0.000  -0.000  -0.000  -0.009  -0.000   0.000
  0.072   0.000   2.416  -0.000   0.042  -0.054  -0.000  -1.227  -0.000  -0.031  -0.007   0.003   0.000  -0.000   0.001   0.000
  0.000  -0.105  -0.000   2.768  -0.000   0.000   0.078  -0.000  -1.401   0.000   0.000   0.000  -0.000  -0.015  -0.000  -0.000
  0.220  -0.000   0.042   0.000   2.468  -0.154  -0.000  -0.031   0.000  -1.214  -0.016   0.001  -0.033   0.000  -0.006   0.002
 -1.391   0.000  -0.054   0.000  -0.154   1.623  -0.000   0.042   0.000   0.109   0.012   0.002   0.003  -0.000   0.057   0.000
 -0.000  -1.491  -0.000   0.078   0.000   0.000   1.660  -0.000  -0.060   0.000  -0.000  -0.000  -0.000   0.001  -0.000   0.000
 -0.054  -0.000  -1.227   0.000  -0.031   0.042  -0.000   1.581   0.000   0.024   0.018  -0.004  -0.002  -0.000  -0.003  -0.000
 -0.000   0.078  -0.000  -1.401   0.000  -0.000  -0.060   0.000   1.591  -0.000  -0.000   0.000  -0.000   0.002  -0.000  -0.000
 -0.154  -0.000  -0.031  -0.000  -1.214   0.109   0.000   0.024  -0.000   1.497   0.007   0.001   0.054   0.000   0.003  -0.004
 -0.028   0.000  -0.007   0.000  -0.016   0.012   0.000   0.018  -0.000   0.007   2.267  -0.258  -0.000  -0.000  -0.000   0.000
  0.001  -0.000   0.003   0.000   0.001   0.002  -0.000  -0.004   0.000   0.001  -0.258   0.037  -0.000   0.000  -0.000   0.000
 -0.006  -0.000   0.000  -0.000  -0.033   0.003  -0.000  -0.002  -0.000   0.054  -0.000  -0.000   0.312   0.000   0.001  -0.030
 -0.000  -0.009   0.000  -0.015   0.000   0.000   0.001  -0.000   0.002  -0.000  -0.000   0.000   0.000   0.318   0.000   0.000
 -0.039   0.000   0.001  -0.000  -0.006   0.057   0.000  -0.003   0.000   0.003  -0.000  -0.000   0.001  -0.000   0.313   0.000
  0.001   0.000   0.000  -0.000   0.002   0.000   0.000  -0.000  -0.000  -0.004   0.000   0.000  -0.030  -0.000   0.000   0.003
 -0.000   0.002   0.000   0.003   0.000   0.000  -0.001  -0.000  -0.001   0.000  -0.000   0.000   0.000  -0.030   0.000  -0.000
  0.003  -0.000   0.001   0.000   0.001  -0.004   0.000  -0.001   0.000   0.000   0.000   0.000   0.000   0.000  -0.030  -0.000
 total augmentation occupancy for first ion, spin component:           2
  1.347   0.000   0.173   0.000   0.344  -0.653   0.000  -0.105  -0.000  -0.241  -0.007  -0.008  -0.008   0.000  -0.012   0.000
  0.000   1.653   0.000  -0.231  -0.000  -0.000  -0.839  -0.000   0.151   0.000   0.000  -0.000   0.000   0.037   0.000  -0.000
  0.173   0.000   1.154  -0.000   0.100  -0.105  -0.000  -0.504  -0.000  -0.061   0.013   0.005   0.025  -0.000   0.044  -0.001
 -0.000  -0.231   0.000   1.386  -0.000   0.000   0.151   0.000  -0.665  -0.000  -0.000   0.000   0.000   0.064  -0.000   0.000
  0.344  -0.000   0.100  -0.000   0.951  -0.241   0.000  -0.060   0.000  -0.375  -0.004  -0.005  -0.003   0.000  -0.008  -0.000
 -0.653  -0.000  -0.105   0.000  -0.241   0.216  -0.000   0.055  -0.000   0.167   0.019   0.007   0.009   0.000   0.006  -0.000
  0.000  -0.839  -0.000   0.151   0.000  -0.000   0.320  -0.000  -0.091   0.000  -0.000  -0.000  -0.000  -0.018   0.000  -0.000
 -0.105   0.000  -0.504  -0.000  -0.060   0.055   0.000   0.090   0.000   0.032  -0.019  -0.003  -0.016  -0.000  -0.027   0.001
  0.000   0.151   0.000  -0.665  -0.000  -0.000  -0.091   0.000   0.215   0.000   0.000   0.000   0.000  -0.031  -0.000   0.000
 -0.241   0.000  -0.061   0.000  -0.375   0.167   0.000   0.032  -0.000   0.024   0.011   0.004  -0.004  -0.000   0.009   0.000
 -0.007   0.000   0.013  -0.000  -0.004   0.019  -0.000  -0.019  -0.000   0.011  -0.150   0.056   0.006   0.000   0.010   0.000
 -0.008  -0.000   0.005   0.000  -0.005   0.007  -0.000  -0.003   0.000   0.004   0.056  -0.010   0.001   0.000   0.001  -0.000
 -0.008   0.000   0.025   0.000  -0.003   0.009  -0.000  -0.016   0.000  -0.004   0.006   0.001  -0.004   0.000   0.004   0.003
 -0.000   0.037  -0.000   0.064   0.000  -0.000  -0.018   0.000  -0.031   0.000   0.000   0.000  -0.000  -0.009  -0.000  -0.000
 -0.012   0.000   0.044  -0.000  -0.008   0.006   0.000  -0.027  -0.000   0.009   0.010   0.001   0.004   0.000   0.001   0.000
  0.000  -0.000  -0.001   0.000  -0.000  -0.000  -0.000   0.001  -0.000   0.000   0.000  -0.000   0.003   0.000   0.000  -0.000
  0.000  -0.001   0.000  -0.002   0.000   0.000   0.002   0.000   0.003   0.000  -0.000  -0.000  -0.000   0.003   0.000   0.000
  0.000  -0.000  -0.001  -0.000   0.000   0.000  -0.000   0.002   0.000  -0.000   0.000  -0.000   0.000   0.000   0.003  -0.000


------------------------ aborting loop because EDIFF is reached ----------------------------------------


 


 total charge     
 
# of ion       s       p       d       tot
------------------------------------------
    1        0.489   0.525   7.267   8.281
    2        0.489   0.525   7.267   8.281
    3        0.489   0.525   7.267   8.281
    4        0.489   0.525   7.267   8.281
--------------------------------------------------
tot          1.956   2.099  29.068  33.124
 


 magnetization (x)
 
# of ion       s       p       d       tot
------------------------------------------
    1        0.002   0.003   1.167   1.172
    2        0.002   0.003   1.166   1.172
    3       -0.002  -0.003  -1.167  -1.172
    4       -0.002  -0.003  -1.166  -1.172
--------------------------------------------------
tot          0.000  -0.000  -0.000   0.000
 
    CHARGE:  cpu time    0.1076: real time    0.1079
    FORLOC:  cpu time    0.0003: real time    0.0003
    FORNL :  cpu time    0.5628: real time    0.5644
    STRESS:  cpu time    0.6677: real time    0.6696
    FORCOR:  cpu time    0.0106: real time    0.0107
    FORHAR:  cpu time    0.0012: real time    0.0012
    MIXING:  cpu time    0.0006: real time    0.0006
    OFIELD:  cpu time    0.0000: real time    0.0000

  FORCE on cell =-STRESS in cart. coord.  units (eV):
  Direction    XX          YY          ZZ          XY          YZ          ZX
  --------------------------------------------------------------------------------------
  Alpha Z   156.93117   156.93117   156.93117
  Ewald   -1022.31209 -1022.31152 -1003.64385     0.00030     0.00000    -0.00000
  Hartree   172.23821   173.23994   181.70180    -0.86728     0.00000     0.00000
  E(xc)    -183.99891  -184.04269  -184.05194     0.03791    -0.00000    -0.00000
  Local     -27.73809   -31.12225   -57.44707     2.92989    -0.00000    -0.00000
  n-local   -23.37691   -17.52791   -19.97364     1.39499     3.07847    -1.39677
  augment   619.98306   621.44664   620.84112    -1.26758     0.00000     0.00000
  Kinetic   302.39004   307.67660   304.09907     1.29690    -1.55557     0.42251
  Fock        0.00000     0.00000     0.00000     0.00000     0.00000     0.00000
  -------------------------------------------------------------------------------------
  Total      -0.54059    -1.05292    -1.54334     0.44369     0.00000    -0.00000
  in kB     -20.05573   -39.06280   -57.25691    16.46061     0.00000    -0.00000
  external pressure =      -38.79 kB  Pullay stress =        0.00 kB


 VOLUME and BASIS-vectors are now :
 -----------------------------------------------------------------------------
  energy-cutoff  :      520.00
  volume of cell :       43.19
      direct lattice vectors                 reciprocal lattice vectors
    -1.245908300  2.157976400  0.000000000    -0.200656790  0.347547842  0.000000000
     0.000000000  0.000000000  4.015597800     0.000000000  0.000000000  0.249028924
     3.737725700  2.157976400  0.000000000     0.200656790  0.115849256  0.000000000

  length of vectors
     2.491816533  4.015597800  4.315953609     0.401313655  0.249028924  0.231698505


 FORCES acting on ions
    electron-ion (+dipol)            ewald-force                    non-local-force                 convergence-correction
 -----------------------------------------------------------------------------------------------
   -.192E+00 -.111E+00 -.774E-04   -.752E-04 0.606E-04 0.121E-03   0.120E+00 0.691E-01 -.434E-18   0.176E-04 0.101E-04 -.205E-06
   0.192E+00 0.111E+00 0.661E-04   0.752E-04 -.606E-04 -.121E-03   -.120E+00 -.691E-01 -.217E-17   -.176E-04 -.101E-04 0.205E-06
   -.192E+00 -.111E+00 -.774E-04   -.752E-04 0.606E-04 0.121E-03   0.120E+00 0.691E-01 -.867E-18   0.176E-04 0.101E-04 -.205E-06
   0.192E+00 0.111E+00 0.661E-04   0.752E-04 -.606E-04 -.121E-03   -.120E+00 -.691E-01 -.434E-18   -.176E-04 -.101E-04 0.205E-06
 -----------------------------------------------------------------------------------------------
   -.253E-05 -.599E-05 -.225E-04   0.730E-14 0.558E-14 -.552E-15   0.000E+00 -.694E-16 -.390E-17   -.238E-09 -.891E-09 -.345E-09
 
 
 POSITION                                       TOTAL-FORCE (eV/Angst)
 -----------------------------------------------------------------------------------
      0.00000      2.87730      3.01170        -0.072201     -0.041685     -0.000000
     -0.00000      1.43865      1.00390         0.072201      0.041685      0.000000
      2.49182      2.87730      3.01170        -0.072201     -0.041685     -0.000000
      2.49182      1.43865      1.00390         0.072201      0.041685     -0.000000
 -----------------------------------------------------------------------------------
    total drift:                               -0.000003     -0.000006     -0.000023


--------------------------------------------------------------------------------------------------------



  FREE ENERGIE OF THE ION-ELECTRON SYSTEM (eV)
  ---------------------------------------------------
  free  energy   TOTEN  =       -27.34863672 eV

  energy  without entropy=      -27.34863672  energy(sigma->0) =      -27.34863672
 


--------------------------------------------------------------------------------------------------------


    POTLOK:  cpu time    0.0160: real time    0.0161


--------------------------------------------------------------------------------------------------------


     LOOP+:  cpu time   38.0682: real time   38.2086
    4ORBIT:  cpu time    0.0000: real time    0.0000
 


 total charge     
 
# of ion       s       p       d       tot
------------------------------------------
    1        0.489   0.525   7.267   8.281
    2        0.489   0.525   7.267   8.281
    3        0.489   0.525   7.267   8.281
    4        0.489   0.525   7.267   8.281
--------------------------------------------------
tot          1.956   2.099  29.068  33.124
 


 magnetization (x)
 
# of ion       s       p       d       tot
------------------------------------------
    1        0.002   0.003   1.167   1.172
    2        0.002   0.003   1.166   1.172
    3       -0.002  -0.003  -1.167  -1.172
    4       -0.002  -0.003  -1.166  -1.172
--------------------------------------------------
tot          0.000  -0.000  -0.000   0.000
 
 BZINTS: Fermi energy: 10.308031; 36.000000 electrons
         Band energy: 284.416746;  BLOECHL correction: -0.049906

 total amount of memory used by VASP MPI-rank0    53924. kBytes
=======================================================================

   base      :      30000. kBytes
   nonl-proj :       6323. kBytes
   fftplans  :        377. kBytes
   grid      :        872. kBytes
   one-center:         31. kBytes
   wavefun   :      16321. kBytes
 
  
  
 General timing and accounting informations for this job:
 ========================================================
  
                  Total CPU time used (sec):       40.326
                            User time (sec):       39.921
                          System time (sec):        0.405
                         Elapsed time (sec):       41.329
  
                   Maximum memory used (kb):       79084.
                   Average memory used (kb):           0.
  
                          Minor page faults:        18957
                          Major page faults:            0
                 Voluntary context switches:         1386
