unknown system                          
   1.00000000000000     
    -2.478974   -1.431236    2.024073
     1.239487   -0.715618    4.048147
     0.000000    2.862472    2.024073
   Ni
     4
Direct
  0.500000  0.000000  0.500000
  0.250000  0.500000  0.750000
  0.750000  0.500000  0.250000
  0.000000  0.000000  0.000000
 
   56   64   56
 0.56522453563E+07 0.48532620339E+05 0.12105108553E+05 0.19650428641E+04 0.47614351733E+03
 0.24875261295E+03 0.15118690285E+03 0.85499808597E+02 0.45202258005E+02 0.22896117010E+02
 0.11305360557E+02 0.54990234347E+01 0.26522466357E+01 0.12730406598E+01 0.61040390441E+00
 0.29205983628E+00 0.14015026640E+00 0.67080250446E-01 0.32378224996E-01 0.15487291056E-01
 0.75826282164E-02 0.36164594513E-02 0.18960489955E-02 0.79889665951E-03 0.51024526682E-03
 0.22134659325E-03 0.29944991206E-03 0.14465647973E-03 0.26892079040E-03 0.14465647700E-03
 0.29944991229E-03 0.22134659348E-03 0.51024526678E-03 0.79889665930E-03 0.18960489962E-02
 0.36164594515E-02 0.75826282164E-02 0.15487291056E-01 0.32378224995E-01 0.67080250446E-01
 0.14015026640E+00 0.29205983628E+00 0.61040390439E+00 0.12730406598E+01 0.26522466357E+01
 0.54990234347E+01 0.11305360557E+02 0.22896117010E+02 0.45202258005E+02 0.85499808597E+02
 0.15118690285E+03 0.24875261295E+03 0.47614351733E+03 0.19650428641E+04 0.12105108553E+05
 0.48532620339E+05 0.44591725704E+05 0.18566787821E+05 0.39001479841E+04 0.78046585935E+03
 0.31694834558E+03 0.19263564049E+03 0.11409356340E+03 0.62526300207E+02 0.32434355851E+02
 0.16263463024E+02 0.79913034124E+01 0.38796737822E+01 0.18713943662E+01 0.89932174997E+00
 0.43138784059E+00 0.20709580397E+00 0.99315246558E-01 0.47836001061E-01 0.22975369359E-01
 0.11152287134E-01 0.53735640604E-02 0.26774514405E-02 0.13074864023E-02 0.68611528891E-03
 0.38057832880E-03 0.24344623824E-03 0.19887367068E-03 0.15699470214E-03 0.18869387031E-03
 0.16583582419E-03 0.26532607714E-03 0.32266965930E-03 0.66709683256E-03 0.11694234616E-02
 0.24828883944E-02 0.48796339229E-02 0.10224820101E-01 0.20931015979E-01 0.43701716013E-01
 0.90568123691E-01 0.18899992052E+00 0.39345552008E+00 0.82062381041E+00 0.17076088498E+01
 0.35427110085E+01 0.73052824962E+01 0.14894775174E+02 0.29797817405E+02 0.57744994461E+02
 0.10624359493E+03 0.18120790011E+03 0.29558381694E+03 0.66633175139E+03 0.31421040787E+04
 0.15715530247E+05 0.41790976954E+05 0.94351300332E+04 0.33400506962E+04 0.89490871041E+03
 0.36092285219E+03 0.21993732637E+03 0.13636076184E+03 0.78084854358E+02 0.41891882738E+02
 0.21534027234E+02 0.10776462500E+02 0.53043015431E+01 0.25850414711E+01 0.12518876320E+01
 0.60489595305E+00 0.29140976734E+00 0.14064707394E+00 0.67692743618E-01 0.32814825270E-01
 0.15769231600E-01 0.77822880286E-02 0.37136891793E-02 0.19043195150E-02 0.94714306542E-03
 0.63506010419E-03 0.31279429110E-03 0.27438370500E-03 0.12262853278E-03 0.18209273992E-03
 0.11317236550E-03 0.24267410350E-03 0.28549909203E-03 0.55507836498E-03 0.83457046688E-03
 0.15960974770E-02 0.31236627552E-02 0.64802202985E-02 0.13196810374E-01 0.27321654294E-01
 0.56478474513E-01 0.11712429729E+00 0.24290602742E+00 0.50396977510E+00 0.10439446085E+01
 0.21575403150E+01 0.44349018454E+01 0.90381488646E+01 0.18148487229E+02 0.35587516795E+02
 0.67172756730E+02 0.11950367936E+03 0.19637224926E+03 0.31296917036E+03 0.67255708845E+03
 0.24033649714E+04 0.77011503686E+04 0.12943830239E+05 0.13533586348E+04 0.63268897382E+03
 0.34104205399E+03 0.22386254107E+03 0.14572049028E+03 0.87527002914E+02 0.48943414949E+02
 0.26020574039E+02 0.13375520127E+02 0.67261098514E+01 0.33341430666E+01 0.16376743494E+01
 0.80008282391E+00 0.38918088822E+00 0.18925411977E+00 0.91750439873E-01 0.44667252115E-01
 0.21645916032E-01 0.10628457645E-01 0.51855298826E-02 0.26241022818E-02 0.13136230099E-02
 0.78907687259E-03 0.48837838841E-03 0.37234651907E-03 0.27361705595E-03 0.25510329584E-03
 0.24417103415E-03 0.27142254920E-03 0.32879678510E-03 0.43255477986E-03 0.65227660927E-03
 0.10632327720E-02 0.20194319521E-02 0.39966885540E-02 0.81317693446E-02 0.16538929375E-01
 0.34066567470E-01 0.69993184243E-01 0.14432328740E+00 0.29693540499E+00 0.61096255039E+00
 0.12522230776E+01 0.25563487492E+01 0.51765776020E+01 0.10357687825E+02 0.20339105646E+02
 0.38808394657E+02 0.70894183788E+02 0.12153127863E+03 0.19209892472E+03 0.28815398539E+03
 0.48565178723E+03 0.10281826640E+04 0.19155795694E+04 0.21441951605E+04 0.37508229529E+03
 0.27766001775E+03 0.20281309672E+03 0.13920366192E+03 0.87854715250E+02 0.51484058132E+02
 0.28525161672E+02 0.15184953361E+02 0.78615777181E+01 0.39923028723E+01 0.20010909768E+01
 0.99393015633E+00 0.49064940376E+00 0.24136918276E+00 0.11831729065E+00 0.58072708338E-01
 0.28387840788E-01 0.14028533345E-01 0.68823837267E-02 0.35213115429E-02 0.17989362307E-02
 0.10939913346E-02 0.61545745129E-03 0.49751255511E-03 0.35265920857E-03 0.40862261223E-03
 0.33447418258E-03 0.40241121181E-03 0.33741246096E-03 0.44908033095E-03 0.50333735730E-03
 0.86224482094E-03 0.13381645442E-02 0.25441052248E-02 0.48527154018E-02 0.98776667727E-02
 0.19872111814E-01 0.40681546705E-01 0.82794576614E-01 0.16914924653E+00 0.34409847691E+00
 0.69901318252E+00 0.14113167128E+01 0.28301926645E+01 0.56137182236E+01 0.10957624277E+02
 0.20899029126E+02 0.38549586624E+02 0.67804822944E+02 0.11173141293E+03 0.16974509458E+03
 0.23840527229E+03 0.32274008340E+03 0.43190096941E+03 0.51476360834E+03 0.48334893252E+03
 0.20898874437E+03 0.16449939221E+03 0.11888976689E+03 0.78959979699E+02 0.48689162162E+02
 0.28288378377E+02 0.15707012881E+02 0.84338052625E+01 0.44182696605E+01 0.22740635254E+01
 0.11550941600E+01 0.58159206332E+00 0.29069186913E+00 0.14473812998E+00 0.71781875614E-01
 0.35626425704E-01 0.17654349627E-01 0.88710281672E-02 0.44941116438E-02 0.24092202066E-02
 0.13820762217E-02 0.99597500274E-03 0.69853131511E-03 0.65205918139E-03 0.54979434961E-03
 0.61303486150E-03 0.54299730541E-03 0.62086317989E-03 0.55444788538E-03 0.69428051865E-03
 0.75030866838E-03 0.11427436926E-02 0.16393498589E-02 0.30627340200E-02 0.57344958975E-02
 0.11516526953E-01 0.22902446017E-01 0.46398172140E-01 0.93312697440E-01 0.18818360650E+00
 0.37713359184E+00 0.75312064161E+00 0.14908880087E+01 0.29221109952E+01 0.56442346930E+01
 0.10683995244E+02 0.19672903413E+02 0.34886530019E+02 0.58824269873E+02 0.92928222693E+02
 0.13565898349E+03 0.18171111585E+03 0.22386240522E+03 0.25392868843E+03 0.26211409838E+03
 0.24469028135E+03 0.11950362923E+03 0.90893866867E+02 0.63681140821E+02 0.41463956264E+02
 0.25384324810E+02 0.14788029976E+02 0.82870586065E+01 0.45070234116E+01 0.23965951342E+01
 0.12520623605E+01 0.64599871650E+00 0.32979898710E+00 0.16728533328E+00 0.84342309832E-01
 0.42455814813E-01 0.21352621619E-01 0.10839427552E-01 0.56104131537E-02 0.30605898433E-02
 0.18552698561E-02 0.13019238960E-02 0.10711463808E-02 0.99894457362E-03 0.10134510018E-02
 0.10264692922E-02 0.10595858301E-02 0.10372535435E-02 0.10351350802E-02 0.98509186349E-03
 0.10242095137E-02 0.10988433816E-02 0.14236038381E-02 0.20427818728E-02 0.35659849583E-02
 0.65676812252E-02 0.12851668971E-01 0.25314749372E-01 0.50446397754E-01 0.10008420918E+00
 0.19838714633E+00 0.39039885673E+00 0.76308981035E+00 0.14746525983E+01 0.28111869974E+01
 0.52610508232E+01 0.96078178145E+01 0.16995317518E+02 0.28844117685E+02 0.46448527193E+02
 0.70113836165E+02 0.98107175678E+02 0.12625462656E+03 0.14891424257E+03 0.16085451640E+03
 0.15909083249E+03 0.14407533773E+03 0.62526302549E+02 0.46343350329E+02 0.31951020862E+02
 0.20681547999E+02 0.12695482420E+02 0.74624676610E+01 0.42359705130E+01 0.23391402727E+01
 0.12633960877E+01 0.67122058270E+00 0.35157566001E+00 0.18245396976E+00 0.93822449367E-01
 0.48124616369E-01 0.24580078405E-01 0.12733726866E-01 0.66911784499E-02 0.38196746069E-02
 0.23567802323E-02 0.18282109912E-02 0.15852112403E-02 0.15887740486E-02 0.15758070462E-02
 0.17064343659E-02 0.17236575132E-02 0.17959852795E-02 0.17179623145E-02 0.17015899570E-02
 0.15724425334E-02 0.15858295543E-02 0.15889239420E-02 0.18787446605E-02 0.24800647093E-02
 0.40765086108E-02 0.72288549859E-02 0.13820832272E-01 0.26720956076E-01 0.52327853501E-01
 0.10197834397E+00 0.19814609568E+00 0.38140130672E+00 0.72704463240E+00 0.13659593019E+01
 0.25225464251E+01 0.45539882172E+01 0.79911732878E+01 0.13528775592E+02 0.21905459728E+02
 0.33593456333E+02 0.48310272966E+02 0.64556860160E+02 0.79603049112E+02 0.90185295697E+02
 0.93691249741E+02 0.89208843186E+02 0.77900508993E+02 0.30728947910E+02 0.22458733528E+02
 0.15396870411E+02 0.99847094566E+01 0.61762056690E+01 0.36732084981E+01 0.21156868473E+01
 0.11866462220E+01 0.65192796257E+00 0.35183484754E+00 0.18744723855E+00 0.98746281041E-01
 0.51713693502E-01 0.27005542782E-01 0.14245551120E-01 0.77386191002E-02 0.45333583125E-02
 0.30429931349E-02 0.24483732156E-02 0.23288110552E-02 0.24295957590E-02 0.26198313113E-02
 0.28179885451E-02 0.29828332459E-02 0.30662099776E-02 0.30729846978E-02 0.29740651718E-02
 0.28171242109E-02 0.26129650984E-02 0.24417001340E-02 0.23278572121E-02 0.24470943815E-02
 0.30397520668E-02 0.45390615537E-02 0.77352350865E-02 0.14244429585E-01 0.27008245881E-01
 0.51708002212E-01 0.98764969337E-01 0.18741842536E+00 0.35186497398E+00 0.65184059244E+00
 0.11867643105E+01 0.21155396907E+01 0.36732773154E+01 0.61762775044E+01 0.99844450569E+01
 0.15396946082E+02 0.22458823157E+02 0.30728938930E+02 0.39143824498E+02 0.46148344680E+02
 0.50155320184E+02 0.50155470874E+02 0.46148504710E+02 0.39143983451E+02 0.14556420057E+02
 0.10566319116E+02 0.72433970232E+01 0.47225932965E+01 0.29505089378E+01 0.17777158177E+01
 0.10388368266E+01 0.59220539387E+00 0.33039757657E+00 0.18141311921E+00 0.98185881220E-01
 0.52740769285E-01 0.28193582377E-01 0.15274562283E-01 0.85626457040E-02 0.52829029591E-02
 0.37927414684E-02 0.33236076133E-02 0.33556274146E-02 0.37046868102E-02 0.41429304713E-02
 0.45907924993E-02 0.49675817132E-02 0.52372446259E-02 0.53396967857E-02 0.52589844619E-02
 0.50174635942E-02 0.46410651122E-02 0.42054515128E-02 0.37429829526E-02 0.33960486754E-02
 0.32953386655E-02 0.37072051933E-02 0.50000513516E-02 0.80314152356E-02 0.14144090266E-01
 0.26118425116E-01 0.48725603551E-01 0.90929579342E-01 0.16807090343E+00 0.30690293169E+00
 0.55101019646E+00 0.96972413040E+00 0.16647245010E+01 0.27743281762E+01 0.44631957128E+01
 0.68840712366E+01 0.10108988764E+02 0.14032284118E+02 0.18282618928E+02 0.22223607181E+02
 0.25084247575E+02 0.26212302616E+02 0.25330049547E+02 0.22655702260E+02 0.18807226855E+02
 0.67526365366E+01 0.48873498866E+01 0.33595770908E+01 0.22065486427E+01 0.13924808381E+01
 0.85014194041E+00 0.50399969920E+00 0.29159450590E+00 0.16548510821E+00 0.92292193402E-01
 0.50984870864E-01 0.28008458851E-01 0.15653146682E-01 0.91337095527E-02 0.59890467561E-02
 0.46549444834E-02 0.44302477168E-02 0.47839879393E-02 0.55203585273E-02 0.64007579130E-02
 0.73513128716E-02 0.81643780046E-02 0.88102888857E-02 0.91492902988E-02 0.92023391561E-02
 0.89085209228E-02 0.83544240826E-02 0.75570358465E-02 0.66539049008E-02 0.57227032912E-02
 0.49549239963E-02 0.44612290521E-02 0.45298152389E-02 0.55104455185E-02 0.81199975199E-02
 0.13582691404E-01 0.24177291642E-01 0.43876273137E-01 0.79642140342E-01 0.14315989949E+00
 0.25354759716E+00 0.44048677013E+00 0.74776936773E+00 0.12347032608E+01 0.19734103866E+01
 0.30363542902E+01 0.44710625345E+01 0.62607653690E+01 0.82869179029E+01 0.10308985656E+02
 0.11996336941E+02 0.13012025850E+02 0.13130768566E+02 0.12324839969E+02 0.10776517737E+02
 0.88051439351E+01 0.30967529386E+01 0.22403500282E+01 0.15454102143E+01 0.10226888284E+01
 0.65275118355E+00 0.40298374287E+00 0.24236986966E+00 0.14241560423E+00 0.82048974682E-01
 0.46754832837E-01 0.26509472429E-01 0.15357394179E-01 0.94126600630E-02 0.66203374783E-02
 0.56275432384E-02 0.58050705148E-02 0.66803649312E-02 0.80527724385E-02 0.96730721921E-02
 0.11408215781E-01 0.13040689211E-01 0.14426839733E-01 0.15363596081E-01 0.15781488141E-01
 0.15588873978E-01 0.14842180421E-01 0.13600718341E-01 0.12042462945E-01 0.10316309495E-01
 0.86381618683E-02 0.71477889505E-02 0.60684291268E-02 0.55877249898E-02 0.60778184845E-02
 0.80867332813E-02 0.12647798522E-01 0.21516686369E-01 0.37780581097E-01 0.66533628648E-01
 0.11605022836E+00 0.19902034593E+00 0.33410336975E+00 0.54657103242E+00 0.86769435756E+00
 0.13301685184E+01 0.19593530746E+01 0.27584350036E+01 0.36923427950E+01 0.46752350703E+01
 0.55748218535E+01 0.62362559440E+01 0.65306637376E+01 0.63949132278E+01 0.58583500950E+01
 0.50302079024E+01 0.40615657126E+01 0.14111314263E+01 0.10216068080E+01 0.70855639189E+00
 0.47224664623E+00 0.30402271695E+00 0.19034459004E+00 0.11591511781E+00 0.69179513147E-01
 0.40778170095E-01 0.23932851067E-01 0.14448452854E-01 0.93848354011E-02 0.71644302232E-02
 0.66842300180E-02 0.74526792116E-02 0.90823046976E-02 0.11397173255E-01 0.14168615897E-01
 0.17211136875E-01 0.20233942957E-01 0.22970143209E-01 0.25093612686E-01 0.26378029012E-01
 0.26633176721E-01 0.25853177471E-01 0.24119005006E-01 0.21660025502E-01 0.18740825161E-01
 0.15678111007E-01 0.12735456604E-01 0.10171908232E-01 0.81659832343E-02 0.69435354382E-02
 0.67422780352E-02 0.80072523224E-02 0.11481690482E-01 0.18484759509E-01 0.31199988084E-01
 0.53157541070E-01 0.89765355135E-01 0.14893279643E+00 0.24138647466E+00 0.38053100192E+00
 0.58090847776E+00 0.85506406803E+00 0.12078341878E+01 0.16299549665E+01 0.20920730151E+01
 0.25435630588E+01 0.29185564259E+01 0.31534851625E+01 0.32029412454E+01 0.30571361307E+01
 0.27449729645E+01 0.23233845164E+01 0.18589735136E+01 0.64213143532E+00 0.46514962818E+00
 0.32359407008E+00 0.21750109230E+00 0.14164947840E+00 0.89448714425E-01 0.55437796050E-01
 0.33830201949E-01 0.20622541196E-01 0.13077947871E-01 0.91031525897E-02 0.76091922699E-02
 0.77827039259E-02 0.93264354898E-02 0.11962611820E-01 0.15599699257E-01 0.20043002429E-01
 0.25084427644E-01 0.30353562371E-01 0.35412936298E-01 0.39728918371E-01 0.42823567209E-01
 0.44287354775E-01 0.43950647844E-01 0.41837604424E-01 0.38233847339E-01 0.33570324181E-01
 0.28375455360E-01 0.23142328472E-01 0.18293755353E-01 0.14127419845E-01 0.10857065277E-01
 0.86045482488E-02 0.75463084826E-02 0.79324485353E-02 0.10263652436E-01 0.15404704116E-01
 0.24807921590E-01 0.40735375887E-01 0.66501883343E-01 0.10663238044E+00 0.16685064764E+00
 0.25353910806E+00 0.37260697776E+00 0.52737689989E+00 0.71607960094E+00 0.92901439870E+00
 0.11471544899E+01 0.13442306420E+01 0.14909353829E+01 0.15623502883E+01 0.15455264977E+01
 0.14434760523E+01 0.12743892794E+01 0.10660425940E+01 0.84745523152E+00 0.29133406300E+00
 0.21172788965E+00 0.14831803618E+00 0.10023676970E+00 0.65777688143E-01 0.42408093950E-01
 0.26802670728E-01 0.17085784167E-01 0.11469315077E-01 0.86179128696E-02 0.79162086053E-02
 0.88471212484E-02 0.11317736360E-01 0.15200278518E-01 0.20548473353E-01 0.27257248531E-01
 0.35156880906E-01 0.43811815469E-01 0.52606585615E-01 0.60704256998E-01 0.67219684691E-01
 0.71328413875E-01 0.72501636575E-01 0.70558800087E-01 0.65782974531E-01 0.58793059113E-01
 0.50441576663E-01 0.41609537244E-01 0.33088335403E-01 0.25461366947E-01 0.19076428109E-01
 0.14093973758E-01 0.10563297531E-01 0.84771613378E-02 0.79175653464E-02 0.91060455991E-02
 0.12544434918E-01 0.19089477456E-01 0.30066290684E-01 0.47345838818E-01 0.73343784872E-01
 0.11081934950E+00 0.16247747328E+00 0.23017822641E+00 0.31394780624E+00 0.41073465549E+00
 0.51376024516E+00 0.61275140296E+00 0.69493097868E+00 0.74792549635E+00 0.76318583678E+00
 0.73803500437E+00 0.67681735874E+00 0.58935121081E+00 0.48806590835E+00 0.38542308329E+00
 0.13282686445E+00 0.96469930809E-01 0.67691658125E-01 0.46317299647E-01 0.30989691422E-01
 0.20301964509E-01 0.13634109573E-01 0.97205392542E-02 0.79534198133E-02 0.80693836475E-02
 0.97971567022E-02 0.13264718276E-01 0.18557182564E-01 0.25947644694E-01 0.35507714174E-01
 0.47204548480E-01 0.60619338652E-01 0.74983913419E-01 0.89093130251E-01 0.10150147412E+00
 0.11070277240E+00 0.11548463667E+00 0.11515511893E+00 0.10977984740E+00 0.10009727480E+00
 0.87391815199E-01 0.73167652336E-01 0.58873457476E-01 0.45635331210E-01 0.34192888131E-01
 0.24902164066E-01 0.17791632177E-01 0.12723179182E-01 0.94980847563E-02 0.79625787299E-02
 0.80979952417E-02 0.10071359807E-01 0.14298277725E-01 0.21471673152E-01 0.32546017593E-01
 0.48668153003E-01 0.71040604475E-01 0.10060374561E+00 0.13764906606E+00 0.18129874444E+00
 0.22920616327E+00 0.27736572544E+00 0.32038313308E+00 0.35268135302E+00 0.36960438748E+00
 0.36839151609E+00 0.34932464973E+00 0.31530438263E+00 0.27127219907E+00 0.22307003109E+00
 0.17572674926E+00 0.60325339444E-01 0.44192532355E-01 0.31449879483E-01 0.21717097036E-01
 0.14861279709E-01 0.10588324291E-01 0.80427713652E-02 0.72479660011E-02 0.80766235286E-02
 0.10511483281E-01 0.14936438632E-01 0.21685725921E-01 0.31307221949E-01 0.44157091942E-01
 0.60494477279E-01 0.80069291998E-01 0.10209248564E+00 0.12503281531E+00 0.14676616743E+00
 0.16479468611E+00 0.17676508991E+00 0.18095650332E+00 0.17676438235E+00 0.16479207892E+00
 0.14676402199E+00 0.12503654866E+00 0.10209502479E+00 0.80067740993E-01 0.60491538759E-01
 0.44164269602E-01 0.31299726517E-01 0.21697995783E-01 0.14927070326E-01 0.10515505921E-01
 0.80460954174E-02 0.72546837141E-02 0.80448854171E-02 0.10517013198E-01 0.14928932073E-01
 0.21695577001E-01 0.31299943117E-01 0.44164241890E-01 0.60494368838E-01 0.80071107415E-01
 0.10209751534E+00 0.12503426226E+00 0.14673263020E+00 0.16480405478E+00 0.17684101814E+00
 0.18104896307E+00 0.17690370954E+00 0.16492970016E+00 0.14689613929E+00 0.12518423600E+00
 0.10210967329E+00 0.79922952813E-01 0.27925241121E-01 0.20405560503E-01 0.14598646743E-01
 0.10575686937E-01 0.79621474691E-02 0.64727416382E-02 0.64775451714E-02 0.78336637046E-02
 0.10853675886E-01 0.16122775953E-01 0.24212322669E-01 0.36001939760E-01 0.52273198099E-01
 0.73755323354E-01 0.10060392809E+00 0.13227056345E+00 0.16708536838E+00 0.20227400633E+00
 0.23412848169E+00 0.25864965590E+00 0.27236082606E+00 0.27319643035E+00 0.26101129853E+00
 0.23767818011E+00 0.20651929234E+00 0.17152992381E+00 0.13649269216E+00 0.10432986680E+00
 0.76812332015E-01 0.54670086465E-01 0.37762277690E-01 0.25473009742E-01 0.16961832888E-01
 0.11405023727E-01 0.81092646018E-02 0.65643530694E-02 0.64616155440E-02 0.76607827425E-02
 0.10184673378E-01 0.14131447307E-01 0.19630907723E-01 0.26772540959E-01 0.35507651515E-01
 0.45560999601E-01 0.56350138468E-01 0.67039552156E-01 0.76572316221E-01 0.83761872267E-01
 0.87709609118E-01 0.87946260909E-01 0.84343182495E-01 0.77487252388E-01 0.68217123025E-01
 0.57597247370E-01 0.46871953615E-01 0.36832795388E-01 0.12888442355E-01 0.97856404763E-02
 0.74824269483E-02 0.58721163074E-02 0.51996376481E-02 0.57481403837E-02 0.74096828722E-02
 0.10837615256E-01 0.16678707657E-01 0.25761206928E-01 0.39359318797E-01 0.58760846440E-01
 0.85316883618E-01 0.11986868830E+00 0.16247777065E+00 0.21173157442E+00 0.26451565737E+00
 0.31594339645E+00 0.35998863000E+00 0.39059170860E+00 0.40311262386E+00 0.39554603468E+00
 0.36911797166E+00 0.32789210301E+00 0.27772253809E+00 0.22476594778E+00 0.17425286798E+00
 0.12979506481E+00 0.93182407426E-01 0.64692974365E-01 0.43609969397E-01 0.28686839305E-01
 0.18577331909E-01 0.12039641335E-01 0.80844681172E-02 0.59825772347E-02 0.52523234177E-02
 0.56109589687E-02 0.69045542728E-02 0.90795783898E-02 0.12122780216E-01 0.15984384012E-01
 0.20548437978E-01 0.25586056606E-01 0.30767255494E-01 0.35620011973E-01 0.39637726446E-01
 0.42413683495E-01 0.43577611992E-01 0.42907210164E-01 0.40584874865E-01 0.36815640246E-01
 0.32101054216E-01 0.26986284560E-01 0.21783468589E-01 0.16951499366E-01 0.65764292564E-02
 0.51024941142E-02 0.42244309555E-02 0.41742769754E-02 0.49646454875E-02 0.67533875696E-02
 0.10378087079E-01 0.16433632208E-01 0.26059933997E-01 0.40870802320E-01 0.62638925907E-01
 0.93451452502E-01 0.13509309926E+00 0.18865262432E+00 0.25353957483E+00 0.32691773908E+00
 0.40315536052E+00 0.47422559301E+00 0.53089090655E+00 0.56472836935E+00 0.57028085175E+00
 0.54663510119E+00 0.49765342405E+00 0.43090301309E+00 0.35555319005E+00 0.28030437665E+00
 0.21175382146E+00 0.15377064896E+00 0.10770933279E+00 0.73025277632E-01 0.48108199754E-01
 0.30937672670E-01 0.19556072030E-01 0.12307289417E-01 0.79172082764E-02 0.54712987207E-02
 0.43608589968E-02 0.41931103897E-02 0.47529950380E-02 0.59026992175E-02 0.75447392579E-02
 0.96002859075E-02 0.11962592315E-01 0.14484815937E-01 0.16952349606E-01 0.19153175939E-01
 0.20857049409E-01 0.21815939241E-01 0.21928640439E-01 0.21249085458E-01 0.19768861348E-01
 0.17751453935E-01 0.15370300217E-01 0.12811720873E-01 0.10446519526E-01 0.83710634785E-02
 0.36243972797E-02 0.33414324265E-02 0.35229948589E-02 0.42661375894E-02 0.60606165425E-02
 0.96172428755E-02 0.15496493667E-01 0.25139503259E-01 0.40316395607E-01 0.63247714945E-01
 0.96776665595E-01 0.14374586600E+00 0.20656868699E+00 0.28607182091E+00 0.38053170407E+00
 0.48448477824E+00 0.58860088929E+00 0.68052220576E+00 0.74716798588E+00 0.77789761331E+00
 0.76750568610E+00 0.71776533033E+00 0.63692267344E+00 0.53724621579E+00 0.43181911203E+00
 0.33167628956E+00 0.24426741091E+00 0.17307810566E+00 0.11841324981E+00 0.78506648104E-01
 0.50627355047E-01 0.31896005075E-01 0.19751291457E-01 0.12151361142E-01 0.75841609349E-02
 0.50068227215E-02 0.37227700254E-02 0.33077764553E-02 0.34775844466E-02 0.40751105798E-02
 0.49987946336E-02 0.61571162413E-02 0.74526687720E-02 0.87756197740E-02 0.10023040724E-01
 0.11057824436E-01 0.11767012524E-01 0.12114752820E-01 0.12047712439E-01 0.11507984792E-01
 0.10647245077E-01 0.94779042406E-02 0.81620539714E-02 0.68741361218E-02 0.55703650893E-02
 0.44176980358E-02 0.29595765942E-02 0.29684089492E-02 0.36148864237E-02 0.53354584368E-02
 0.85410090052E-02 0.13928666584E-01 0.23072938578E-01 0.37715244207E-01 0.60456787611E-01
 0.94723170671E-01 0.14429115564E+00 0.21299962923E+00 0.30352618232E+00 0.41607716837E+00
 0.54657203866E+00 0.68575332751E+00 0.81912583267E+00 0.92904092654E+00 0.99855236303E+00
 0.10159292864E+01 0.97812432318E+00 0.89171678582E+00 0.77087685608E+00 0.63335822892E+00
 0.49600509111E+00 0.37144033452E+00 0.26693138048E+00 0.18477724345E+00 0.12365469719E+00
 0.80302126781E-01 0.50793396633E-01 0.31431237995E-01 0.19137177124E-01 0.11583824670E-01
 0.71122824269E-02 0.46054339414E-02 0.33450491314E-02 0.28709296534E-02 0.29248593119E-02
 0.33340304486E-02 0.39747787200E-02 0.47642053129E-02 0.56275380038E-02 0.64947706032E-02
 0.72640818396E-02 0.78697455623E-02 0.82463920427E-02 0.83166228355E-02 0.80812701563E-02
 0.76327035405E-02 0.69290265145E-02 0.61233228609E-02 0.52645560346E-02 0.43780598323E-02
 0.36896477552E-02 0.32242968840E-02 0.28747050539E-02 0.34576061220E-02 0.48492663600E-02
 0.74343827778E-02 0.12114426937E-01 0.20287994318E-01 0.33580515883E-01 0.54826804656E-01
 0.87687818279E-01 0.13661073195E+00 0.20670418318E+00 0.30252280693E+00 0.42667740677E+00
 0.57758411565E+00 0.74777073449E+00 0.92249108166E+00 0.10810306784E+01 0.12004463277E+01
 0.12610899972E+01 0.12522230498E+01 0.11754500503E+01 0.10441763317E+01 0.87945455633E+00
 0.70409452644E+00 0.53763756233E+00 0.39298152937E+00 0.27596573077E+00 0.18692781387E+00
 0.12258738280E+00 0.78134151651E-01 0.48586097732E-01 0.29613895930E-01 0.17810045066E-01
 0.10700899067E-01 0.65799908166E-02 0.43385570100E-02 0.32651222241E-02 0.29480151828E-02
 0.31045222985E-02 0.35819780692E-02 0.42806110536E-02 0.51117070702E-02 0.59890448333E-02
 0.68099674843E-02 0.75063541048E-02 0.79975402623E-02 0.82327446879E-02 0.82149970653E-02
 0.79401332236E-02 0.73750294220E-02 0.66683245447E-02 0.58129588856E-02 0.49287106521E-02
 0.41696998164E-02 0.34638211310E-02 0.29560093382E-02 0.37921341772E-02 0.44972139120E-02
 0.63891764130E-02 0.10244294919E-01 0.17077509167E-01 0.28454067081E-01 0.47191221181E-01
 0.76801600427E-01 0.12207933627E+00 0.18890238908E+00 0.28328200884E+00 0.41018185978E+00
 0.57111826895E+00 0.76186003734E+00 0.96972587767E+00 0.11736147395E+01 0.13467427534E+01
 0.14619100728E+01 0.14991007972E+01 0.14514751816E+01 0.13277453857E+01 0.11492236145E+01
 0.94345452127E+00 0.73673756764E+00 0.54921432823E+00 0.39243460814E+00 0.26978484849E+00
 0.17916861816E+00 0.11539130998E+00 0.72352648101E-01 0.44356713116E-01 0.26736011094E-01
 0.15993332166E-01 0.96706993491E-02 0.61371698900E-02 0.43442938557E-02 0.36619791169E-02
 0.36835852494E-02 0.42072117708E-02 0.50727367440E-02 0.61556830808E-02 0.73589027247E-02
 0.85626465118E-02 0.96647332433E-02 0.10549548364E-01 0.11124056106E-01 0.11313123895E-01
 0.11064148064E-01 0.10415939068E-01 0.95136588837E-02 0.83759436074E-02 0.71657311806E-02
 0.59734357655E-02 0.48748390031E-02 0.40988518551E-02 0.37192788246E-02 0.47909506745E-02
 0.60015607598E-02 0.88120623707E-02 0.14026076344E-01 0.23208440023E-01 0.38778485151E-01
 0.63873066717E-01 0.10322989055E+00 0.16284377622E+00 0.24947784776E+00 0.36991135333E+00
 0.52852303242E+00 0.72498124527E+00 0.95056096056E+00 0.11867664051E+01 0.14064310840E+01
 0.15777028003E+01 0.16719283852E+01 0.16719262075E+01 0.15777003946E+01 0.14064413071E+01
 0.11867695022E+01 0.95056304291E+00 0.72497068671E+00 0.52853455648E+00 0.36991337923E+00
 0.24947431718E+00 0.16281824700E+00 0.10322964773E+00 0.63857772543E-01 0.38733567809E-01
 0.23229319817E-01 0.13986692915E-01 0.87390305530E-02 0.60039802669E-02 0.48818758719E-02
 0.48122370403E-02 0.55058157956E-02 0.67306065925E-02 0.83503528060E-02 0.10264827995E-01
 0.12289686804E-01 0.14245555671E-01 0.15947558052E-01 0.17213528208E-01 0.17881777053E-01
 0.17875810232E-01 0.17219116359E-01 0.15985762778E-01 0.14256154506E-01 0.12320391956E-01
 0.10315020383E-01 0.83904503431E-02 0.67914920275E-02 0.55283911889E-02 0.47564769707E-02
 0.65206858542E-02 0.79091932638E-02 0.11442345951E-01 0.18385613796E-01 0.30517758467E-01
 0.50546149519E-01 0.82774519574E-01 0.13267786916E+00 0.20705891494E+00 0.31353290313E+00
 0.45845467629E+00 0.64496501836E+00 0.86923558392E+00 0.11175171884E+01 0.13659616454E+01
 0.15823118434E+01 0.17327871727E+01 0.17907849468E+01 0.17454991219E+01 0.16053754762E+01
 0.13954545742E+01 0.11491560340E+01 0.89935845557E+00 0.67111488167E+00 0.47947700956E+00
 0.32944390801E+00 0.21848676353E+00 0.14048673774E+00 0.87931327448E-01 0.53852244657E-01
 0.32501324583E-01 0.19605908269E-01 0.12165501386E-01 0.82182507700E-02 0.65272065161E-02
 0.63595795773E-02 0.73015833649E-02 0.90882496761E-02 0.11573527299E-01 0.14629230035E-01
 0.17988908260E-01 0.21395995009E-01 0.24580089417E-01 0.27212759483E-01 0.28970250878E-01
 0.29638501916E-01 0.29124072275E-01 0.27476994846E-01 0.24916869990E-01 0.21812808038E-01
 0.18384383587E-01 0.14972736073E-01 0.11904965290E-01 0.93118463383E-02 0.74452720825E-02
 0.64797667060E-02 0.82013252287E-02 0.10089674120E-01 0.14731535316E-01 0.23413206039E-01
 0.38444819734E-01 0.63319952779E-01 0.10259951761E+00 0.16253341386E+00 0.25049635946E+00
 0.37371389486E+00 0.53760301299E+00 0.74281776794E+00 0.98123260425E+00 0.12345558889E+01
 0.14746550389E+01 0.16673506855E+01 0.17805762806E+01 0.17936674085E+01 0.17041834481E+01
 0.15286327728E+01 0.12971294991E+01 0.10440954932E+01 0.79985128590E+00 0.58518206937E+00
 0.41073847426E+00 0.27771113421E+00 0.18159304820E+00 0.11536062602E+00 0.71528396377E-01
 0.43592343062E-01 0.26436162157E-01 0.16381586741E-01 0.10940889096E-01 0.85336605319E-02
 0.82209968356E-02 0.94775460859E-02 0.12022362760E-01 0.15709418984E-01 0.20368203428E-01
 0.25755521914E-01 0.31543216038E-01 0.37301260042E-01 0.42455837703E-01 0.46400557590E-01
 0.48653276292E-01 0.48905926237E-01 0.47136909198E-01 0.43580422680E-01 0.38691376745E-01
 0.33000357385E-01 0.27228128705E-01 0.21722759061E-01 0.16789944480E-01 0.12907922640E-01
 0.10035192201E-01 0.83493314737E-02 0.10413578088E-01 0.12478768343E-01 0.17921813768E-01
 0.28422508221E-01 0.46454055038E-01 0.75577601452E-01 0.12109470604E+00 0.18928795331E+00
 0.28726714653E+00 0.42134006229E+00 0.59499666085E+00 0.80548961965E+00 0.10406923693E+01
 0.12791231171E+01 0.14908903672E+01 0.16436191690E+01 0.17107446857E+01 0.16798650010E+01
 0.15567257020E+01 0.13634441803E+01 0.11311751760E+01 0.89174859063E+00 0.67005430267E+00
 0.48177439984E+00 0.33306838952E+00 0.22217363777E+00 0.14364248950E+00 0.90455091725E-01
 0.55822365938E-01 0.34160848114E-01 0.21217935243E-01 0.14074573423E-01 0.10802444574E-01
 0.10283320925E-01 0.11886437878E-01 0.15342738461E-01 0.20540861539E-01 0.27336391281E-01
 0.35605800552E-01 0.44961015966E-01 0.54694550824E-01 0.63962961280E-01 0.71781920394E-01
 0.77230878252E-01 0.79568401910E-01 0.78498710183E-01 0.74150950008E-01 0.67121997531E-01
 0.58262409773E-01 0.48604931886E-01 0.38959436284E-01 0.30237836755E-01 0.22903063905E-01
 0.17026537395E-01 0.12941893747E-01 0.10699947004E-01 0.12327872774E-01 0.14796126666E-01
 0.21234556992E-01 0.33258743739E-01 0.53571611256E-01 0.86189446376E-01 0.13600573770E+00
 0.20915890680E+00 0.31186518931E+00 0.44856340064E+00 0.62036564076E+00 0.82109079467E+00
 0.10359401263E+01 0.12420992038E+01 0.14113188264E+01 0.15162417099E+01 0.15382512031E+01
 0.14732745359E+01 0.13331635216E+01 0.11418073508E+01 0.92800159369E+00 0.71784263426E+00
 0.53026239217E+00 0.37575926974E+00 0.25647149148E+00 0.16924631892E+00 0.10854838803E+00
 0.68049079242E-01 0.42146180472E-01 0.26344223553E-01 0.17411589009E-01 0.13189122372E-01
 0.12382433212E-01 0.14326965581E-01 0.18766143450E-01 0.25717952225E-01 0.35173349755E-01
 0.47166900285E-01 0.61332281313E-01 0.76802332580E-01 0.92471774447E-01 0.10687503506E+00
 0.11831737512E+00 0.12525797206E+00 0.12670412744E+00 0.12243081273E+00 0.11306261028E+00
 0.99925256608E-01 0.84710231319E-01 0.68988272290E-01 0.54070426744E-01 0.40889697977E-01
 0.30148280465E-01 0.21982488976E-01 0.16273645759E-01 0.12994622925E-01 0.14430542262E-01