unknown system                          
   1.00000000000000     
    -2.478974   -1.431236    2.024073
     1.239487   -0.715618    4.048147
     0.000000    2.862472    2.024073
   Ni
     4
Direct
  0.500000  0.000000  0.500000
  0.250000  0.500000  0.750000
  0.750000  0.500000  0.250000
  0.000000  0.000000  0.000000
 
   56   64   56
 0.17528416465E+04 0.42482914589E+04 0.86102554723E+03 0.11349148848E+04 0.13381483474E+04
 0.10989916876E+04 0.76004088673E+03 0.48695205320E+03 0.30350491766E+03 0.18918512206E+03
 0.11990999443E+03 0.78171288738E+02 0.52735503156E+02 0.37035724448E+02 0.26527893087E+02
 0.20526756161E+02 0.16286022061E+02 0.13349932808E+02 0.11312152246E+02 0.98635500574E+01
 0.88319984458E+01 0.80783832602E+01 0.75336029078E+01 0.71436068665E+01 0.68658240171E+01
 0.66702246458E+01 0.65411588589E+01 0.64679207587E+01 0.64442021009E+01 0.64679207587E+01
 0.65411588589E+01 0.66702246458E+01 0.68658240171E+01 0.71436068665E+01 0.75336029078E+01
 0.80783832602E+01 0.88319984458E+01 0.98635500574E+01 0.11312152246E+02 0.13349932808E+02
 0.16286022061E+02 0.20526756161E+02 0.26527893087E+02 0.37035724448E+02 0.52735503156E+02
 0.78171288738E+02 0.11990999443E+03 0.18918512206E+03 0.30350491766E+03 0.48695205320E+03
 0.76004088673E+03 0.10989916876E+04 0.13381483474E+04 0.11349148848E+04 0.86102554723E+03
 0.42482914589E+04 0.38328021456E+04 0.11732807525E+04 0.93960802117E+03 0.13235684342E+04
 0.12387263475E+04 0.91825552013E+03 0.60879172437E+03 0.38469122046E+03 0.24000715399E+03
 0.15100824914E+03 0.97121866789E+02 0.64439645002E+02 0.44346438160E+02 0.31749525569E+02
 0.23484941274E+02 0.18344986747E+02 0.14797385081E+02 0.12319509457E+02 0.10596785148E+02
 0.93567023053E+01 0.84726321565E+01 0.78235644974E+01 0.73601632979E+01 0.70223725294E+01
 0.67866929381E+01 0.66238645421E+01 0.65234113586E+01 0.64734013087E+01 0.64702713005E+01
 0.65146380858E+01 0.66080048213E+01 0.67630012821E+01 0.69877384919E+01 0.73117013780E+01
 0.77569494756E+01 0.83800143776E+01 0.92292818511E+01 0.10418812465E+02 0.12069556207E+02
 0.14436791235E+02 0.17825284764E+02 0.22745288999E+02 0.30525602896E+02 0.42446649063E+02
 0.61366741542E+02 0.92099363829E+02 0.14269823613E+03 0.22632072638E+03 0.36272303529E+03
 0.57582394302E+03 0.87612061504E+03 0.12045734023E+04 0.13379991853E+04 0.10012597723E+04
 0.10087350590E+04 0.35086117427E+04 0.80713527051E+03 0.98357845918E+03 0.13056602001E+04
 0.12875026572E+04 0.10124719729E+04 0.70049198898E+03 0.45446604079E+03 0.28742321459E+03
 0.18158299303E+03 0.11642249349E+03 0.76604047890E+02 0.52068873411E+02 0.36774787612E+02
 0.26470113701E+02 0.20540306747E+02 0.16341208241E+02 0.13420599306E+02 0.11393077580E+02
 0.99492869400E+01 0.89179702085E+01 0.81678395813E+01 0.76331814613E+01 0.72365174823E+01
 0.69575153707E+01 0.67590422459E+01 0.66344642324E+01 0.65582690988E+01 0.65342715921E+01
 0.65474250463E+01 0.66117038314E+01 0.67210222062E+01 0.69015183142E+01 0.71563965017E+01
 0.75235232464E+01 0.80156615407E+01 0.87089457737E+01 0.96569548528E+01 0.10988104134E+02
 0.12840473366E+02 0.15513351334E+02 0.19336094889E+02 0.24819413633E+02 0.33906610888E+02
 0.47551536054E+02 0.69333245795E+02 0.10456475993E+03 0.16218516618E+03 0.25608061970E+03
 0.40579153540E+03 0.63131290101E+03 0.93171629202E+03 0.12329545673E+04 0.13373632035E+04
 0.10788286857E+04 0.80521999410E+03 0.88846987128E+03 0.12278065053E+04 0.13410271375E+04
 0.12685635561E+04 0.10251360581E+04 0.73824879502E+03 0.49576996228E+03 0.32146153815E+03
 0.20626524740E+03 0.13327482075E+03 0.87777896984E+02 0.59450849726E+02 0.41649320811E+02
 0.30248669529E+02 0.22713378120E+02 0.17901697404E+02 0.14563172527E+02 0.12220846343E+02
 0.10582531057E+02 0.94011046383E+01 0.85570219388E+01 0.79396402783E+01 0.75020118406E+01
 0.71782298672E+01 0.69561099286E+01 0.67987756662E+01 0.67071691514E+01 0.66540911954E+01
 0.66506551172E+01 0.66793731347E+01 0.67611199691E+01 0.68868489812E+01 0.70882317668E+01
 0.73647731189E+01 0.77620992100E+01 0.82980977614E+01 0.90556268323E+01 0.10089179762E+02
 0.11544706413E+02 0.13580071850E+02 0.16511688002E+02 0.20704466925E+02 0.26598351991E+02
 0.36801373424E+02 0.51796239870E+02 0.75574905517E+02 0.11363049187E+03 0.17483536461E+03
 0.27222580253E+03 0.42252545779E+03 0.63971755378E+03 0.91631019081E+03 0.11907638333E+04
 0.13396450493E+04 0.12831474090E+04 0.11417857046E+04 0.11109956796E+04 0.12985086754E+04
 0.11693916104E+04 0.95453896976E+03 0.71201820103E+03 0.49719346020E+03 0.33349803329E+03
 0.21964078901E+03 0.14450932959E+03 0.96216586124E+02 0.65498016655E+02 0.45876944594E+02
 0.33242225146E+02 0.24666002832E+02 0.19382223132E+02 0.15669663620E+02 0.13044279644E+02
 0.11222605445E+02 0.99018860574E+01 0.89704633937E+01 0.82833395822E+01 0.78002833657E+01
 0.74387724032E+01 0.71973968577E+01 0.70202857609E+01 0.69145604068E+01 0.68422356427E+01
 0.68207830974E+01 0.68244166435E+01 0.68757391891E+01 0.69587279743E+01 0.71025255106E+01
 0.73045702298E+01 0.76065411827E+01 0.80204653966E+01 0.86009461013E+01 0.93961575978E+01
 0.10509699364E+02 0.12052937610E+02 0.14242438443E+02 0.17357752410E+02 0.21816803786E+02
 0.27947941545E+02 0.38896912962E+02 0.54592846064E+02 0.79135945854E+02 0.11765663166E+03
 0.17802237571E+03 0.27094660697E+03 0.40864481726E+03 0.59891473135E+03 0.83262816204E+03
 0.10696730928E+04 0.12466678447E+04 0.13271638895E+04 0.13427612521E+04 0.13393057127E+04
 0.97592865186E+03 0.81235904271E+03 0.62878461715E+03 0.45833231521E+03 0.32025731698E+03
 0.21839957249E+03 0.14770276613E+03 0.10034414857E+03 0.69255537097E+02 0.48886778102E+02
 0.35563044792E+02 0.26224297931E+02 0.20665259118E+02 0.16654390515E+02 0.13818500230E+02
 0.11827007371E+02 0.10403527015E+02 0.93849627981E+01 0.86482004338E+01 0.81231108369E+01
 0.77428109055E+01 0.74727786682E+01 0.72888322798E+01 0.71657160962E+01 0.70906843929E+01
 0.70491687761E+01 0.70415136461E+01 0.70600734221E+01 0.71149885415E+01 0.72046956210E+01
 0.73508728776E+01 0.75616295133E+01 0.78721949329E+01 0.82982419568E+01 0.88983091030E+01
 0.97260234975E+01 0.10885201864E+02 0.12491448004E+02 0.14770984582E+02 0.17992282189E+02
 0.22565705009E+02 0.29577448616E+02 0.39925858675E+02 0.55532777917E+02 0.79398107855E+02
 0.11584929750E+03 0.17104867793E+03 0.25256383427E+03 0.36772678687E+03 0.51910397981E+03
 0.69766229865E+03 0.87800750535E+03 0.10251397347E+04 0.11128420977E+04 0.11336743107E+04
 0.10877340624E+04 0.63132781182E+03 0.51034814539E+03 0.38997065702E+03 0.28534822489E+03
 0.20285791928E+03 0.14209634935E+03 0.99313423647E+02 0.70034317529E+02 0.50213932373E+02
 0.36903404226E+02 0.27267729903E+02 0.21615571209E+02 0.17449529680E+02 0.14473840898E+02
 0.12371597109E+02 0.10866094075E+02 0.97913159691E+01 0.90138812017E+01 0.84629148758E+01
 0.80654912540E+01 0.77923295792E+01 0.76009965822E+01 0.74771662268E+01 0.73941403851E+01
 0.73496948681E+01 0.73268876295E+01 0.73321897778E+01 0.73564353275E+01 0.74133384557E+01
 0.75013921927E+01 0.76434455215E+01 0.78493597385E+01 0.81551465248E+01 0.85811969483E+01
 0.91870210926E+01 0.10025394228E+02 0.11199647765E+02 0.12828664803E+02 0.15128629397E+02
 0.18359900822E+02 0.22888538960E+02 0.29787985906E+02 0.39755044488E+02 0.54463884581E+02
 0.76320675911E+02 0.10858044123E+03 0.15542217954E+03 0.22134216143E+03 0.30954082582E+03
 0.41903208798E+03 0.54129677826E+03 0.65920709610E+03 0.75100892863E+03 0.79815705615E+03
 0.79125176719E+03 0.73165252632E+03 0.38470425296E+03 0.30902956393E+03 0.23755624865E+03
 0.17681151544E+03 0.12899849598E+03 0.93346474201E+02 0.67711029854E+02 0.49632410247E+02
 0.37092362380E+02 0.27685527439E+02 0.22147019636E+02 0.17975291075E+02 0.14967770068E+02
 0.12810962634E+02 0.11271596213E+02 0.10160932681E+02 0.93702234868E+01 0.88023190978E+01
 0.84110116360E+01 0.81335407344E+01 0.79515626841E+01 0.78319480621E+01 0.77634565876E+01
 0.77187435287E+01 0.76999555695E+01 0.76911318069E+01 0.77016454331E+01 0.77224996877E+01
 0.77703269958E+01 0.78440386521E+01 0.79710521184E+01 0.81619482432E+01 0.84525045881E+01
 0.88628274431E+01 0.94555299814E+01 0.10279735102E+02 0.11437909382E+02 0.13041630245E+02
 0.15292258519E+02 0.18426721107E+02 0.22761941135E+02 0.28490478139E+02 0.38415517031E+02
 0.51559609384E+02 0.70443465442E+02 0.97203243059E+02 0.13428285861E+03 0.18370034564E+03
 0.24599034283E+03 0.31845246470E+03 0.39396088776E+03 0.46115959256E+03 0.50728187129E+03
 0.52238609847E+03 0.50306494873E+03 0.45365584377E+03 0.23121983782E+03 0.18679554406E+03
 0.14581460395E+03 0.11115550565E+03 0.83634001841E+02 0.62694991475E+02 0.47247508317E+02
 0.36090806767E+02 0.27438723694E+02 0.22201819916E+02 0.18192492924E+02 0.15251893973E+02
 0.13121191854E+02 0.11587214314E+02 0.10482568509E+02 0.96939525257E+01 0.91381725571E+01
 0.87548667736E+01 0.84995846412E+01 0.83356250991E+01 0.82377174570E+01 0.81840350984E+01
 0.81579951286E+01 0.81474869299E+01 0.81442044082E+01 0.81442928526E+01 0.81476560309E+01
 0.81583974940E+01 0.81837877224E+01 0.82372968206E+01 0.83352886199E+01 0.85004581518E+01
 0.87546374727E+01 0.91382219145E+01 0.96936802748E+01 0.10483256720E+02 0.11586719197E+02
 0.13122306201E+02 0.15249304128E+02 0.18195611322E+02 0.22198466016E+02 0.27445450768E+02
 0.36085774137E+02 0.47251004901E+02 0.62701913789E+02 0.83624334614E+02 0.11116349923E+03
 0.14581710481E+03 0.18678775795E+03 0.23120846561E+03 0.27390315358E+03 0.30808719189E+03
 0.32721463954E+03 0.32720887223E+03 0.30808588542E+03 0.27390475980E+03 0.14065602769E+03
 0.11507233652E+03 0.91733744168E+02 0.71887933362E+02 0.55869384478E+02 0.43458203315E+02
 0.34059421773E+02 0.26559808818E+02 0.21788336496E+02 0.18076062274E+02 0.15309236765E+02
 0.13274491441E+02 0.11801383593E+02 0.10734022497E+02 0.99774232412E+01 0.94496635737E+01
 0.90975698731E+01 0.88741075934E+01 0.87466360597E+01 0.86818722921E+01 0.86633824280E+01
 0.86692560118E+01 0.86851599978E+01 0.86983895085E+01 0.87040066528E+01 0.86995660675E+01
 0.86864190578E+01 0.86713583954E+01 0.86629120498E+01 0.86785520787E+01 0.87345048343E+01
 0.88542586918E+01 0.90621787155E+01 0.93987123257E+01 0.98982983919E+01 0.10626179227E+02
 0.11645220989E+02 0.13067477143E+02 0.15014085228E+02 0.17687833260E+02 0.21259005052E+02
 0.25909545484E+02 0.33059422198E+02 0.42121554527E+02 0.54142918057E+02 0.69667328630E+02
 0.89042697328E+02 0.11200134476E+03 0.13742335640E+03 0.16299643862E+03 0.18547405246E+03
 0.20121642783E+03 0.20731645051E+03 0.20255472381E+03 0.18788499350E+03 0.16604870402E+03
 0.88043573715E+02 0.73257473360E+02 0.59775873696E+02 0.48234474577E+02 0.38801105711E+02
 0.31255499903E+02 0.25137658783E+02 0.20942154476E+02 0.17643769347E+02 0.15137841025E+02
 0.13267755498E+02 0.11900923855E+02 0.10904941704E+02 0.10206481491E+02 0.97277101360E+01
 0.94256814258E+01 0.92497333232E+01 0.91738789548E+01 0.91627289527E+01 0.91962355976E+01
 0.92480258699E+01 0.93083787735E+01 0.93551657770E+01 0.93858772330E+01 0.93875557945E+01
 0.93667147465E+01 0.93203692805E+01 0.92645286397E+01 0.92061168105E+01 0.91692858555E+01
 0.91647680965E+01 0.92243937915E+01 0.93695348796E+01 0.96392335907E+01 0.10066668255E+02
 0.10707852933E+02 0.11617716044E+02 0.12887053785E+02 0.14613884757E+02 0.16952235038E+02
 0.20037187428E+02 0.24001847284E+02 0.29663469315E+02 0.36733865298E+02 0.45684012268E+02
 0.56711408350E+02 0.69724034252E+02 0.84262437235E+02 0.99311129380E+02 0.11334092115E+03
 0.12448117044E+03 0.13099243289E+03 0.13174341676E+03 0.12659729825E+03 0.11646351346E+03
 0.10299149608E+03 0.57256069366E+02 0.48581747115E+02 0.40689223720E+02 0.33816630763E+02
 0.27471844457E+02 0.23309063861E+02 0.19761817655E+02 0.16951750900E+02 0.14762022112E+02
 0.13107306722E+02 0.11881716720E+02 0.10990151700E+02 0.10372315112E+02 0.99643490090E+01
 0.97266133664E+01 0.96175316479E+01 0.96088494698E+01 0.96682738386E+01 0.97735272075E+01
 0.98968077897E+01 0.10020915390E+02 0.10125304907E+02 0.10199489020E+02 0.10229703484E+02
 0.10216139120E+02 0.10156851243E+02 0.10063289559E+02 0.99441315994E+01 0.98193977364E+01
 0.97034157001E+01 0.96246554900E+01 0.96038232209E+01 0.96725866122E+01 0.98571285696E+01
 0.10197239252E+02 0.10730121415E+02 0.11512436802E+02 0.12601796406E+02 0.14085739426E+02
 0.16056125792E+02 0.18634600565E+02 0.21884111349E+02 0.25841957342E+02 0.31533544121E+02
 0.37964043792E+02 0.45509111641E+02 0.53958946505E+02 0.62850164080E+02 0.71455581022E+02
 0.78849254089E+02 0.84064667189E+02 0.86334063859E+02 0.85292639010E+02 0.81115703585E+02
 0.74428369801E+02 0.66150979254E+02 0.39007185645E+02 0.33775203138E+02 0.28246591727E+02
 0.24561607748E+02 0.21218471436E+02 0.18361981709E+02 0.16059902244E+02 0.14215855122E+02
 0.12809210210E+02 0.11753954650E+02 0.10990326145E+02 0.10471953716E+02 0.10149268806E+02
 0.99919823376E+01 0.99643896751E+01 0.10039851998E+02 0.10188314564E+02 0.10384888588E+02
 0.10603201002E+02 0.10818999033E+02 0.11007982442E+02 0.11152897055E+02 0.11237627024E+02
 0.11255725577E+02 0.11203403689E+02 0.11087468003E+02 0.10917948600E+02 0.10713052017E+02
 0.10492457455E+02 0.10282600396E+02 0.10106279204E+02 0.99915219705E+01 0.99636357545E+01
 0.10052598823E+02 0.10287548638E+02 0.10703675086E+02 0.11339127012E+02 0.12242050840E+02
 0.13466144297E+02 0.15079460059E+02 0.17149687920E+02 0.19731589188E+02 0.22821828995E+02
 0.26370064859E+02 0.31315558365E+02 0.36340016141E+02 0.41665732909E+02 0.46956361840E+02
 0.51749261035E+02 0.55520428705E+02 0.57796905193E+02 0.58266181893E+02 0.56865843629E+02
 0.53785649797E+02 0.49444063054E+02 0.44354690235E+02 0.27253581723E+02 0.24404488208E+02
 0.21623608393E+02 0.19069363818E+02 0.16881490967E+02 0.15053794356E+02 0.13558635736E+02
 0.12409898169E+02 0.11534943043E+02 0.10910591762E+02 0.10502650044E+02 0.10277403039E+02
 0.10213187218E+02 0.10278837026E+02 0.10452567783E+02 0.10706634041E+02 0.11017232957E+02
 0.11354383583E+02 0.11690729712E+02 0.11997659165E+02 0.12249486544E+02 0.12423152681E+02
 0.12504798625E+02 0.12485426388E+02 0.12368275044E+02 0.12162647709E+02 0.11887748826E+02
 0.11566521705E+02 0.11226848483E+02 0.10895772654E+02 0.10603673944E+02 0.10375987949E+02
 0.10240355394E+02 0.10220613414E+02 0.10342503503E+02 0.10631883112E+02 0.11117313568E+02
 0.11830139807E+02 0.12805173564E+02 0.14078650836E+02 0.15689956198E+02 0.17664491711E+02
 0.19996162057E+02 0.22628349302E+02 0.25469110803E+02 0.28351340654E+02 0.32401589318E+02
 0.35508345802E+02 0.38122304031E+02 0.39970639272E+02 0.40849002192E+02 0.40647638847E+02
 0.39387876510E+02 0.37225651081E+02 0.34387571100E+02 0.31147814318E+02 0.20861290791E+02
 0.18868343435E+02 0.17034689181E+02 0.15409042176E+02 0.13997703947E+02 0.12837814353E+02
 0.11935143366E+02 0.11239164451E+02 0.10760284644E+02 0.10469217467E+02 0.10348321380E+02
 0.10382379053E+02 0.10548013182E+02 0.10830372961E+02 0.11204812800E+02 0.11648061245E+02
 0.12129190384E+02 0.12617910670E+02 0.13078735632E+02 0.13477970039E+02 0.13783573511E+02
 0.13970978206E+02 0.14022886121E+02 0.13936319457E+02 0.13717594238E+02 0.13386146929E+02
 0.12968117450E+02 0.12496781813E+02 0.12006767387E+02 0.11532540256E+02 0.11103760918E+02
 0.10750579938E+02 0.10494827767E+02 0.10359873582E+02 0.10363810611E+02 0.10525672307E+02
 0.10863033774E+02 0.11394322626E+02 0.12137870093E+02 0.13111283744E+02 0.14326010943E+02
 0.15788418635E+02 0.17483565455E+02 0.19367605196E+02 0.21354670561E+02 0.23352836937E+02
 0.25220284124E+02 0.26813064064E+02 0.28025288118E+02 0.29577499474E+02 0.29819018157E+02
 0.29410163428E+02 0.27756200356E+02 0.26439484941E+02 0.24779747623E+02 0.22880295642E+02
 0.16488762075E+02 0.15209468849E+02 0.14021564027E+02 0.12976980501E+02 0.12116351526E+02
 0.11427112508E+02 0.10899715121E+02 0.10560600356E+02 0.10380561091E+02 0.10360849343E+02
 0.10491915388E+02 0.10760318214E+02 0.11157043530E+02 0.11660315837E+02 0.12250471499E+02
 0.12897495802E+02 0.13568983867E+02 0.14223387910E+02 0.14817699876E+02 0.15307770336E+02
 0.15655139052E+02 0.15830168232E+02 0.15818748128E+02 0.15620561657E+02 0.15253431494E+02
 0.14747666030E+02 0.14143898937E+02 0.13485435645E+02 0.12814722423E+02 0.12172504726E+02
 0.11592420297E+02 0.11100602927E+02 0.10720708822E+02 0.10467201873E+02 0.10354767098E+02
 0.10392902059E+02 0.10591572125E+02 0.10957901997E+02 0.11497951526E+02 0.12213659030E+02
 0.13104403139E+02 0.14158565252E+02 0.15356092550E+02 0.16656646420E+02 0.18005917386E+02
 0.19314774919E+02 0.20503524372E+02 0.21491364466E+02 0.22195929911E+02 0.22550507315E+02
 0.22529724676E+02 0.22133221652E+02 0.21389458723E+02 0.20366830840E+02 0.19145147449E+02
 0.17821811414E+02 0.13621852523E+02 0.12784889522E+02 0.12046352731E+02 0.11420070174E+02
 0.10907114095E+02 0.10535223348E+02 0.10320549993E+02 0.10241039420E+02 0.10317272046E+02
 0.10540758748E+02 0.10908303816E+02 0.11415784436E+02 0.12048106309E+02 0.12792353083E+02
 0.13620581520E+02 0.14500344696E+02 0.15384551542E+02 0.16221896856E+02 0.16953827086E+02
 0.17524881680E+02 0.17887821215E+02 0.18012720219E+02 0.17887563749E+02 0.17524837051E+02
 0.16954279825E+02 0.16222550455E+02 0.15384424453E+02 0.14499544860E+02 0.13621315255E+02
 0.12792061057E+02 0.12048420603E+02 0.11414944303E+02 0.10908477340E+02 0.10540975416E+02
 0.10318119039E+02 0.10243715593E+02 0.10318249599E+02 0.10540905850E+02 0.10908376138E+02
 0.11415028609E+02 0.12048415820E+02 0.12792403855E+02 0.13620575081E+02 0.14500199126E+02
 0.15382632971E+02 0.16223532993E+02 0.16958510357E+02 0.17527019016E+02 0.17884240622E+02
 0.18007065245E+02 0.17880524460E+02 0.17517610303E+02 0.16953470776E+02 0.16226464864E+02
 0.15393752441E+02 0.14508860623E+02 0.11751067868E+02 0.11234692661E+02 0.10781657872E+02
 0.10421337309E+02 0.10183222256E+02 0.10066565735E+02 0.10072372233E+02 0.10230848645E+02
 0.10531255450E+02 0.10984030034E+02 0.11590385089E+02 0.12344835633E+02 0.13240645587E+02
 0.14254206889E+02 0.15356100681E+02 0.16497602530E+02 0.17619650604E+02 0.18647137635E+02
 0.19505901492E+02 0.20128252009E+02 0.20463976849E+02 0.20483732897E+02 0.20187318808E+02
 0.19597564502E+02 0.18764583928E+02 0.17754011981E+02 0.16641557104E+02 0.15497293088E+02
 0.14387769530E+02 0.13361379488E+02 0.12450220673E+02 0.11676534025E+02 0.11051317864E+02
 0.10578714227E+02 0.10258000738E+02 0.10085645733E+02 0.10055355013E+02 0.10159915641E+02
 0.10389007295E+02 0.10729978727E+02 0.11168274669E+02 0.11683257533E+02 0.12250466404E+02
 0.12838581207E+02 0.13416187090E+02 0.13938926973E+02 0.14374765959E+02 0.14693452139E+02
 0.14868766069E+02 0.14879885511E+02 0.14729953281E+02 0.14429912833E+02 0.13999551366E+02
 0.13479752859E+02 0.12905375005E+02 0.12316658330E+02 0.10551262364E+02 0.10233815198E+02
 0.99974606548E+01 0.98533461139E+01 0.98068080755E+01 0.98831356509E+01 0.10104611226E+02
 0.10463387914E+02 0.10985481987E+02 0.11673975970E+02 0.12533589423E+02 0.13564220238E+02
 0.14751622634E+02 0.16073882565E+02 0.17483575668E+02 0.18913562466E+02 0.20274590061E+02
 0.21475845958E+02 0.22427715297E+02 0.23054298063E+02 0.23302978230E+02 0.23153234565E+02
 0.22616921263E+02 0.21740978487E+02 0.20594567150E+02 0.19263477803E+02 0.17841839946E+02
 0.16421017410E+02 0.15070890660E+02 0.13846259345E+02 0.12775341594E+02 0.11873043564E+02
 0.11142323190E+02 0.10580569066E+02 0.10179438171E+02 0.99285794465E+01 0.98162046925E+01
 0.98286115368E+01 0.99521125898E+01 0.10171194672E+02 0.10466757381E+02 0.10819078465E+02
 0.11204808757E+02 0.11599660077E+02 0.11974221382E+02 0.12307712867E+02 0.12570999235E+02
 0.12741654091E+02 0.12806061428E+02 0.12764636494E+02 0.12616901618E+02 0.12375820744E+02
 0.12064935734E+02 0.11699778485E+02 0.11309209542E+02 0.10918452698E+02 0.98105646986E+01
 0.96550823448E+01 0.95688752297E+01 0.95760894529E+01 0.97040751457E+01 0.99612887549E+01
 0.10356165219E+02 0.10923677033E+02 0.11666023705E+02 0.12601209721E+02 0.13737419595E+02
 0.15072945371E+02 0.16594989961E+02 0.18259442743E+02 0.19996174607E+02 0.21708299071E+02
 0.23291612606E+02 0.24630495047E+02 0.25620698346E+02 0.26183567441E+02 0.26274352122E+02
 0.25885226999E+02 0.25047780185E+02 0.23827320295E+02 0.22322869870E+02 0.20647148992E+02
 0.18906833639E+02 0.17205217758E+02 0.15624441251E+02 0.14215359813E+02 0.13003630388E+02
 0.11992677779E+02 0.11178828680E+02 0.10548835090E+02 0.10088948180E+02 0.97819608215E+01
 0.96113026974E+01 0.95599942346E+01 0.96103217330E+01 0.97434503332E+01 0.99420096908E+01
 0.10185168278E+02 0.10452564581E+02 0.10721562029E+02 0.10973819811E+02 0.11184078094E+02
 0.11339953934E+02 0.11429998457E+02 0.11447650659E+02 0.11385954790E+02 0.11253776115E+02
 0.11060736469E+02 0.10817602993E+02 0.10551216566E+02 0.10279652855E+02 0.10024934720E+02
 0.94069789246E+01 0.93558265194E+01 0.93962898592E+01 0.95433134337E+01 0.98078879978E+01
 0.10218095154E+02 0.10803370898E+02 0.11568786153E+02 0.12547052508E+02 0.13751944815E+02
 0.15194461222E+02 0.16872729235E+02 0.18752735601E+02 0.20768574171E+02 0.22821844063E+02
 0.24795472905E+02 0.26546097092E+02 0.27949602806E+02 0.29708065179E+02 0.30203888408E+02
 0.30036512816E+02 0.28488381685E+02 0.27298395760E+02 0.25708012178E+02 0.23827038180E+02
 0.21797251578E+02 0.19749791238E+02 0.17790050203E+02 0.16004970207E+02 0.14443061625E+02
 0.13120834521E+02 0.12032083460E+02 0.11161603648E+02 0.10490220948E+02 0.99961332862E+01
 0.96578971579E+01 0.94548473498E+01 0.93660487700E+01 0.93725768418E+01 0.94556391694E+01
 0.95946167676E+01 0.97705778188E+01 0.99643871516E+01 0.10158321551E+02 0.10332382048E+02
 0.10476364379E+02 0.10574036790E+02 0.10616508156E+02 0.10599108964E+02 0.10528621183E+02
 0.10407500299E+02 0.10246619455E+02 0.10064121667E+02 0.98688760427E+01 0.96823547105E+01
 0.95225618067E+01 0.92446188022E+01 0.92886266469E+01 0.94249346484E+01 0.96795014356E+01
 0.10082374405E+02 0.10652405844E+02 0.11406954602E+02 0.12389050447E+02 0.13613638152E+02
 0.15107303222E+02 0.16881031500E+02 0.18917174087E+02 0.21157251884E+02 0.23508105361E+02
 0.25841974798E+02 0.27999809699E+02 0.30828719166E+02 0.32511169536E+02 0.33534708531E+02
 0.33785953384E+02 0.33237350763E+02 0.31948699366E+02 0.30062325641E+02 0.27219768271E+02
 0.24979106389E+02 0.22619807254E+02 0.20299533402E+02 0.18126127322E+02 0.16183514104E+02
 0.14514063973E+02 0.13122806906E+02 0.11992318931E+02 0.11098730968E+02 0.10414588301E+02
 0.99134310617E+01 0.95697653575E+01 0.93592649856E+01 0.92608168128E+01 0.92523501008E+01
 0.93132555467E+01 0.94251249330E+01 0.95692319759E+01 0.97266114111E+01 0.98793122240E+01
 0.10014754121E+02 0.10116059868E+02 0.10177214815E+02 0.10192838905E+02 0.10162426143E+02
 0.10083884849E+02 0.99677949358E+01 0.98256192389E+01 0.96658750511E+01 0.95108470929E+01
 0.93759570870E+01 0.92806434083E+01 0.92728735702E+01 0.93776343010E+01 0.96009069562E+01
 0.99634543873E+01 0.10484695299E+02 0.11198312623E+02 0.12144017874E+02 0.13339614489E+02
 0.14827088718E+02 0.16627899477E+02 0.18742347251E+02 0.21125538779E+02 0.23696664613E+02
 0.26328324177E+02 0.29663492174E+02 0.32384532990E+02 0.34681129085E+02 0.36324089565E+02
 0.37133867821E+02 0.37016390512E+02 0.35985343203E+02 0.34161255846E+02 0.31733314389E+02
 0.28240974068E+02 0.25675381042E+02 0.23041319571E+02 0.20507690794E+02 0.18185970750E+02
 0.16147797934E+02 0.14427796165E+02 0.13015835451E+02 0.11885537958E+02 0.11003076541E+02
 0.10337604594E+02 0.98571124912E+01 0.95342254563E+01 0.93431240607E+01 0.92594310857E+01
 0.92618153980E+01 0.93302870377E+01 0.94435168942E+01 0.95820143259E+01 0.97277086854E+01
 0.98668499031E+01 0.99821963647E+01 0.10066099921E+02 0.10106539529E+02 0.10100432838E+02
 0.10046846851E+02 0.99558988906E+01 0.98327362328E+01 0.96895919918E+01 0.95466704675E+01
 0.94133404186E+01 0.93102418336E+01 0.92572391148E+01 0.94342044975E+01 0.95994436174E+01
 0.98918456154E+01 0.10342692433E+02 0.10986790430E+02 0.11854891515E+02 0.12973536271E+02
 0.14395952865E+02 0.16146999974E+02 0.18250202087E+02 0.20678667110E+02 0.23370701702E+02
 0.26210082950E+02 0.29868801514E+02 0.33059448514E+02 0.35933016673E+02 0.38222307340E+02
 0.39681519940E+02 0.40143436677E+02 0.39551085299E+02 0.37976496590E+02 0.35600283758E+02
 0.32672239562E+02 0.29462113826E+02 0.25853367914E+02 0.23023964618E+02 0.20359339799E+02
 0.17968271214E+02 0.15907962505E+02 0.14199356140E+02 0.12818162567E+02 0.11729547512E+02
 0.10894609290E+02 0.10278114844E+02 0.98463564524E+01 0.95708865115E+01 0.94232411440E+01
 0.93818712890E+01 0.94211621137E+01 0.95205897504E+01 0.96588708999E+01 0.98171153585E+01
 0.99774222775E+01 0.10120983720E+02 0.10233982922E+02 0.10302864682E+02 0.10324431795E+02
 0.10296637675E+02 0.10222708261E+02 0.10105126910E+02 0.99580334957E+01 0.97990364021E+01
 0.96404797206E+01 0.95043709284E+01 0.94100296458E+01 0.93799086889E+01 0.97036809427E+01
 0.99032337718E+01 0.10259158995E+02 0.10799063469E+02 0.11550432353E+02 0.12553890677E+02
 0.13858223859E+02 0.15492289372E+02 0.17498563919E+02 0.19873434902E+02 0.22570718868E+02
 0.25503500945E+02 0.28499122143E+02 0.32754749238E+02 0.36085803051E+02 0.38955194084E+02
 0.41075790286E+02 0.42207783898E+02 0.42208000795E+02 0.41076318119E+02 0.38955108897E+02
 0.36085603660E+02 0.32755003770E+02 0.28500256253E+02 0.25502138857E+02 0.22570355970E+02
 0.19873606573E+02 0.17499516978E+02 0.15493698005E+02 0.13857979878E+02 0.12557478320E+02
 0.11551012265E+02 0.10797334237E+02 0.10259778828E+02 0.99046443313E+01 0.97019423707E+01
 0.96261409870E+01 0.96495652936E+01 0.97513993513E+01 0.99087919351E+01 0.10096460126E+02
 0.10295002807E+02 0.10482568031E+02 0.10641517304E+02 0.10755454144E+02 0.10817167590E+02
 0.10817328689E+02 0.10756869723E+02 0.10640250765E+02 0.10482627637E+02 0.10295026126E+02
 0.10093317930E+02 0.99077873684E+01 0.97539231964E+01 0.96513306876E+01 0.96275663424E+01
 0.10035031395E+02 0.10269397533E+02 0.10675008782E+02 0.11285658745E+02 0.12142732480E+02
 0.13283431695E+02 0.14743402144E+02 0.16575863109E+02 0.18798270413E+02 0.21382758857E+02
 0.24278557792E+02 0.27329121104E+02 0.31513723159E+02 0.35118278361E+02 0.38415547541E+02
 0.41104382364E+02 0.42894943442E+02 0.43570736968E+02 0.43042873922E+02 0.41382606280E+02
 0.38791502411E+02 0.35552813266E+02 0.31970305108E+02 0.27714686184E+02 0.24656174554E+02
 0.21729675317E+02 0.19101147560E+02 0.16831345638E+02 0.14951254098E+02 0.13444351733E+02
 0.12268105609E+02 0.11380112999E+02 0.10739019329E+02 0.10309046318E+02 0.10056861990E+02
 0.99551357643E+01 0.99743302126E+01 0.10093331983E+02 0.10284722297E+02 0.10520261521E+02
 0.10779348606E+02 0.11038552359E+02 0.11271596288E+02 0.11456618199E+02 0.11577289037E+02
 0.11620769439E+02 0.11585695947E+02 0.11474828178E+02 0.11298390648E+02 0.11069295480E+02
 0.10812622080E+02 0.10556345952E+02 0.10311959293E+02 0.10111061397E+02 0.99840270559E+01
 0.99493775420E+01 0.10410209328E+02 0.10657897884E+02 0.11103296029E+02 0.11781538950E+02
 0.12720861321E+02 0.13968371151E+02 0.15570525630E+02 0.17559040443E+02 0.19933716501E+02
 0.22662968993E+02 0.25646469690E+02 0.29515176424E+02 0.33164786894E+02 0.36678767292E+02
 0.39755075285E+02 0.42089694491E+02 0.43416354084E+02 0.43568679722E+02 0.42524971895E+02
 0.40419495238E+02 0.37500629815E+02 0.34069001656E+02 0.30421465009E+02 0.26410001482E+02
 0.23391487199E+02 0.20585567648E+02 0.18119000965E+02 0.16030409375E+02 0.14337013541E+02
 0.13003281238E+02 0.11988746741E+02 0.11250114618E+02 0.10750094743E+02 0.10454546447E+02
 0.10333399731E+02 0.10358651206E+02 0.10505371310E+02 0.10745151833E+02 0.11050937763E+02
 0.11397543396E+02 0.11754823780E+02 0.12089206452E+02 0.12371597841E+02 0.12579330042E+02
 0.12693914590E+02 0.12708323846E+02 0.12617929194E+02 0.12432347434E+02 0.12165397445E+02
 0.11842084549E+02 0.11485513852E+02 0.11130393362E+02 0.10818291586E+02 0.10558815173E+02
 0.10385430519E+02 0.10329043364E+02 0.10787483687E+02 0.11044842383E+02 0.11517644588E+02
 0.12238282757E+02 0.13248271047E+02 0.14584768486E+02 0.16278674781E+02 0.18367772795E+02
 0.20819971047E+02 0.23596976993E+02 0.26551488428E+02 0.30485707609E+02 0.33994154426E+02
 0.37237360667E+02 0.39925888264E+02 0.41775593541E+02 0.42569965946E+02 0.42205284624E+02
 0.40731338124E+02 0.38327707501E+02 0.35256229092E+02 0.31812176803E+02 0.27671988707E+02
 0.24695612243E+02 0.21827192953E+02 0.19244654427E+02 0.17016807515E+02 0.15172427076E+02
 0.13708493253E+02 0.12581776637E+02 0.11757542353E+02 0.11194035984E+02 0.10861720068E+02
 0.10726570478E+02 0.10765008634E+02 0.10948480047E+02 0.11250286428E+02 0.11646662182E+02
 0.12103305496E+02 0.12581998354E+02 0.13051480628E+02 0.13474766229E+02 0.13818501835E+02
 0.14049555546E+02 0.14148739090E+02 0.14102208587E+02 0.13918969831E+02 0.13613436652E+02
 0.13217579275E+02 0.12761784000E+02 0.12284291101E+02 0.11815604753E+02 0.11388318454E+02
 0.11048622639E+02 0.10817064236E+02 0.10721008076E+02 0.11150712962E+02 0.11397463232E+02
 0.11883511894E+02 0.12634565164E+02 0.13682114923E+02 0.15057936606E+02 0.16806276766E+02
 0.18919416911E+02 0.21368997322E+02 0.24093025116E+02 0.26916219281E+02 0.30703234821E+02
 0.33894741090E+02 0.36716411134E+02 0.38896939997E+02 0.40196799634E+02 0.40465483056E+02
 0.39668396667E+02 0.37903807840E+02 0.35368696703E+02 0.32327203377E+02 0.28326235067E+02
 0.25502101243E+02 0.22706661961E+02 0.20105072765E+02 0.17819799757E+02 0.15886186442E+02
 0.14328439099E+02 0.13118141385E+02 0.12223515768E+02 0.11609482322E+02 0.11245747053E+02
 0.11103642884E+02 0.11158290126E+02 0.11386276712E+02 0.11759795821E+02 0.12259109397E+02
 0.12844135362E+02 0.13476098439E+02 0.14124052468E+02 0.14740475072E+02 0.15271307508E+02
 0.15669666334E+02 0.15902123367E+02 0.15948973833E+02 0.15808877144E+02 0.15490632951E+02
 0.15021399618E+02 0.14439006442E+02 0.13798724117E+02 0.13154837098E+02 0.12541671811E+02
 0.11995200199E+02 0.11557509877E+02 0.11253164550E+02 0.11108571540E+02 0.11459224785E+02