unknown system                          
   1.00000000000000     
    -2.478974   -1.431236    2.024073
     1.239487   -0.715618    4.048147
     0.000000    2.862472    2.024073
   Ni
     4
Direct
  0.500000  0.000000  0.500000
  0.250000  0.500000  0.750000
  0.750000  0.500000  0.250000
  0.000000  0.000000  0.000000
 
   56   64   56
 0.22061505034E+04 0.43291100066E+04 0.92157165526E+03 0.12084619085E+04 0.14058452929E+04
 0.11482942409E+04 0.79143159442E+03 0.50556032601E+03 0.31438828184E+03 0.19585882988E+03
 0.12445315336E+03 0.81515859887E+02 0.55296064849E+02 0.38892650468E+02 0.27813286583E+02
 0.21422575196E+02 0.16911444152E+02 0.13822991765E+02 0.11735372818E+02 0.10313625462E+02
 0.93199788111E+01 0.86004499298E+01 0.80631471659E+01 0.76568997143E+01 0.73537035645E+01
 0.71364217158E+01 0.69921729664E+01 0.69104828979E+01 0.68841197249E+01 0.69104741671E+01
 0.69921544998E+01 0.71363917124E+01 0.73536597545E+01 0.76568396281E+01 0.80630681419E+01
 0.86003487363E+01 0.93198509677E+01 0.10313464616E+02 0.11735170754E+02 0.13822739695E+02
 0.16911135694E+02 0.21422210749E+02 0.27812877568E+02 0.38892187509E+02 0.55295577467E+02
 0.81515381331E+02 0.12445274388E+03 0.19585860593E+03 0.31438846849E+03 0.50556132372E+03
 0.79143400153E+03 0.11482986456E+04 0.14058514233E+04 0.12084668245E+04 0.92156912146E+03
 0.43291014587E+04 0.38677337252E+04 0.11344150458E+04 0.94355436535E+03 0.13628630211E+04
 0.12811454307E+04 0.95012556946E+03 0.62925420071E+03 0.39696166878E+03 0.24741333737E+03
 0.15584524653E+03 0.10063732013E+03 0.67138580164E+02 0.46404938921E+02 0.33245849868E+02
 0.24477978765E+02 0.19059997287E+02 0.15294548036E+02 0.12736795842E+02 0.11005833022E+02
 0.98150994866E+01 0.89697172401E+01 0.83481054232E+01 0.78800852138E+01 0.75272551464E+01
 0.72678862461E+01 0.70873296127E+01 0.69738158271E+01 0.69181287038E+01 0.69149233435E+01
 0.69638690055E+01 0.70697257060E+01 0.72413056230E+01 0.74900954321E+01 0.78302535036E+01
 0.82822169859E+01 0.88815834089E+01 0.96935613790E+01 0.10832114414E+02 0.12481782502E+02
 0.14917027737E+02 0.18507761664E+02 0.23694024362E+02 0.31968571506E+02 0.44420242010E+02
 0.63980992921E+02 0.95489556578E+02 0.14731583288E+03 0.23329317478E+03 0.37420100603E+03
 0.59503461062E+03 0.90641433282E+03 0.12459590649E+04 0.13789858973E+04 0.10113445418E+04
 0.97135726178E+03 0.35283701751E+04 0.74007171499E+03 0.89272827577E+03 0.12615399016E+04
 0.12819693397E+04 0.10212997977E+04 0.71061642834E+03 0.46201567839E+03 0.29246813078E+03
 0.18508318629E+03 0.11915303717E+03 0.78877505758E+02 0.53967293673E+02 0.38223873564E+02
 0.27507730876E+02 0.21283034927E+02 0.16870715053E+02 0.13838293629E+02 0.11782508032E+02
 0.10380201477E+02 0.93999830830E+01 0.86907513692E+01 0.81616101858E+01 0.77615834636E+01
 0.74626636870E+01 0.72477172873E+01 0.71038158168E+01 0.70202556632E+01 0.69893419401E+01
 0.70078368304E+01 0.70776982471E+01 0.72056262156E+01 0.74017009653E+01 0.76782546614E+01
 0.80509519893E+01 0.85441587836E+01 0.92016881141E+01 0.10102640173E+02 0.11381064387E+02
 0.13246638819E+02 0.15999446731E+02 0.20025691097E+02 0.25757875906E+02 0.35256509200E+02
 0.49342841718E+02 0.71502831568E+02 0.10715835270E+03 0.16541908428E+03 0.26062823705E+03
 0.41259928345E+03 0.64086216794E+03 0.94152437777E+03 0.12327751222E+04 0.13050167329E+04
 0.99658578510E+03 0.72208602657E+03 0.86825779623E+03 0.11632188859E+04 0.12662785739E+04
 0.12181386039E+04 0.10002099836E+04 0.72803681950E+03 0.49202478162E+03 0.32026747788E+03
 0.20622555379E+03 0.13391424241E+03 0.88845972880E+02 0.60675671702E+02 0.42789068426E+02
 0.31200300047E+02 0.23388852811E+02 0.18434054105E+02 0.14972372224E+02 0.12605946312E+02
 0.10993616623E+02 0.98774902090E+01 0.90810790901E+01 0.84935468778E+01 0.80504903090E+01
 0.77163643895E+01 0.74707298904E+01 0.72994227690E+01 0.71906927453E+01 0.71350061922E+01
 0.71264618709E+01 0.71640714694E+01 0.72519925492E+01 0.73985809240E+01 0.76148628993E+01
 0.79138824252E+01 0.83129710814E+01 0.88406446188E+01 0.95485910245E+01 0.10527987752E+02
 0.11928481029E+02 0.13976142476E+02 0.16982119079E+02 0.21328461920E+02 0.27417243507E+02
 0.37855387090E+02 0.53017033489E+02 0.76717908104E+02 0.11445461945E+03 0.17505640912E+03
 0.27152259825E+03 0.41995724900E+03 0.63254713028E+03 0.89802442366E+03 0.11507445102E+04
 0.12717603819E+04 0.12086910536E+04 0.11025979895E+04 0.10843136009E+04 0.12524813686E+04
 0.11167488659E+04 0.91266350249E+03 0.68462254783E+03 0.48082701903E+03 0.32409067253E+03
 0.21445978421E+03 0.14195299120E+03 0.95321168880E+02 0.65538235293E+02 0.46362506519E+02
 0.33822050085E+02 0.25173567605E+02 0.19845987341E+02 0.16051809215E+02 0.13423927531E+02
 0.11624447190E+02 0.10383218942E+02 0.95062911475E+01 0.88664254615E+01 0.83866981016E+01
 0.80236448317E+01 0.77529003192E+01 0.75588593922E+01 0.74290489245E+01 0.73526563378E+01
 0.73215411640E+01 0.73318384430E+01 0.73848595043E+01 0.74867793277E+01 0.76472746936E+01
 0.78780055859E+01 0.81925963524E+01 0.86100294200E+01 0.91626432962E+01 0.99086237987E+01
 0.10947853113E+02 0.12439065704E+02 0.14613896791E+02 0.17778992715E+02 0.22293843997E+02
 0.28514304996E+02 0.39438186529E+02 0.54908743072E+02 0.78764130457E+02 0.11601620879E+03
 0.17427217182E+03 0.26386592916E+03 0.39612774445E+03 0.57749824208E+03 0.79805091736E+03
 0.10209792500E+04 0.11942875569E+04 0.12921343821E+04 0.13283888812E+04 0.13167450513E+04
 0.94328102895E+03 0.77578424686E+03 0.59717534347E+03 0.43491335861E+03 0.30439277095E+03
 0.20830972775E+03 0.14169183296E+03 0.97125707228E+02 0.67773976892E+02 0.48441209135E+02
 0.35583712042E+02 0.26461710604E+02 0.20971851643E+02 0.16982668245E+02 0.14175164118E+02
 0.12234005559E+02 0.10892517011E+02 0.99497889200E+01 0.92681282156E+01 0.87608146201E+01
 0.83772174836E+01 0.80889053581E+01 0.78786431771E+01 0.77334217825E+01 0.76416645203E+01
 0.75935262366E+01 0.75825348372E+01 0.76070397852E+01 0.76706088548E+01 0.77811824397E+01
 0.79494127579E+01 0.81873170246E+01 0.85089472923E+01 0.89346832475E+01 0.94997947173E+01
 0.10266695602E+02 0.11339481177E+02 0.12878398125E+02 0.15109487884E+02 0.18320982292E+02
 0.22836412912E+02 0.29781171472E+02 0.39807369411E+02 0.54764029734E+02 0.77352696042E+02
 0.11169831103E+03 0.16365211995E+03 0.24047686369E+03 0.34915331600E+03 0.49247412262E+03
 0.66340259400E+03 0.84149189932E+03 0.99663920443E+03 0.10984694488E+04 0.11244794798E+04
 0.10682886098E+04 0.60758460277E+03 0.48468634818E+03 0.36707458938E+03 0.26738578666E+03
 0.18998953253E+03 0.13355262894E+03 0.94068699762E+02 0.67071124331E+02 0.48748933960E+02
 0.36273834770E+02 0.27140774965E+02 0.21707670988E+02 0.17681733925E+02 0.14799050119E+02
 0.12780454654E+02 0.11376814184E+02 0.10391405282E+02 0.96834771214E+01 0.91606939717E+01
 0.87671335895E+01 0.84707986999E+01 0.82528051160E+01 0.80996816459E+01 0.79994647216E+01
 0.79411341082E+01 0.79160105190E+01 0.79195525894E+01 0.79524277433E+01 0.80203510088E+01
 0.81327616719E+01 0.83009966725E+01 0.85372293413E+01 0.88557637586E+01 0.92778917843E+01
 0.98404708850E+01 0.10607307824E+02 0.11681769721E+02 0.13218144844E+02 0.15427142461E+02
 0.18568304891E+02 0.22922052304E+02 0.29561491601E+02 0.38956035008E+02 0.52676131763E+02
 0.72860103524E+02 0.10257940429E+03 0.14586525484E+03 0.20721333891E+03 0.29021407776E+03
 0.39507267177E+03 0.51553463208E+03 0.63676068709E+03 0.73627615459E+03 0.78980845070E+03
 0.78186879012E+03 0.71487165556E+03 0.36743612137E+03 0.29111490636E+03 0.22149190845E+03
 0.16394215826E+03 0.11957042945E+03 0.86955617050E+02 0.63682041112E+02 0.47312277041E+02
 0.35841421435E+02 0.27177918651E+02 0.21999285505E+02 0.18092519494E+02 0.15246782608E+02
 0.13225550912E+02 0.11807274900E+02 0.10809170185E+02 0.10094968769E+02 0.95716661052E+01
 0.91807743493E+01 0.88878689823E+01 0.86726766909E+01 0.85212873645E+01 0.84215279777E+01
 0.83615854215E+01 0.83309687589E+01 0.83224256117E+01 0.83335698082E+01 0.83674496772E+01
 0.84318241435E+01 0.85374456422E+01 0.86961866798E+01 0.89202964243E+01 0.92241505800E+01
 0.96292992192E+01 0.10172590179E+02 0.10916241151E+02 0.11958220978E+02 0.13440555042E+02
 0.15551527299E+02 0.18516158302E+02 0.22570251665E+02 0.27917907386E+02 0.37056620031E+02
 0.49044441276E+02 0.66151181145E+02 0.90449004760E+02 0.12440469008E+03 0.17037408136E+03
 0.22955681262E+03 0.30041180748E+03 0.37692999974E+03 0.44784334507E+03 0.49833897496E+03
 0.51525019278E+03 0.49366990386E+03 0.43981694767E+03 0.21898763658E+03 0.17458861747E+03
 0.13499734167E+03 0.10246055435E+03 0.77190032771E+02 0.58279803521E+02 0.44435240164E+02
 0.34405992246E+02 0.26615201929E+02 0.21847748920E+02 0.18194291107E+02 0.15489969775E+02
 0.13541213017E+02 0.12159230445E+02 0.11182115481E+02 0.10484524900E+02 0.99776724908E+01
 0.96036412929E+01 0.93272111465E+01 0.91273019000E+01 0.89896256870E+01 0.89017825213E+01
 0.88512845254E+01 0.88260433168E+01 0.88162260992E+01 0.88162829174E+01 0.88262111148E+01
 0.88515556715E+01 0.89021450601E+01 0.89900636212E+01 0.91277947837E+01 0.93277331788E+01
 0.96041600630E+01 0.99781469196E+01 0.10484901317E+02 0.11182320682E+02 0.12159161251E+02
 0.13540723658E+02 0.15488861704E+02 0.18192313794E+02 0.21844622183E+02 0.26610666681E+02
 0.34399201470E+02 0.44425848390E+02 0.58267206400E+02 0.77173660322E+02 0.10244005744E+03
 0.13497290819E+03 0.17456138151E+03 0.21896001252E+03 0.26319487822E+03 0.29981623509E+03
 0.32080511138E+03 0.32081119450E+03 0.29983316230E+03 0.26321924222E+03 0.13242100644E+03
 0.10711195044E+03 0.84751189301E+02 0.66283669340E+02 0.51723328080E+02 0.40582329815E+02
 0.32209195940E+02 0.25549031660E+02 0.21301097975E+02 0.18001688964E+02 0.15523881885E+02
 0.13713611006E+02 0.12415798763E+02 0.11493091931E+02 0.10835606610E+02 0.10362879859E+02
 0.10020630221E+02 0.97747356122E+01 0.96041930429E+01 0.94945367846E+01 0.94330202276E+01
 0.94063149869E+01 0.94006230279E+01 0.94034094451E+01 0.94057045105E+01 0.94039991418E+01
 0.94010277254E+01 0.94051555390E+01 0.94285915351E+01 0.94850874260E+01 0.95880748413E+01
 0.97502973992E+01 0.99857862131E+01 0.10314387080E+02 0.10768184421E+02 0.11398559713E+02
 0.12282424038E+02 0.13525921702E+02 0.15263281418E+02 0.17648169197E+02 0.20836069499E+02
 0.24958917909E+02 0.31319388867E+02 0.39389108943E+02 0.50145986205E+02 0.64244781301E+02
 0.82207351548E+02 0.10410741077E+03 0.12914282097E+03 0.15521519335E+03 0.17886799514E+03
 0.19586941864E+03 0.20255337801E+03 0.19733366757E+03 0.18145609759E+03 0.15840314372E+03
 0.82788487352E+02 0.68291017455E+02 0.55492278152E+02 0.44810608681E+02 0.36239390526E+02
 0.29537068174E+02 0.24104587907E+02 0.20438045212E+02 0.17556634421E+02 0.15364939964E+02
 0.13743627351E+02 0.12569507866E+02 0.11730610760E+02 0.11134914706E+02 0.10713157998E+02
 0.10417284055E+02 0.10216174648E+02 0.10090022233E+02 0.10024612811E+02 0.10006798279E+02
 0.10022082664E+02 0.10054506542E+02 0.10088306516E+02 0.10110465309E+02 0.10113210245E+02
 0.10095630250E+02 0.10063870549E+02 0.10029838535E+02 0.10008856354E+02 0.10017036942E+02
 0.10069312075E+02 0.10179033562E+02 0.10359796893E+02 0.10629500655E+02 0.11015878412E+02
 0.11562267487E+02 0.12332331532E+02 0.13412435949E+02 0.14910098021E+02 0.16946848212E+02
 0.19644700392E+02 0.23107142013E+02 0.28113099718E+02 0.34393412868E+02 0.42469065800E+02
 0.52608331059E+02 0.64896262926E+02 0.79038661372E+02 0.94160035998E+02 0.10869628425E+03
 0.12055608112E+03 0.12761518410E+03 0.12843842330E+03 0.12284944646E+03 0.11200865687E+03
 0.97935726098E+02 0.54126376618E+02 0.45658183445E+02 0.38156192328E+02 0.31826025092E+02
 0.26137572691E+02 0.22414717626E+02 0.19350932521E+02 0.16916929556E+02 0.15044427224E+02
 0.13644184337E+02 0.12621715031E+02 0.11889261454E+02 0.11373190639E+02 0.11016971828E+02
 0.10780632967E+02 0.10637756335E+02 0.10570982951E+02 0.10567065230E+02 0.10612654558E+02
 0.10691845234E+02 0.10785906814E+02 0.10874941173E+02 0.10940743674E+02 0.10969971953E+02
 0.10956711015E+02 0.10903668784E+02 0.10821624181E+02 0.10727303860E+02 0.10640336908E+02
 0.10580168693E+02 0.10563851714E+02 0.10605527080E+02 0.10718069152E+02 0.10916732705E+02
 0.11223962741E+02 0.11674188994E+02 0.12317499928E+02 0.13221228763E+02 0.14468426286E+02
 0.16152200220E+02 0.18365423296E+02 0.21186286242E+02 0.24660962469E+02 0.29752645665E+02
 0.35636613500E+02 0.42708938431E+02 0.50854619264E+02 0.59692844475E+02 0.68510920617E+02
 0.76294889048E+02 0.81898387151E+02 0.84364482158E+02 0.83231403692E+02 0.78714176232E+02
 0.71617754270E+02 0.63058508267E+02 0.37221785248E+02 0.32153845710E+02 0.27009793599E+02
 0.23578803873E+02 0.20607063507E+02 0.18133034582E+02 0.16145975723E+02 0.14601441590E+02
 0.13436128640E+02 0.12580599592E+02 0.11968973281E+02 0.11545139411E+02 0.11265609506E+02
 0.11099527605E+02 0.11026489784E+02 0.11032843357E+02 0.11107296466E+02 0.11236901796E+02
 0.11404473421E+02 0.11588089947E+02 0.11762711266E+02 0.11903395163E+02 0.11989272249E+02
 0.12007278537E+02 0.11954652506E+02 0.11839478147E+02 0.11679110588E+02 0.11496949913E+02
 0.11318457531E+02 0.11167439304E+02 0.11063535899E+02 0.11021624637E+02 0.11053400943E+02
 0.11170791988E+02 0.11390300101E+02 0.11737166773E+02 0.12248401905E+02 0.12973950945E+02
 0.13975347311E+02 0.15321233134E+02 0.17079396310E+02 0.19305486895E+02 0.22029096937E+02
 0.25238350281E+02 0.29816702664E+02 0.34624308355E+02 0.39889345967E+02 0.45274544885E+02
 0.50281805033E+02 0.54307076928E+02 0.56776468793E+02 0.57292668255E+02 0.55768926954E+02
 0.52457821711E+02 0.47865830219E+02 0.42600131399E+02 0.26473475120E+02 0.23670367046E+02
 0.21079321841E+02 0.18797406067E+02 0.16871159244E+02 0.15305839121E+02 0.14077393375E+02
 0.13144484570E+02 0.12458956155E+02 0.11973891984E+02 0.11648951371E+02 0.11453050016E+02
 0.11364684159E+02 0.11370273221E+02 0.11460970311E+02 0.11628597199E+02 0.11861636746E+02
 0.12142331156E+02 0.12445724880E+02 0.12741011083E+02 0.12994978174E+02 0.13176853710E+02
 0.13263467736E+02 0.13243476821E+02 0.13119526190E+02 0.12907740969E+02 0.12634691399E+02
 0.12332671752E+02 0.12034511069E+02 0.11769138745E+02 0.11558862176E+02 0.11418885872E+02
 0.11359067011E+02 0.11387347669E+02 0.11513906158E+02 0.11754988477E+02 0.12135585641E+02
 0.12690395842E+02 0.13462662052E+02 0.14500528946E+02 0.15850685161E+02 0.17549347348E+02
 0.19611079357E+02 0.22016540758E+02 0.24701144730E+02 0.27547724184E+02 0.31552167303E+02
 0.34766209032E+02 0.37545124045E+02 0.39550996448E+02 0.40512211423E+02 0.40287267133E+02
 0.38910000611E+02 0.36577515782E+02 0.33596566449E+02 0.30303471684E+02 0.20637178695E+02
 0.18766827285E+02 0.17084942153E+02 0.15641446122E+02 0.14453291886E+02 0.13512634982E+02
 0.12795989090E+02 0.12272679408E+02 0.11911625722E+02 0.11686037857E+02 0.11575968442E+02
 0.11568846208E+02 0.11658177595E+02 0.11840697252E+02 0.12112467317E+02 0.12464717509E+02
 0.12880418845E+02 0.13332560174E+02 0.13784823551E+02 0.14194877911E+02 0.14519897228E+02
 0.14723268951E+02 0.14780979867E+02 0.14686071460E+02 0.14449967260E+02 0.14100304519E+02
 0.13675866961E+02 0.13219963387E+02 0.12773883138E+02 0.12371852618E+02 0.12038376853E+02
 0.11788200617E+02 0.11628535246E+02 0.11562764424E+02 0.11594628290E+02 0.11731924794E+02
 0.11989007957E+02 0.12387650644E+02 0.12956025676E+02 0.13725630613E+02 0.14726061492E+02
 0.15977760374E+02 0.17483270417E+02 0.19218129385E+02 0.21123279773E+02 0.23101569654E+02
 0.25021080404E+02 0.26727069152E+02 0.28062082135E+02 0.29669907416E+02 0.29938675839E+02
 0.29493826829E+02 0.27771885259E+02 0.26330470906E+02 0.24556300384E+02 0.22608334654E+02
 0.16736828453E+02 0.15547035232E+02 0.14505991521E+02 0.13637235993E+02 0.12944426183E+02
 0.12417663997E+02 0.12040001031E+02 0.11793075357E+02 0.11661281675E+02 0.11634223837E+02
 0.11707404187E+02 0.11881201539E+02 0.12158289613E+02 0.12539845209E+02 0.13021174848E+02
 0.13587645269E+02 0.14211939395E+02 0.14853616398E+02 0.15461667840E+02 0.15980168186E+02
 0.16356267720E+02 0.16548923825E+02 0.16536285189E+02 0.16319804573E+02 0.15923963442E+02
 0.15391683295E+02 0.14776664660E+02 0.14134635307E+02 0.13515567443E+02 0.12958378931E+02
 0.12488761519E+02 0.12119949232E+02 0.11855683091E+02 0.11694374647E+02 0.11633452777E+02
 0.11673034137E+02 0.11818324832E+02 0.12080435759E+02 0.12475477577E+02 0.13021893231E+02
 0.13736090446E+02 0.14626658354E+02 0.15687815128E+02 0.16893193582E+02 0.18191537194E+02
 0.19506151243E+02 0.20739704308E+02 0.21784928468E+02 0.22540017314E+02 0.22925670444E+02
 0.22899629150E+02 0.22464797354E+02 0.21668668413E+02 0.20594224043E+02 0.19344855478E+02
 0.18027322986E+02 0.14234368012E+02 0.13509725883E+02 0.12896473941E+02 0.12405249359E+02
 0.12035645440E+02 0.11780898435E+02 0.11632433855E+02 0.11583540217E+02 0.11631715664E+02
 0.11779470359E+02 0.12033526641E+02 0.12402476279E+02 0.12893111581E+02 0.13505882326E+02
 0.14230206565E+02 0.15040617872E+02 0.15894898098E+02 0.16735302756E+02 0.17493559823E+02
 0.18099429026E+02 0.18491442876E+02 0.18627477502E+02 0.18492501067E+02 0.18101426571E+02
 0.17496285454E+02 0.16738496914E+02 0.15898301152E+02 0.15044009211E+02 0.14233426445E+02
 0.13508835352E+02 0.12895756559E+02 0.12404809798E+02 0.12035566881E+02 0.11781244569E+02
 0.11633251666E+02 0.11584860711E+02 0.11633552540E+02 0.11781818138E+02 0.12036359450E+02
 0.12405747045E+02 0.12896750277E+02 0.13509792131E+02 0.14234258758E+02 0.15044649299E+02
 0.15898717298E+02 0.16738710150E+02 0.17496382295E+02 0.18101561084E+02 0.18492879559E+02
 0.18628323388E+02 0.18492947380E+02 0.18101701607E+02 0.17496595332E+02 0.16738977552E+02
 0.15898996304E+02 0.15044877378E+02 0.12678731179E+02 0.12258057123E+02 0.11921229339E+02
 0.11673813471E+02 0.11516118403E+02 0.11446747917E+02 0.11465794039E+02 0.11577066296E+02
 0.11788979567E+02 0.12113937550E+02 0.12566200761E+02 0.13158356488E+02 0.13896686324E+02
 0.14775985605E+02 0.15774705385E+02 0.16851601629E+02 0.17945259792E+02 0.18977691082E+02
 0.19862457873E+02 0.20516512669E+02 0.20873534813E+02 0.20895645007E+02 0.20580452408E+02
 0.19961510054E+02 0.19102051613E+02 0.18083724721E+02 0.16993275365E+02 0.15910356466E+02
 0.14898837609E+02 0.14002621169E+02 0.13245649074E+02 0.12634964741E+02 0.12165456349E+02
 0.11825058278E+02 0.11599494889E+02 0.11475973333E+02 0.11445502174E+02 0.11503701507E+02
 0.11650100797E+02 0.11886064864E+02 0.12211694685E+02 0.12622280832E+02 0.13105056473E+02
 0.13637050563E+02 0.14184770848E+02 0.14706221355E+02 0.15155322909E+02 0.15488174990E+02
 0.15669954940E+02 0.15680877876E+02 0.15519739441E+02 0.15204131983E+02 0.14767279525E+02
 0.14252307797E+02 0.13705379067E+02 0.13169280275E+02 0.11737143958E+02 0.11511177607E+02
 0.11352437389E+02 0.11265784661E+02 0.11254788685E+02 0.11324495122E+02 0.11483555320E+02
 0.11745209210E+02 0.12126848522E+02 0.12648074978E+02 0.13327295465E+02 0.14177038503E+02
 0.15198407840E+02 0.16375418988E+02 0.17670343728E+02 0.19021509595E+02 0.20345064757E+02
 0.21541757929E+02 0.22508655803E+02 0.23154139905E+02 0.23413082512E+02 0.23258489116E+02
 0.22706509608E+02 0.21813434047E+02 0.20665504954E+02 0.19364291663E+02 0.18011303235E+02
 0.16695201144E+02 0.15483683878E+02 0.14420503654E+02 0.13526793463E+02 0.12805251154E+02
 0.12245678615E+02 0.11830652619E+02 0.11540483485E+02 0.11356969626E+02 0.11265716550E+02
 0.11256949507E+02 0.11324870648E+02 0.11465780058E+02 0.11675409164E+02 0.11946114640E+02
 0.12264642068E+02 0.12611063332E+02 0.12959269803E+02 0.13279112165E+02 0.13539932089E+02
 0.13714868924E+02 0.13785051337E+02 0.13742724486E+02 0.13592571580E+02 0.13350911404E+02
 0.13042966577E+02 0.12698854677E+02 0.12349223269E+02 0.12021455588E+02 0.11187022511E+02
 0.11087499259E+02 0.11048088225E+02 0.11075520321E+02 0.11178162702E+02 0.11368113663E+02
 0.11662341503E+02 0.12082480836E+02 0.12653105063E+02 0.13398435871E+02 0.14337592984E+02
 0.15478719453E+02 0.16812656351E+02 0.18307228782E+02 0.19903556442E+02 0.21515986302E+02
 0.23037042502E+02 0.24347966565E+02 0.25333963712E+02 0.25901570034E+02 0.25994319857E+02
 0.25602784076E+02 0.24766289520E+02 0.23565846882E+02 0.22110206855E+02 0.20518650706E+02
 0.18904534980E+02 0.17362746057E+02 0.15962608387E+02 0.14746171141E+02 0.13730712415E+02
 0.12913878193E+02 0.12279936810E+02 0.11805937161E+02 0.11466947480E+02 0.11239921549E+02
 0.11106016973E+02 0.11051358947E+02 0.11066372831E+02 0.11143988673E+02 0.11277244747E+02
 0.11456969479E+02 0.11670188449E+02 0.11899685420E+02 0.12124844441E+02 0.12323616095E+02
 0.12475226407E+02 0.12563089755E+02 0.12577319845E+02 0.12516291524E+02 0.12386901789E+02
 0.12203470487E+02 0.11985530220E+02 0.11754993995E+02 0.11533300528E+02 0.11339113303E+02
 0.10891436860E+02 0.10878820956E+02 0.10926839094E+02 0.11045736461E+02 0.11249674834E+02
 0.11558140719E+02 0.11996092361E+02 0.12592546138E+02 0.13377455012E+02 0.14376890594E+02
 0.15606808411E+02 0.17066063750E+02 0.18729754555E+02 0.20544290194E+02 0.22425752555E+02
 0.24263027275E+02 0.25926644364E+02 0.27283122081E+02 0.28939571655E+02 0.29420606499E+02
 0.29260499805E+02 0.27812422140E+02 0.26657914402E+02 0.25132857581E+02 0.23366058153E+02
 0.21491175112E+02 0.19630158534E+02 0.17881478896E+02 0.16314148384E+02 0.14967105567E+02
 0.13852689859E+02 0.12962635969E+02 0.12275071661E+02 0.11761255845E+02 0.11391174779E+02
 0.11137532699E+02 0.10978010877E+02 0.10895873661E+02 0.10879141204E+02 0.10918725900E+02
 0.11006132251E+02 0.11131417810E+02 0.11281994810E+02 0.11442551482E+02 0.11596038078E+02
 0.11725426392E+02 0.11815838682E+02 0.11856608137E+02 0.11842849648E+02 0.11776203820E+02
 0.11664586837E+02 0.11521002582E+02 0.11361678319E+02 0.11203913383E+02 0.11064077856E+02
 0.10956190344E+02 0.10772503480E+02 0.10825411655E+02 0.10945471947E+02 0.11147534975E+02
 0.11452206561E+02 0.11886520572E+02 0.12483023820E+02 0.13276989732E+02 0.14301641716E+02
 0.15581573646E+02 0.17125033047E+02 0.18916235310E+02 0.20909213212E+02 0.23024796077E+02
 0.25152168154E+02 0.27156026142E+02 0.29760886667E+02 0.31333920839E+02 0.32298332870E+02
 0.32537021299E+02 0.32021121087E+02 0.30813666094E+02 0.29057608709E+02 0.26437743780E+02
 0.24370786697E+02 0.22232517260E+02 0.20150515888E+02 0.18224509056E+02 0.16521332193E+02
 0.15075210810E+02 0.13892137809E+02 0.12956805904E+02 0.12240493375E+02 0.11708487126E+02
 0.11326048242E+02 0.11062448042E+02 0.10893027626E+02 0.10799474603E+02 0.10768655936E+02
 0.10790516374E+02 0.10855727465E+02 0.10953803025E+02 0.11072186480E+02 0.11196447827E+02
 0.11311396726E+02 0.11402749053E+02 0.11458953552E+02 0.11472804916E+02 0.11442507439E+02
 0.11371948342E+02 0.11270114890E+02 0.11149791967E+02 0.11025825348E+02 0.10913305569E+02
 0.10826057395E+02 0.10775829265E+02 0.10788338265E+02 0.10895245844E+02 0.11080573526E+02
 0.11364515311E+02 0.11774532675E+02 0.12345192299E+02 0.13116000584E+02 0.14126946604E+02
 0.15411773124E+02 0.16989554213E+02 0.18855822439E+02 0.20974960977E+02 0.23275662834E+02
 0.25650988391E+02 0.28688159391E+02 0.31167949208E+02 0.33277866312E+02 0.34797787074E+02
 0.35551439117E+02 0.35444260887E+02 0.34489887917E+02 0.32806633360E+02 0.30583976705E+02
 0.27410538645E+02 0.25067596351E+02 0.22698199023E+02 0.20432908958E+02 0.18370329297E+02
 0.16572847900E+02 0.15067830311E+02 0.13853097215E+02 0.12905047597E+02 0.12187595467E+02
 0.11660281351E+02 0.11284472570E+02 0.11027234975E+02 0.10862960311E+02 0.10773087260E+02
 0.10744398174E+02 0.10766540724E+02 0.10829559241E+02 0.10922156882E+02 0.11031092996E+02
 0.11141704388E+02 0.11239241660E+02 0.11310612139E+02 0.11346135805E+02 0.11340950899E+02
 0.11295755551E+02 0.11216702366E+02 0.11114471858E+02 0.11002747356E+02 0.10896423023E+02
 0.10809917965E+02 0.10756000831E+02 0.10745526461E+02 0.10914899425E+02 0.11068177847E+02
 0.11315098069E+02 0.11681650240E+02 0.12202279640E+02 0.12918707979E+02 0.13876234226E+02
 0.15117297463E+02 0.16672654137E+02 0.18551342430E+02 0.20731331503E+02 0.23153015865E+02
 0.25717415293E+02 0.29054773983E+02 0.31949565374E+02 0.34573634490E+02 0.36677558861E+02
 0.38024479361E+02 0.38452938496E+02 0.37908379420E+02 0.36459481544E+02 0.34279305763E+02
 0.31608742638E+02 0.28697787551E+02 0.25403875899E+02 0.22849411614E+02 0.20451841719E+02
 0.18305581508E+02 0.16465501191E+02 0.14949390246E+02 0.13744952684E+02 0.12819393514E+02
 0.12129423750E+02 0.11629850099E+02 0.11279681545E+02 0.11045492474E+02 0.10902311428E+02
 0.10832542980E+02 0.10823574015E+02 0.10864875181E+02 0.10945472754E+02 0.11052473771E+02
 0.11170904508E+02 0.11284691255E+02 0.11378372222E+02 0.11439085109E+02 0.11458402429E+02
 0.11433618424E+02 0.11368178539E+02 0.11271139232E+02 0.11155796206E+02 0.11037805187E+02
 0.10933198242E+02 0.10856730902E+02 0.10821020177E+02 0.10836868759E+02 0.11133294796E+02
 0.11325581554E+02 0.11630220127E+02 0.12079056592E+02 0.12713147621E+02 0.13580331467E+02
 0.14729722988E+02 0.16203137201E+02 0.18024322483E+02 0.20187878571E+02 0.22650349008E+02
 0.25325878135E+02 0.28088060248E+02 0.31995144426E+02 0.35053262592E+02 0.37701793529E+02
 0.39663433572E+02 0.40711743657E+02 0.40713939440E+02 0.39669677651E+02 0.37711157913E+02
 0.35064491822E+02 0.32006961171E+02 0.28098977075E+02 0.25335834431E+02 0.22658911529E+02
 0.20194915841E+02 0.18029928713E+02 0.16207532720E+02 0.14733164300E+02 0.13583050504E+02
 0.12715324199E+02 0.12080817022E+02 0.11631650244E+02 0.11326742969E+02 0.11134236654E+02
 0.11031326181E+02 0.11002191593E+02 0.11034869665E+02 0.11118033437E+02 0.11238597776E+02
 0.11380728669E+02 0.11526330616E+02 0.11656677886E+02 0.11754678049E+02 0.11807240966E+02
 0.11807251080E+02 0.11754696945E+02 0.11656675858E+02 0.11526271124E+02 0.11380580534E+02
 0.11238342150E+02 0.11117662792E+02 0.11034380439E+02 0.11001575153E+02 0.11030562837E+02
 0.11422725973E+02 0.11645290820E+02 0.12001925223E+02 0.12529778464E+02 0.13275389794E+02
 0.14290799070E+02 0.15626097218E+02 0.17318813479E+02 0.19381677414E+02 0.21791313326E+02
 0.24480763968E+02 0.27338182655E+02 0.31261273652E+02 0.34615509141E+02 0.37700767614E+02
 0.40220353093E+02 0.41900896265E+02 0.42536182673E+02 0.42044375619E+02 0.40488896909E+02
 0.38062281930E+02 0.35032600137E+02 0.31697121048E+02 0.27709912339E+02 0.24840261805E+02
 0.22121395305E+02 0.19670762879E+02 0.17561176213E+02 0.15821231808E+02 0.14442144587E+02
 0.13388762752E+02 0.12611875056E+02 0.12059156312E+02 0.11683064317E+02 0.11445163535E+02
 0.11317193696E+02 0.11279598462E+02 0.11318398372E+02 0.11421434577E+02 0.11575070576E+02
 0.11762237994E+02 0.11962231500E+02 0.12152114998E+02 0.12309238476E+02 0.12414233891E+02
 0.12453849231E+02 0.12423015216E+02 0.12325664846E+02 0.12174101140E+02 0.11987069204E+02
 0.11786984045E+02 0.11596912707E+02 0.11437954071E+02 0.11327657424E+02 0.11280009699E+02
 0.11307186143E+02 0.11758157476E+02 0.12000590906E+02 0.12400922445E+02 0.13000249982E+02
 0.13848572596E+02 0.14999336946E+02 0.16500124859E+02 0.18380405204E+02 0.20638564685E+02
 0.23231310435E+02 0.26068478963E+02 0.29797169390E+02 0.33266334954E+02 0.36614880857E+02
 0.39557909095E+02 0.41793857897E+02 0.43065290815E+02 0.43212169953E+02 0.42215449997E+02
 0.40201892818E+02 0.37410392962E+02 0.34135007586E+02 0.30670584197E+02 0.26809307363E+02
 0.23929346662E+02 0.21263920613E+02 0.18915072712E+02 0.16937700424E+02 0.15343033625E+02
 0.14108165696E+02 0.13188766283E+02 0.12531788544E+02 0.12085667174E+02 0.11806760250E+02
 0.11661963184E+02 0.11628119919E+02 0.11689143551E+02 0.11831914542E+02 0.12042152699E+02
 0.12301408782E+02 0.12585949688E+02 0.12867715728E+02 0.13116979325E+02 0.13306015694E+02
 0.13412986943E+02 0.13425239011E+02 0.13341301241E+02 0.13171125807E+02 0.12934508024E+02
 0.12658055988E+02 0.12371374552E+02 0.12103256263E+02 0.11878690845E+02 0.11717428689E+02
 0.11634572721E+02 0.11643169259E+02 0.12111031724E+02 0.12361597622E+02 0.12794439323E+02
 0.13452405151E+02 0.14386110059E+02 0.15646982096E+02 0.17276421808E+02 0.19292577234E+02
 0.21677524251E+02 0.24368233542E+02 0.27254199345E+02 0.31132191100E+02 0.34539726035E+02
 0.37706614366E+02 0.40339153500E+02 0.42153272754E+02 0.42932494666E+02 0.42577576220E+02
 0.41134022336E+02 0.38780433796E+02 0.35778160751E+02 0.32428309439E+02 0.28363948940E+02
 0.25441302389E+02 0.22660947736E+02 0.20150358549E+02 0.17990638464E+02 0.16215925257E+02
 0.14820217426E+02 0.13769193452E+02 0.13013689438E+02 0.12501703314E+02 0.12186900864E+02
 0.12032966265E+02 0.12014155535E+02 0.12112911081E+02 0.12315616819E+02 0.12607750258E+02
 0.12969773866E+02 0.13374900035E+02 0.13789313630E+02 0.14174752920E+02 0.14492807116E+02
 0.14709998501E+02 0.14802623655E+02 0.14760371649E+02 0.14587946074E+02 0.14304326542E+02
 0.13939834290E+02 0.13531640654E+02 0.13118646786E+02 0.12736764991E+02 0.12415591921E+02
 0.12177254909E+02 0.12037759830E+02 0.12010510014E+02 0.12451463108E+02 0.12697700487E+02
 0.13148917406E+02 0.13846842129E+02 0.14839355055E+02 0.16172291061E+02 0.17877624489E+02
 0.19960070498E+02 0.22385264212E+02 0.25072898023E+02 0.27897280446E+02 0.31706749789E+02
 0.34876936325E+02 0.37693170424E+02 0.39878449584E+02 0.41184867369E+02 0.41455653416E+02
 0.40656448871E+02 0.38886571694E+02 0.36351832555E+02 0.33324516379E+02 0.29316644715E+02
 0.26482563194E+02 0.23707559174E+02 0.21137400589E+02 0.18875797074E+02 0.16979716120E+02
 0.15462753347E+02 0.14304882018E+02 0.13465518352E+02 0.12896483758E+02 0.12552186392E+02
 0.12395689645E+02 0.12400580625E+02 0.12549303059E+02 0.12828973348E+02 0.13225942916E+02
 0.13720579312E+02 0.14283720096E+02 0.14875833245E+02 0.15449186698E+02 0.15952578078E+02
 0.16337642644E+02 0.16565494642E+02 0.16612413196E+02 0.16473441539E+02 0.16163154128E+02
 0.15713427203E+02 0.15168678919E+02 0.14579545288E+02 0.13996232845E+02 0.13462845388E+02
 0.13013833201E+02 0.12673315465E+02 0.12457363090E+02 0.12378548243E+02 0.12750851171E+02