=========================================
SLURM_JOB_ID = 29456388
SLURM_JOB_NODELIST = lnode16
SLURM_GPUS = 
SLURM_CPUS_ON_NODE = 8
SLURM_JOB_PARTITION = lenovo
SLURM_TASK_PID = 709524
CUDA_VISIBLE_DEVICES = 
==========================================
 running on    8 total cores
 distrk:  each k-point on    8 cores,    1 groups
 distr:  one band on    8 cores,    1 groups
 using from now: INCAR     
 vasp.5.4.4.18Apr17-6-g9f103f2a35 (build Apr 28 2018 00:24:27) complex          
  
 POSCAR found type information on POSCAR  Mn Bi
 POSCAR found :  2 types and       8 ions
 scaLAPACK will be used

 ----------------------------------------------------------------------------- 
|                                                                             |
|           W    W    AA    RRRRR   N    N  II  N    N   GGGG   !!!           |
|           W    W   A  A   R    R  NN   N  II  NN   N  G    G  !!!           |
|           W    W  A    A  R    R  N N  N  II  N N  N  G       !!!           |
|           W WW W  AAAAAA  RRRRR   N  N N  II  N  N N  G  GGG   !            |
|           WW  WW  A    A  R   R   N   NN  II  N   NN  G    G                |
|           W    W  A    A  R    R  N    N  II  N    N   GGGG   !!!           |
|                                                                             |
|      For optimal performance we recommend to set                            |
|        NCORE= 4 - approx SQRT( number of cores)                             |
|      NCORE specifies how many cores store one orbital (NPAR=cpu/NCORE).     |
|      This setting can  greatly improve the performance of VASP for DFT.     |
|      The default,   NCORE=1            might be grossly inefficient         |
|      on modern multi-core architectures or massively parallel machines.     |
|      Do your own testing !!!!                                               |
|      Unfortunately you need to use the default for GW and RPA calculations. |
|      (for HF NCORE is supported but not extensively tested yet)             |
|                                                                             |
 ----------------------------------------------------------------------------- 

 LDA part: xc-table for Pade appr. of Perdew
 POSCAR, INCAR and KPOINTS ok, starting setup
 FFT: planning ...
 WAVECAR not read
 entering main loop
       N       E                     dE             d eps       ncg     rms          rms(c)
DAV:   1     0.351214453198E+03    0.35121E+03   -0.15691E+04195808   0.136E+03
DAV:   2     0.724532762741E+01   -0.34397E+03   -0.33410E+03196024   0.381E+02
DAV:   3    -0.448913983684E+02   -0.52137E+02   -0.49191E+02327297   0.139E+02
DAV:   4    -0.495294399593E+02   -0.46380E+01   -0.43735E+01350083   0.506E+01
DAV:   5    -0.497805285284E+02   -0.25109E+00   -0.24176E+00326708   0.117E+01    0.192E+01
DAV:   6    -0.571547253858E+02   -0.73742E+01   -0.18581E+02389010   0.156E+02    0.462E+01
DAV:   7    -0.447337171150E+02    0.12421E+02   -0.69925E+01338478   0.901E+01    0.754E+00
DAV:   8    -0.454033432227E+02   -0.66963E+00   -0.58840E+00336691   0.175E+01    0.444E+00
DAV:   9    -0.453666627179E+02    0.36681E-01   -0.11429E+00359080   0.145E+01    0.253E+00
DAV:  10    -0.454306290782E+02   -0.63966E-01   -0.22871E-01350323   0.591E+00    0.162E+00
DAV:  11    -0.454439351380E+02   -0.13306E-01   -0.60282E-02352722   0.477E+00    0.114E+00
DAV:  12    -0.454531818140E+02   -0.92467E-02   -0.49283E-02324641   0.275E+00    0.403E-01
DAV:  13    -0.454535869832E+02   -0.40517E-03   -0.93785E-03330488   0.135E+00    0.227E-01
DAV:  14    -0.454537076157E+02   -0.12063E-03   -0.15815E-03313747   0.588E-01    0.798E-02
DAV:  15    -0.454537773345E+02   -0.69719E-04   -0.77599E-04352344   0.466E-01    0.102E-01
DAV:  16    -0.454537454437E+02    0.31891E-04   -0.25789E-04364078   0.328E-01    0.506E-02
DAV:  17    -0.454537605657E+02   -0.15122E-04   -0.72185E-05320635   0.101E-01    0.233E-02
DAV:  18    -0.454537660802E+02   -0.55145E-05   -0.17490E-05318072   0.574E-02    0.872E-03
DAV:  19    -0.454537684596E+02   -0.23794E-05   -0.40314E-06188424   0.357E-02    0.347E-03
DAV:  20    -0.454537692304E+02   -0.77082E-06   -0.14458E-06151184   0.161E-02
   1 F= -.45453769E+02 E0= -.45451560E+02  d E =-.662658E-02  mag=     0.0001
