 vasp.5.4.4.18Apr17-6-g9f103f2a35 (build Apr 28 2018 00:24:27) complex          
  
 executed on             LinuxIFC date 2021.09.07  01:12:08
 running on   24 total cores
 distrk:  each k-point on   24 cores,    1 groups
 distr:  one band on NCORES_PER_BAND=   4 cores,    6 groups


--------------------------------------------------------------------------------------------------------


 INCAR:
 POTCAR:    PAW_PBE Fe_pv 02Aug2007               
 POTCAR:    PAW_PBE Fe_pv 02Aug2007               
   VRHFIN =Fe:  3pd7s1                                                          
   LEXCH  = PE                                                                  
   EATOM  =  2457.4239 eV,  180.6156 Ry                                         
                                                                                
   TITEL  = PAW_PBE Fe_pv 02Aug2007                                             
   LULTRA =        F    use ultrasoft PP ?                                      
   IUNSCR =        1    unscreen: 0-lin 1-nonlin 2-no                           
   RPACOR =    1.750    partial core radius                                     
   POMASS =   55.847; ZVAL   =   14.000    mass and valenz                      
   RCORE  =    2.200    outmost cutoff radius                                   
   RWIGS  =    2.200; RWIGS  =    1.164    wigner-seitz radius (au A)           
   ENMAX  =  293.238; ENMIN  =  219.928 eV                                      
   ICORE  =        3    local potential                                         
   LCOR   =        T    correct aug charges                                     
   LPAW   =        T    paw PP                                                  
   EAUG   =  578.342                                                            
   DEXC   =    0.000                                                            
   RMAX   =    2.249    core radius for proj-oper                               
   RAUG   =    1.300    factor for augmentation sphere                          
   RDEP   =    2.296    radius for radial grids                                 
   RDEPT  =    1.766    core radius for aug-charge                              
                                                                                
   Atomic configuration                                                         
    8 entries                                                                   
     n  l   j            E        occ.                                          
     1  0  0.50     -6993.8440   2.0000                                         
     2  0  0.50      -814.6047   2.0000                                         
     2  1  1.50      -693.3689   6.0000                                         
     3  0  0.50       -89.4732   2.0000                                         
     3  1  1.50       -55.6373   6.0000                                         
     3  2  2.50        -3.8151   7.0000                                         
     4  0  0.50        -4.2551   1.0000                                         
     4  3  2.50        -1.3606   0.0000                                         
   Description                                                                  
     l       E           TYP  RCUT    TYP  RCUT                                 
     1    -55.6372668     23  2.000                                             
     1     -5.4423304     23  2.000                                             
     2     -3.8151096     23  2.200                                             
     2     -5.1756922     23  2.200                                             
     0     -4.2550951     23  2.200                                             
     0     27.2116520     23  2.200                                             
     3     -1.3605826     23  2.200                                             
  local pseudopotential read in
  partial core-charges read in
  partial kinetic energy density read in
  atomic valenz-charges read in
  non local Contribution for L=           1  read in
    real space projection operators read in
  non local Contribution for L=           1  read in
    real space projection operators read in
  non local Contribution for L=           2  read in
    real space projection operators read in
  non local Contribution for L=           2  read in
    real space projection operators read in
  non local Contribution for L=           0  read in
    real space projection operators read in
  non local Contribution for L=           0  read in
    real space projection operators read in
    PAW grid and wavefunctions read in
 
   number of l-projection  operators is LMAX  =           6
   number of lm-projection operators is LMMAX =          18
 

 ----------------------------------------------------------------------------- 
|                                                                             |
|  ADVICE TO THIS USER RUNNING 'VASP/VAMP'   (HEAR YOUR MASTER'S VOICE ...):  |
|                                                                             |
|      You have a (more or less) 'small supercell' and for smaller cells      |
|      it is recommended  to use the reciprocal-space projection scheme!      |
|      The real space optimization is not  efficient for small cells and it   |
|      is also less accurate ...                                              |
|      Therefore set LREAL=.FALSE. in the  INCAR file                         |
|                                                                             |
 ----------------------------------------------------------------------------- 

 Optimization of the real space projectors (new method)

 maximal supplied QI-value         = 17.01
 optimisation between [QCUT,QGAM] = [ 15.48, 30.95] = [ 67.08,268.30] Ry 
 Optimized for a Real-space Cutoff    1.26 Angstroem

   l    n(q)    QCUT    max X(q) W(low)/X(q) W(high)/X(q)  e(spline) 
   1     11    15.477     4.267    0.90E-04    0.14E-03    0.59E-06
   1     11    15.477     5.750    0.14E-03    0.21E-03    0.81E-06
   2     11    15.477    53.656    0.97E-04    0.12E-03    0.26E-06
   2     11    15.477    49.521    0.10E-03    0.12E-03    0.27E-06
   0     12    15.477    31.246    0.35E-04    0.34E-04    0.27E-06
   0     12    15.477    12.201    0.29E-04    0.28E-04    0.22E-06
  PAW_PBE Fe_pv 02Aug2007               :
 energy of atom  1       EATOM=-2457.4239
 kinetic energy error for atom=    0.0010 (will be added to EATOM!!)
 
 
 POSCAR: Fe2                                     
  positions in direct lattice
  No initial velocities read in
 exchange correlation table for  LEXCH =        8
   RHO(1)=    0.500       N(1)  =     2000
   RHO(2)=  100.500       N(2)  =     4000
 


--------------------------------------------------------------------------------------------------------


 ion  position               nearest neighbor table
   1  0.000  0.000  0.000-   2 2.46   2 2.46   2 2.46   2 2.46   2 2.46   2 2.46   2 2.46   2 2.46

   2  0.500  0.500  0.500-   1 2.46   1 2.46   1 2.46   1 2.46   1 2.46   1 2.46   1 2.46   1 2.46

 
  LATTYP: Found a simple cubic cell.
 ALAT       =     2.8400520000
  
  Lattice vectors:
  
 A1 = (   2.8400520000,   0.0000000000,   0.0000000000)
 A2 = (   0.0000000000,   2.8400520000,   0.0000000000)
 A3 = (   0.0000000000,   0.0000000000,   2.8400520000)


Analysis of symmetry for initial positions (statically):
=====================================================================
 Subroutine PRICEL returns following result:
 
  LATTYP: Found a body centered cubic cell.
 ALAT       =     2.8400520000
  
  Lattice vectors:
  
 A1 = (   1.4200260000,   1.4200260000,   1.4200260000)
 A2 = (   1.4200260000,  -1.4200260000,  -1.4200260000)
 A3 = (  -1.4200260000,   1.4200260000,  -1.4200260000)
 
   2 primitive cells build up your supercell.
 

 Routine SETGRP: Setting up the symmetry group for a 
 simple cubic supercell.


 Subroutine GETGRP returns: Found 48 space group operations
 (whereof 48 operations were pure point group operations)
 out of a pool of 48 trial point group operations.


The static configuration has the point symmetry O_h .


Analysis of symmetry for dynamics (positions and initial velocities):
=====================================================================
 Subroutine PRICEL returns following result:
 
  LATTYP: Found a body centered cubic cell.
 ALAT       =     2.8400520000
  
  Lattice vectors:
  
 A1 = (   1.4200260000,   1.4200260000,   1.4200260000)
 A2 = (   1.4200260000,  -1.4200260000,  -1.4200260000)
 A3 = (  -1.4200260000,   1.4200260000,  -1.4200260000)
 
   2 primitive cells build up your supercell.
 

 Routine SETGRP: Setting up the symmetry group for a 
 simple cubic supercell.


 Subroutine GETGRP returns: Found 48 space group operations
 (whereof 48 operations were pure point group operations)
 out of a pool of 48 trial point group operations.


The dynamic configuration has the point symmetry O_h .


Analysis of structural, dynamic, and magnetic symmetry:
=====================================================================
 Subroutine PRICEL returns following result:
 
  LATTYP: Found a body centered cubic cell.
 ALAT       =     2.8400520000
  
  Lattice vectors:
  
 A1 = (   1.4200260000,   1.4200260000,   1.4200260000)
 A2 = (   1.4200260000,  -1.4200260000,  -1.4200260000)
 A3 = (  -1.4200260000,   1.4200260000,  -1.4200260000)
 
   2 primitive cells build up your supercell.
 

 Routine SETGRP: Setting up the symmetry group for a 
 simple cubic supercell.


 Subroutine GETGRP returns: Found 48 space group operations
 (whereof 48 operations were pure point group operations)
 out of a pool of 48 trial point group operations.


The magnetic configuration has the point symmetry O_h .


 Subroutine INISYM returns: Found 48 space group operations
 (whereof 48 operations are pure point group operations),
 and found     2 'primitive' translations

 
 
 KPOINTS: Automatic mesh                          

Automatic generation of k-mesh.
 generate k-points for:   39   39   39
Space group operators:
 irot       det(A)        alpha          n_x          n_y          n_z        tau_x        tau_y        tau_z
    1     1.000000     0.000000     1.000000     0.000000     0.000000     0.000000     0.000000     0.000000
    2    -1.000000     0.000000     1.000000     0.000000     0.000000     0.000000     0.000000     0.000000
    3     1.000000   120.000000    -0.577350    -0.577350    -0.577350     0.000000     0.000000     0.000000
    4    -1.000000   120.000000    -0.577350    -0.577350    -0.577350     0.000000     0.000000     0.000000
    5     1.000000   120.000000     0.577350     0.577350     0.577350     0.000000     0.000000     0.000000
    6    -1.000000   120.000000     0.577350     0.577350     0.577350     0.000000     0.000000     0.000000
    7     1.000000    90.000000     0.000000     0.000000    -1.000000     0.000000     0.000000     0.000000
    8    -1.000000    90.000000     0.000000     0.000000    -1.000000     0.000000     0.000000     0.000000
    9     1.000000   180.000000     0.000000     0.707107     0.707107     0.000000     0.000000     0.000000
   10    -1.000000   180.000000     0.000000     0.707107     0.707107     0.000000     0.000000     0.000000
   11     1.000000    90.000000     0.000000     1.000000     0.000000     0.000000     0.000000     0.000000
   12    -1.000000    90.000000     0.000000     1.000000     0.000000     0.000000     0.000000     0.000000
   13     1.000000   180.000000     0.000000     0.000000     1.000000     0.000000     0.000000     0.000000
   14    -1.000000   180.000000     0.000000     0.000000     1.000000     0.000000     0.000000     0.000000
   15     1.000000   120.000000    -0.577350     0.577350     0.577350     0.000000     0.000000     0.000000
   16    -1.000000   120.000000    -0.577350     0.577350     0.577350     0.000000     0.000000     0.000000
   17     1.000000   120.000000    -0.577350     0.577350    -0.577350     0.000000     0.000000     0.000000
   18    -1.000000   120.000000    -0.577350     0.577350    -0.577350     0.000000     0.000000     0.000000
   19     1.000000    90.000000     0.000000     0.000000     1.000000     0.000000     0.000000     0.000000
   20    -1.000000    90.000000     0.000000     0.000000     1.000000     0.000000     0.000000     0.000000
   21     1.000000    90.000000    -1.000000     0.000000     0.000000     0.000000     0.000000     0.000000
   22    -1.000000    90.000000    -1.000000     0.000000     0.000000     0.000000     0.000000     0.000000
   23     1.000000   180.000000     0.707107     0.000000     0.707107     0.000000     0.000000     0.000000
   24    -1.000000   180.000000     0.707107     0.000000     0.707107     0.000000     0.000000     0.000000
   25     1.000000   120.000000     0.577350    -0.577350     0.577350     0.000000     0.000000     0.000000
   26    -1.000000   120.000000     0.577350    -0.577350     0.577350     0.000000     0.000000     0.000000
   27     1.000000   120.000000    -0.577350    -0.577350     0.577350     0.000000     0.000000     0.000000
   28    -1.000000   120.000000    -0.577350    -0.577350     0.577350     0.000000     0.000000     0.000000
   29     1.000000   180.000000     1.000000     0.000000     0.000000     0.000000     0.000000     0.000000
   30    -1.000000   180.000000     1.000000     0.000000     0.000000     0.000000     0.000000     0.000000
   31     1.000000    90.000000     0.000000    -1.000000     0.000000     0.000000     0.000000     0.000000
   32    -1.000000    90.000000     0.000000    -1.000000     0.000000     0.000000     0.000000     0.000000
   33     1.000000   180.000000     0.707107     0.707107     0.000000     0.000000     0.000000     0.000000
   34    -1.000000   180.000000     0.707107     0.707107     0.000000     0.000000     0.000000     0.000000
   35     1.000000    90.000000     1.000000     0.000000     0.000000     0.000000     0.000000     0.000000
   36    -1.000000    90.000000     1.000000     0.000000     0.000000     0.000000     0.000000     0.000000
   37     1.000000   120.000000     0.577350    -0.577350    -0.577350     0.000000     0.000000     0.000000
   38    -1.000000   120.000000     0.577350    -0.577350    -0.577350     0.000000     0.000000     0.000000
   39     1.000000   180.000000     0.000000     1.000000     0.000000     0.000000     0.000000     0.000000
   40    -1.000000   180.000000     0.000000     1.000000     0.000000     0.000000     0.000000     0.000000
   41     1.000000   120.000000     0.577350     0.577350    -0.577350     0.000000     0.000000     0.000000
   42    -1.000000   120.000000     0.577350     0.577350    -0.577350     0.000000     0.000000     0.000000
   43     1.000000   180.000000     0.000000    -0.707107     0.707107     0.000000     0.000000     0.000000
   44    -1.000000   180.000000     0.000000    -0.707107     0.707107     0.000000     0.000000     0.000000
   45     1.000000   180.000000     0.707107    -0.707107     0.000000     0.000000     0.000000     0.000000
   46    -1.000000   180.000000     0.707107    -0.707107     0.000000     0.000000     0.000000     0.000000
   47     1.000000   180.000000     0.707107     0.000000    -0.707107     0.000000     0.000000     0.000000
   48    -1.000000   180.000000     0.707107     0.000000    -0.707107     0.000000     0.000000     0.000000
 
 Subroutine IBZKPT returns following result:
 ===========================================
 
 Found   1540 irreducible k-points:
 
 Following reciprocal coordinates:
            Coordinates               Weight
  0.000000  0.000000  0.000000      1.000000
  0.025641  0.000000  0.000000      6.000000
  0.051282  0.000000  0.000000      6.000000
  0.076923  0.000000  0.000000      6.000000
  0.102564  0.000000  0.000000      6.000000
  0.128205  0.000000  0.000000      6.000000
  0.153846  0.000000  0.000000      6.000000
  0.179487  0.000000  0.000000      6.000000
  0.205128  0.000000  0.000000      6.000000
  0.230769  0.000000  0.000000      6.000000
  0.256410  0.000000  0.000000      6.000000
  0.282051  0.000000  0.000000      6.000000
  0.307692  0.000000  0.000000      6.000000
  0.333333  0.000000  0.000000      6.000000
  0.358974  0.000000  0.000000      6.000000
  0.384615  0.000000  0.000000      6.000000
  0.410256  0.000000  0.000000      6.000000
  0.435897  0.000000  0.000000      6.000000
  0.461538  0.000000  0.000000      6.000000
  0.487179  0.000000  0.000000      6.000000
  0.025641  0.025641  0.000000     12.000000
  0.051282  0.025641  0.000000     24.000000
  0.076923  0.025641  0.000000     24.000000
  0.102564  0.025641  0.000000     24.000000
  0.128205  0.025641  0.000000     24.000000
  0.153846  0.025641  0.000000     24.000000
  0.179487  0.025641  0.000000     24.000000
  0.205128  0.025641  0.000000     24.000000
  0.230769  0.025641  0.000000     24.000000
  0.256410  0.025641  0.000000     24.000000
  0.282051  0.025641  0.000000     24.000000
  0.307692  0.025641  0.000000     24.000000
  0.333333  0.025641  0.000000     24.000000
  0.358974  0.025641  0.000000     24.000000
  0.384615  0.025641  0.000000     24.000000
  0.410256  0.025641  0.000000     24.000000
  0.435897  0.025641  0.000000     24.000000
  0.461538  0.025641  0.000000     24.000000
  0.487179  0.025641  0.000000     24.000000
  0.051282  0.051282  0.000000     12.000000
  0.076923  0.051282  0.000000     24.000000
  0.102564  0.051282  0.000000     24.000000
  0.128205  0.051282  0.000000     24.000000
  0.153846  0.051282  0.000000     24.000000
  0.179487  0.051282  0.000000     24.000000
  0.205128  0.051282  0.000000     24.000000
  0.230769  0.051282  0.000000     24.000000
  0.256410  0.051282  0.000000     24.000000
  0.282051  0.051282  0.000000     24.000000
  0.307692  0.051282  0.000000     24.000000
  0.333333  0.051282  0.000000     24.000000
  0.358974  0.051282  0.000000     24.000000
  0.384615  0.051282  0.000000     24.000000
  0.410256  0.051282  0.000000     24.000000
  0.435897  0.051282  0.000000     24.000000
  0.461538  0.051282  0.000000     24.000000
  0.487179  0.051282  0.000000     24.000000
  0.076923  0.076923  0.000000     12.000000
  0.102564  0.076923  0.000000     24.000000
  0.128205  0.076923  0.000000     24.000000
  0.153846  0.076923  0.000000     24.000000
  0.179487  0.076923  0.000000     24.000000
  0.205128  0.076923  0.000000     24.000000
  0.230769  0.076923  0.000000     24.000000
  0.256410  0.076923  0.000000     24.000000
  0.282051  0.076923  0.000000     24.000000
  0.307692  0.076923  0.000000     24.000000
  0.333333  0.076923  0.000000     24.000000
  0.358974  0.076923  0.000000     24.000000
  0.384615  0.076923  0.000000     24.000000
  0.410256  0.076923  0.000000     24.000000
  0.435897  0.076923  0.000000     24.000000
  0.461538  0.076923  0.000000     24.000000
  0.487179  0.076923  0.000000     24.000000
  0.102564  0.102564  0.000000     12.000000
  0.128205  0.102564  0.000000     24.000000
  0.153846  0.102564  0.000000     24.000000
  0.179487  0.102564  0.000000     24.000000
  0.205128  0.102564  0.000000     24.000000
  0.230769  0.102564  0.000000     24.000000
  0.256410  0.102564  0.000000     24.000000
  0.282051  0.102564  0.000000     24.000000
  0.307692  0.102564  0.000000     24.000000
  0.333333  0.102564  0.000000     24.000000
  0.358974  0.102564  0.000000     24.000000
  0.384615  0.102564  0.000000     24.000000
  0.410256  0.102564  0.000000     24.000000
  0.435897  0.102564  0.000000     24.000000
  0.461538  0.102564  0.000000     24.000000
  0.487179  0.102564  0.000000     24.000000
  0.128205  0.128205  0.000000     12.000000
  0.153846  0.128205  0.000000     24.000000
  0.179487  0.128205  0.000000     24.000000
  0.205128  0.128205  0.000000     24.000000
  0.230769  0.128205  0.000000     24.000000
  0.256410  0.128205  0.000000     24.000000
  0.282051  0.128205  0.000000     24.000000
  0.307692  0.128205  0.000000     24.000000
  0.333333  0.128205  0.000000     24.000000
  0.358974  0.128205  0.000000     24.000000
  0.384615  0.128205  0.000000     24.000000
  0.410256  0.128205  0.000000     24.000000
  0.435897  0.128205  0.000000     24.000000
  0.461538  0.128205  0.000000     24.000000
  0.487179  0.128205  0.000000     24.000000
  0.153846  0.153846  0.000000     12.000000
  0.179487  0.153846  0.000000     24.000000
  0.205128  0.153846  0.000000     24.000000
  0.230769  0.153846  0.000000     24.000000
  0.256410  0.153846  0.000000     24.000000
  0.282051  0.153846  0.000000     24.000000
  0.307692  0.153846  0.000000     24.000000
  0.333333  0.153846  0.000000     24.000000
  0.358974  0.153846  0.000000     24.000000
  0.384615  0.153846  0.000000     24.000000
  0.410256  0.153846  0.000000     24.000000
  0.435897  0.153846  0.000000     24.000000
  0.461538  0.153846  0.000000     24.000000
  0.487179  0.153846  0.000000     24.000000
  0.179487  0.179487  0.000000     12.000000
  0.205128  0.179487  0.000000     24.000000
  0.230769  0.179487  0.000000     24.000000
  0.256410  0.179487  0.000000     24.000000
  0.282051  0.179487  0.000000     24.000000
  0.307692  0.179487  0.000000     24.000000
  0.333333  0.179487  0.000000     24.000000
  0.358974  0.179487  0.000000     24.000000
  0.384615  0.179487  0.000000     24.000000
  0.410256  0.179487  0.000000     24.000000
  0.435897  0.179487  0.000000     24.000000
  0.461538  0.179487  0.000000     24.000000
  0.487179  0.179487  0.000000     24.000000
  0.205128  0.205128  0.000000     12.000000
  0.230769  0.205128  0.000000     24.000000
  0.256410  0.205128  0.000000     24.000000
  0.282051  0.205128  0.000000     24.000000
  0.307692  0.205128  0.000000     24.000000
  0.333333  0.205128  0.000000     24.000000
  0.358974  0.205128  0.000000     24.000000
  0.384615  0.205128  0.000000     24.000000
  0.410256  0.205128  0.000000     24.000000
  0.435897  0.205128  0.000000     24.000000
  0.461538  0.205128  0.000000     24.000000
  0.487179  0.205128  0.000000     24.000000
  0.230769  0.230769  0.000000     12.000000
  0.256410  0.230769  0.000000     24.000000
  0.282051  0.230769  0.000000     24.000000
  0.307692  0.230769  0.000000     24.000000
  0.333333  0.230769  0.000000     24.000000
  0.358974  0.230769  0.000000     24.000000
  0.384615  0.230769  0.000000     24.000000
  0.410256  0.230769  0.000000     24.000000
  0.435897  0.230769  0.000000     24.000000
  0.461538  0.230769  0.000000     24.000000
  0.487179  0.230769  0.000000     24.000000
  0.256410  0.256410  0.000000     12.000000
  0.282051  0.256410  0.000000     24.000000
  0.307692  0.256410  0.000000     24.000000
  0.333333  0.256410  0.000000     24.000000
  0.358974  0.256410  0.000000     24.000000
  0.384615  0.256410  0.000000     24.000000
  0.410256  0.256410  0.000000     24.000000
  0.435897  0.256410  0.000000     24.000000
  0.461538  0.256410  0.000000     24.000000
  0.487179  0.256410  0.000000     24.000000
  0.282051  0.282051  0.000000     12.000000
  0.307692  0.282051  0.000000     24.000000
  0.333333  0.282051  0.000000     24.000000
  0.358974  0.282051  0.000000     24.000000
  0.384615  0.282051  0.000000     24.000000
  0.410256  0.282051  0.000000     24.000000
  0.435897  0.282051  0.000000     24.000000
  0.461538  0.282051  0.000000     24.000000
  0.487179  0.282051  0.000000     24.000000
  0.307692  0.307692  0.000000     12.000000
  0.333333  0.307692  0.000000     24.000000
  0.358974  0.307692  0.000000     24.000000
  0.384615  0.307692  0.000000     24.000000
  0.410256  0.307692  0.000000     24.000000
  0.435897  0.307692  0.000000     24.000000
  0.461538  0.307692  0.000000     24.000000
  0.487179  0.307692  0.000000     24.000000
  0.333333  0.333333  0.000000     12.000000
  0.358974  0.333333  0.000000     24.000000
  0.384615  0.333333  0.000000     24.000000
  0.410256  0.333333  0.000000     24.000000
  0.435897  0.333333  0.000000     24.000000
  0.461538  0.333333  0.000000     24.000000
  0.487179  0.333333  0.000000     24.000000
  0.358974  0.358974  0.000000     12.000000
  0.384615  0.358974  0.000000     24.000000
  0.410256  0.358974  0.000000     24.000000
  0.435897  0.358974  0.000000     24.000000
  0.461538  0.358974  0.000000     24.000000
  0.487179  0.358974  0.000000     24.000000
  0.384615  0.384615  0.000000     12.000000
  0.410256  0.384615  0.000000     24.000000
  0.435897  0.384615  0.000000     24.000000
  0.461538  0.384615  0.000000     24.000000
  0.487179  0.384615  0.000000     24.000000
  0.410256  0.410256  0.000000     12.000000
  0.435897  0.410256  0.000000     24.000000
  0.461538  0.410256  0.000000     24.000000
  0.487179  0.410256  0.000000     24.000000
  0.435897  0.435897  0.000000     12.000000
  0.461538  0.435897  0.000000     24.000000
  0.487179  0.435897  0.000000     24.000000
  0.461538  0.461538  0.000000     12.000000
  0.487179  0.461538  0.000000     24.000000
  0.487179  0.487179  0.000000     12.000000
  0.025641  0.025641  0.025641      8.000000
  0.051282  0.025641  0.025641     24.000000
  0.076923  0.025641  0.025641     24.000000
  0.102564  0.025641  0.025641     24.000000
  0.128205  0.025641  0.025641     24.000000
  0.153846  0.025641  0.025641     24.000000
  0.179487  0.025641  0.025641     24.000000
  0.205128  0.025641  0.025641     24.000000
  0.230769  0.025641  0.025641     24.000000
  0.256410  0.025641  0.025641     24.000000
  0.282051  0.025641  0.025641     24.000000
  0.307692  0.025641  0.025641     24.000000
  0.333333  0.025641  0.025641     24.000000
  0.358974  0.025641  0.025641     24.000000
  0.384615  0.025641  0.025641     24.000000
  0.410256  0.025641  0.025641     24.000000
  0.435897  0.025641  0.025641     24.000000
  0.461538  0.025641  0.025641     24.000000
  0.487179  0.025641  0.025641     24.000000
  0.051282  0.051282  0.025641     24.000000
  0.076923  0.051282  0.025641     48.000000
  0.102564  0.051282  0.025641     48.000000
  0.128205  0.051282  0.025641     48.000000
  0.153846  0.051282  0.025641     48.000000
  0.179487  0.051282  0.025641     48.000000
  0.205128  0.051282  0.025641     48.000000
  0.230769  0.051282  0.025641     48.000000
  0.256410  0.051282  0.025641     48.000000
  0.282051  0.051282  0.025641     48.000000
  0.307692  0.051282  0.025641     48.000000
  0.333333  0.051282  0.025641     48.000000
  0.358974  0.051282  0.025641     48.000000
  0.384615  0.051282  0.025641     48.000000
  0.410256  0.051282  0.025641     48.000000
  0.435897  0.051282  0.025641     48.000000
  0.461538  0.051282  0.025641     48.000000
  0.487179  0.051282  0.025641     48.000000
  0.076923  0.076923  0.025641     24.000000
  0.102564  0.076923  0.025641     48.000000
  0.128205  0.076923  0.025641     48.000000
  0.153846  0.076923  0.025641     48.000000
  0.179487  0.076923  0.025641     48.000000
  0.205128  0.076923  0.025641     48.000000
  0.230769  0.076923  0.025641     48.000000
  0.256410  0.076923  0.025641     48.000000
  0.282051  0.076923  0.025641     48.000000
  0.307692  0.076923  0.025641     48.000000
  0.333333  0.076923  0.025641     48.000000
  0.358974  0.076923  0.025641     48.000000
  0.384615  0.076923  0.025641     48.000000
  0.410256  0.076923  0.025641     48.000000
  0.435897  0.076923  0.025641     48.000000
  0.461538  0.076923  0.025641     48.000000
  0.487179  0.076923  0.025641     48.000000
  0.102564  0.102564  0.025641     24.000000
  0.128205  0.102564  0.025641     48.000000
  0.153846  0.102564  0.025641     48.000000
  0.179487  0.102564  0.025641     48.000000
  0.205128  0.102564  0.025641     48.000000
  0.230769  0.102564  0.025641     48.000000
  0.256410  0.102564  0.025641     48.000000
  0.282051  0.102564  0.025641     48.000000
  0.307692  0.102564  0.025641     48.000000
  0.333333  0.102564  0.025641     48.000000
  0.358974  0.102564  0.025641     48.000000
  0.384615  0.102564  0.025641     48.000000
  0.410256  0.102564  0.025641     48.000000
  0.435897  0.102564  0.025641     48.000000
  0.461538  0.102564  0.025641     48.000000
  0.487179  0.102564  0.025641     48.000000
  0.128205  0.128205  0.025641     24.000000
  0.153846  0.128205  0.025641     48.000000
  0.179487  0.128205  0.025641     48.000000
  0.205128  0.128205  0.025641     48.000000
  0.230769  0.128205  0.025641     48.000000
  0.256410  0.128205  0.025641     48.000000
  0.282051  0.128205  0.025641     48.000000
  0.307692  0.128205  0.025641     48.000000
  0.333333  0.128205  0.025641     48.000000
  0.358974  0.128205  0.025641     48.000000
  0.384615  0.128205  0.025641     48.000000
  0.410256  0.128205  0.025641     48.000000
  0.435897  0.128205  0.025641     48.000000
  0.461538  0.128205  0.025641     48.000000
  0.487179  0.128205  0.025641     48.000000
  0.153846  0.153846  0.025641     24.000000
  0.179487  0.153846  0.025641     48.000000
  0.205128  0.153846  0.025641     48.000000
  0.230769  0.153846  0.025641     48.000000
  0.256410  0.153846  0.025641     48.000000
  0.282051  0.153846  0.025641     48.000000
  0.307692  0.153846  0.025641     48.000000
  0.333333  0.153846  0.025641     48.000000
  0.358974  0.153846  0.025641     48.000000
  0.384615  0.153846  0.025641     48.000000
  0.410256  0.153846  0.025641     48.000000
  0.435897  0.153846  0.025641     48.000000
  0.461538  0.153846  0.025641     48.000000
  0.487179  0.153846  0.025641     48.000000
  0.179487  0.179487  0.025641     24.000000
  0.205128  0.179487  0.025641     48.000000
  0.230769  0.179487  0.025641     48.000000
  0.256410  0.179487  0.025641     48.000000
  0.282051  0.179487  0.025641     48.000000
  0.307692  0.179487  0.025641     48.000000
  0.333333  0.179487  0.025641     48.000000
  0.358974  0.179487  0.025641     48.000000
  0.384615  0.179487  0.025641     48.000000
  0.410256  0.179487  0.025641     48.000000
  0.435897  0.179487  0.025641     48.000000
  0.461538  0.179487  0.025641     48.000000
  0.487179  0.179487  0.025641     48.000000
  0.205128  0.205128  0.025641     24.000000
  0.230769  0.205128  0.025641     48.000000
  0.256410  0.205128  0.025641     48.000000
  0.282051  0.205128  0.025641     48.000000
  0.307692  0.205128  0.025641     48.000000
  0.333333  0.205128  0.025641     48.000000
  0.358974  0.205128  0.025641     48.000000
  0.384615  0.205128  0.025641     48.000000
  0.410256  0.205128  0.025641     48.000000
  0.435897  0.205128  0.025641     48.000000
  0.461538  0.205128  0.025641     48.000000
  0.487179  0.205128  0.025641     48.000000
  0.230769  0.230769  0.025641     24.000000
  0.256410  0.230769  0.025641     48.000000
  0.282051  0.230769  0.025641     48.000000
  0.307692  0.230769  0.025641     48.000000
  0.333333  0.230769  0.025641     48.000000
  0.358974  0.230769  0.025641     48.000000
  0.384615  0.230769  0.025641     48.000000
  0.410256  0.230769  0.025641     48.000000
  0.435897  0.230769  0.025641     48.000000
  0.461538  0.230769  0.025641     48.000000
  0.487179  0.230769  0.025641     48.000000
  0.256410  0.256410  0.025641     24.000000
  0.282051  0.256410  0.025641     48.000000
  0.307692  0.256410  0.025641     48.000000
  0.333333  0.256410  0.025641     48.000000
  0.358974  0.256410  0.025641     48.000000
  0.384615  0.256410  0.025641     48.000000
  0.410256  0.256410  0.025641     48.000000
  0.435897  0.256410  0.025641     48.000000
  0.461538  0.256410  0.025641     48.000000
  0.487179  0.256410  0.025641     48.000000
  0.282051  0.282051  0.025641     24.000000
  0.307692  0.282051  0.025641     48.000000
  0.333333  0.282051  0.025641     48.000000
  0.358974  0.282051  0.025641     48.000000
  0.384615  0.282051  0.025641     48.000000
  0.410256  0.282051  0.025641     48.000000
  0.435897  0.282051  0.025641     48.000000
  0.461538  0.282051  0.025641     48.000000
  0.487179  0.282051  0.025641     48.000000
  0.307692  0.307692  0.025641     24.000000
  0.333333  0.307692  0.025641     48.000000
  0.358974  0.307692  0.025641     48.000000
  0.384615  0.307692  0.025641     48.000000
  0.410256  0.307692  0.025641     48.000000
  0.435897  0.307692  0.025641     48.000000
  0.461538  0.307692  0.025641     48.000000
  0.487179  0.307692  0.025641     48.000000
  0.333333  0.333333  0.025641     24.000000
  0.358974  0.333333  0.025641     48.000000
  0.384615  0.333333  0.025641     48.000000
  0.410256  0.333333  0.025641     48.000000
  0.435897  0.333333  0.025641     48.000000
  0.461538  0.333333  0.025641     48.000000
  0.487179  0.333333  0.025641     48.000000
  0.358974  0.358974  0.025641     24.000000
  0.384615  0.358974  0.025641     48.000000
  0.410256  0.358974  0.025641     48.000000
  0.435897  0.358974  0.025641     48.000000
  0.461538  0.358974  0.025641     48.000000
  0.487179  0.358974  0.025641     48.000000
  0.384615  0.384615  0.025641     24.000000
  0.410256  0.384615  0.025641     48.000000
  0.435897  0.384615  0.025641     48.000000
  0.461538  0.384615  0.025641     48.000000
  0.487179  0.384615  0.025641     48.000000
  0.410256  0.410256  0.025641     24.000000
  0.435897  0.410256  0.025641     48.000000
  0.461538  0.410256  0.025641     48.000000
  0.487179  0.410256  0.025641     48.000000
  0.435897  0.435897  0.025641     24.000000
  0.461538  0.435897  0.025641     48.000000
  0.487179  0.435897  0.025641     48.000000
  0.461538  0.461538  0.025641     24.000000
  0.487179  0.461538  0.025641     48.000000
  0.487179  0.487179  0.025641     24.000000
  0.051282  0.051282  0.051282      8.000000
  0.076923  0.051282  0.051282     24.000000
  0.102564  0.051282  0.051282     24.000000
  0.128205  0.051282  0.051282     24.000000
  0.153846  0.051282  0.051282     24.000000
  0.179487  0.051282  0.051282     24.000000
  0.205128  0.051282  0.051282     24.000000
  0.230769  0.051282  0.051282     24.000000
  0.256410  0.051282  0.051282     24.000000
  0.282051  0.051282  0.051282     24.000000
  0.307692  0.051282  0.051282     24.000000
  0.333333  0.051282  0.051282     24.000000
  0.358974  0.051282  0.051282     24.000000
  0.384615  0.051282  0.051282     24.000000
  0.410256  0.051282  0.051282     24.000000
  0.435897  0.051282  0.051282     24.000000
  0.461538  0.051282  0.051282     24.000000
  0.487179  0.051282  0.051282     24.000000
  0.076923  0.076923  0.051282     24.000000
  0.102564  0.076923  0.051282     48.000000
  0.128205  0.076923  0.051282     48.000000
  0.153846  0.076923  0.051282     48.000000
  0.179487  0.076923  0.051282     48.000000
  0.205128  0.076923  0.051282     48.000000
  0.230769  0.076923  0.051282     48.000000
  0.256410  0.076923  0.051282     48.000000
  0.282051  0.076923  0.051282     48.000000
  0.307692  0.076923  0.051282     48.000000
  0.333333  0.076923  0.051282     48.000000
  0.358974  0.076923  0.051282     48.000000
  0.384615  0.076923  0.051282     48.000000
  0.410256  0.076923  0.051282     48.000000
  0.435897  0.076923  0.051282     48.000000
  0.461538  0.076923  0.051282     48.000000
  0.487179  0.076923  0.051282     48.000000
  0.102564  0.102564  0.051282     24.000000
  0.128205  0.102564  0.051282     48.000000
  0.153846  0.102564  0.051282     48.000000
  0.179487  0.102564  0.051282     48.000000
  0.205128  0.102564  0.051282     48.000000
  0.230769  0.102564  0.051282     48.000000
  0.256410  0.102564  0.051282     48.000000
  0.282051  0.102564  0.051282     48.000000
  0.307692  0.102564  0.051282     48.000000
  0.333333  0.102564  0.051282     48.000000
  0.358974  0.102564  0.051282     48.000000
  0.384615  0.102564  0.051282     48.000000
  0.410256  0.102564  0.051282     48.000000
  0.435897  0.102564  0.051282     48.000000
  0.461538  0.102564  0.051282     48.000000
  0.487179  0.102564  0.051282     48.000000
  0.128205  0.128205  0.051282     24.000000
  0.153846  0.128205  0.051282     48.000000
  0.179487  0.128205  0.051282     48.000000
  0.205128  0.128205  0.051282     48.000000
  0.230769  0.128205  0.051282     48.000000
  0.256410  0.128205  0.051282     48.000000
  0.282051  0.128205  0.051282     48.000000
  0.307692  0.128205  0.051282     48.000000
  0.333333  0.128205  0.051282     48.000000
  0.358974  0.128205  0.051282     48.000000
  0.384615  0.128205  0.051282     48.000000
  0.410256  0.128205  0.051282     48.000000
  0.435897  0.128205  0.051282     48.000000
  0.461538  0.128205  0.051282     48.000000
  0.487179  0.128205  0.051282     48.000000
  0.153846  0.153846  0.051282     24.000000
  0.179487  0.153846  0.051282     48.000000
  0.205128  0.153846  0.051282     48.000000
  0.230769  0.153846  0.051282     48.000000
  0.256410  0.153846  0.051282     48.000000
  0.282051  0.153846  0.051282     48.000000
  0.307692  0.153846  0.051282     48.000000
  0.333333  0.153846  0.051282     48.000000
  0.358974  0.153846  0.051282     48.000000
  0.384615  0.153846  0.051282     48.000000
  0.410256  0.153846  0.051282     48.000000
  0.435897  0.153846  0.051282     48.000000
  0.461538  0.153846  0.051282     48.000000
  0.487179  0.153846  0.051282     48.000000
  0.179487  0.179487  0.051282     24.000000
  0.205128  0.179487  0.051282     48.000000
  0.230769  0.179487  0.051282     48.000000
  0.256410  0.179487  0.051282     48.000000
  0.282051  0.179487  0.051282     48.000000
  0.307692  0.179487  0.051282     48.000000
  0.333333  0.179487  0.051282     48.000000
  0.358974  0.179487  0.051282     48.000000
  0.384615  0.179487  0.051282     48.000000
  0.410256  0.179487  0.051282     48.000000
  0.435897  0.179487  0.051282     48.000000
  0.461538  0.179487  0.051282     48.000000
  0.487179  0.179487  0.051282     48.000000
  0.205128  0.205128  0.051282     24.000000
  0.230769  0.205128  0.051282     48.000000
  0.256410  0.205128  0.051282     48.000000
  0.282051  0.205128  0.051282     48.000000
  0.307692  0.205128  0.051282     48.000000
  0.333333  0.205128  0.051282     48.000000
  0.358974  0.205128  0.051282     48.000000
  0.384615  0.205128  0.051282     48.000000
  0.410256  0.205128  0.051282     48.000000
  0.435897  0.205128  0.051282     48.000000
  0.461538  0.205128  0.051282     48.000000
  0.487179  0.205128  0.051282     48.000000
  0.230769  0.230769  0.051282     24.000000
  0.256410  0.230769  0.051282     48.000000
  0.282051  0.230769  0.051282     48.000000
  0.307692  0.230769  0.051282     48.000000
  0.333333  0.230769  0.051282     48.000000
  0.358974  0.230769  0.051282     48.000000
  0.384615  0.230769  0.051282     48.000000
  0.410256  0.230769  0.051282     48.000000
  0.435897  0.230769  0.051282     48.000000
  0.461538  0.230769  0.051282     48.000000
  0.487179  0.230769  0.051282     48.000000
  0.256410  0.256410  0.051282     24.000000
  0.282051  0.256410  0.051282     48.000000
  0.307692  0.256410  0.051282     48.000000
  0.333333  0.256410  0.051282     48.000000
  0.358974  0.256410  0.051282     48.000000
  0.384615  0.256410  0.051282     48.000000
  0.410256  0.256410  0.051282     48.000000
  0.435897  0.256410  0.051282     48.000000
  0.461538  0.256410  0.051282     48.000000
  0.487179  0.256410  0.051282     48.000000
  0.282051  0.282051  0.051282     24.000000
  0.307692  0.282051  0.051282     48.000000
  0.333333  0.282051  0.051282     48.000000
  0.358974  0.282051  0.051282     48.000000
  0.384615  0.282051  0.051282     48.000000
  0.410256  0.282051  0.051282     48.000000
  0.435897  0.282051  0.051282     48.000000
  0.461538  0.282051  0.051282     48.000000
  0.487179  0.282051  0.051282     48.000000
  0.307692  0.307692  0.051282     24.000000
  0.333333  0.307692  0.051282     48.000000
  0.358974  0.307692  0.051282     48.000000
  0.384615  0.307692  0.051282     48.000000
  0.410256  0.307692  0.051282     48.000000
  0.435897  0.307692  0.051282     48.000000
  0.461538  0.307692  0.051282     48.000000
  0.487179  0.307692  0.051282     48.000000
  0.333333  0.333333  0.051282     24.000000
  0.358974  0.333333  0.051282     48.000000
  0.384615  0.333333  0.051282     48.000000
  0.410256  0.333333  0.051282     48.000000
  0.435897  0.333333  0.051282     48.000000
  0.461538  0.333333  0.051282     48.000000
  0.487179  0.333333  0.051282     48.000000
  0.358974  0.358974  0.051282     24.000000
  0.384615  0.358974  0.051282     48.000000
  0.410256  0.358974  0.051282     48.000000
  0.435897  0.358974  0.051282     48.000000
  0.461538  0.358974  0.051282     48.000000
  0.487179  0.358974  0.051282     48.000000
  0.384615  0.384615  0.051282     24.000000
  0.410256  0.384615  0.051282     48.000000
  0.435897  0.384615  0.051282     48.000000
  0.461538  0.384615  0.051282     48.000000
  0.487179  0.384615  0.051282     48.000000
  0.410256  0.410256  0.051282     24.000000
  0.435897  0.410256  0.051282     48.000000
  0.461538  0.410256  0.051282     48.000000
  0.487179  0.410256  0.051282     48.000000
  0.435897  0.435897  0.051282     24.000000
  0.461538  0.435897  0.051282     48.000000
  0.487179  0.435897  0.051282     48.000000
  0.461538  0.461538  0.051282     24.000000
  0.487179  0.461538  0.051282     48.000000
  0.487179  0.487179  0.051282     24.000000
  0.076923  0.076923  0.076923      8.000000
  0.102564  0.076923  0.076923     24.000000
  0.128205  0.076923  0.076923     24.000000
  0.153846  0.076923  0.076923     24.000000
  0.179487  0.076923  0.076923     24.000000
  0.205128  0.076923  0.076923     24.000000
  0.230769  0.076923  0.076923     24.000000
  0.256410  0.076923  0.076923     24.000000
  0.282051  0.076923  0.076923     24.000000
  0.307692  0.076923  0.076923     24.000000
  0.333333  0.076923  0.076923     24.000000
  0.358974  0.076923  0.076923     24.000000
  0.384615  0.076923  0.076923     24.000000
  0.410256  0.076923  0.076923     24.000000
  0.435897  0.076923  0.076923     24.000000
  0.461538  0.076923  0.076923     24.000000
  0.487179  0.076923  0.076923     24.000000
  0.102564  0.102564  0.076923     24.000000
  0.128205  0.102564  0.076923     48.000000
  0.153846  0.102564  0.076923     48.000000
  0.179487  0.102564  0.076923     48.000000
  0.205128  0.102564  0.076923     48.000000
  0.230769  0.102564  0.076923     48.000000
  0.256410  0.102564  0.076923     48.000000
  0.282051  0.102564  0.076923     48.000000
  0.307692  0.102564  0.076923     48.000000
  0.333333  0.102564  0.076923     48.000000
  0.358974  0.102564  0.076923     48.000000
  0.384615  0.102564  0.076923     48.000000
  0.410256  0.102564  0.076923     48.000000
  0.435897  0.102564  0.076923     48.000000
  0.461538  0.102564  0.076923     48.000000
  0.487179  0.102564  0.076923     48.000000
  0.128205  0.128205  0.076923     24.000000
  0.153846  0.128205  0.076923     48.000000
  0.179487  0.128205  0.076923     48.000000
  0.205128  0.128205  0.076923     48.000000
  0.230769  0.128205  0.076923     48.000000
  0.256410  0.128205  0.076923     48.000000
  0.282051  0.128205  0.076923     48.000000
  0.307692  0.128205  0.076923     48.000000
  0.333333  0.128205  0.076923     48.000000
  0.358974  0.128205  0.076923     48.000000
  0.384615  0.128205  0.076923     48.000000
  0.410256  0.128205  0.076923     48.000000
  0.435897  0.128205  0.076923     48.000000
  0.461538  0.128205  0.076923     48.000000
  0.487179  0.128205  0.076923     48.000000
  0.153846  0.153846  0.076923     24.000000
  0.179487  0.153846  0.076923     48.000000
  0.205128  0.153846  0.076923     48.000000
  0.230769  0.153846  0.076923     48.000000
  0.256410  0.153846  0.076923     48.000000
  0.282051  0.153846  0.076923     48.000000
  0.307692  0.153846  0.076923     48.000000
  0.333333  0.153846  0.076923     48.000000
  0.358974  0.153846  0.076923     48.000000
  0.384615  0.153846  0.076923     48.000000
  0.410256  0.153846  0.076923     48.000000
  0.435897  0.153846  0.076923     48.000000
  0.461538  0.153846  0.076923     48.000000
  0.487179  0.153846  0.076923     48.000000
  0.179487  0.179487  0.076923     24.000000
  0.205128  0.179487  0.076923     48.000000
  0.230769  0.179487  0.076923     48.000000
  0.256410  0.179487  0.076923     48.000000
  0.282051  0.179487  0.076923     48.000000
  0.307692  0.179487  0.076923     48.000000
  0.333333  0.179487  0.076923     48.000000
  0.358974  0.179487  0.076923     48.000000
  0.384615  0.179487  0.076923     48.000000
  0.410256  0.179487  0.076923     48.000000
  0.435897  0.179487  0.076923     48.000000
  0.461538  0.179487  0.076923     48.000000
  0.487179  0.179487  0.076923     48.000000
  0.205128  0.205128  0.076923     24.000000
  0.230769  0.205128  0.076923     48.000000
  0.256410  0.205128  0.076923     48.000000
  0.282051  0.205128  0.076923     48.000000
  0.307692  0.205128  0.076923     48.000000
  0.333333  0.205128  0.076923     48.000000
  0.358974  0.205128  0.076923     48.000000
  0.384615  0.205128  0.076923     48.000000
  0.410256  0.205128  0.076923     48.000000
  0.435897  0.205128  0.076923     48.000000
  0.461538  0.205128  0.076923     48.000000
  0.487179  0.205128  0.076923     48.000000
  0.230769  0.230769  0.076923     24.000000
  0.256410  0.230769  0.076923     48.000000
  0.282051  0.230769  0.076923     48.000000
  0.307692  0.230769  0.076923     48.000000
  0.333333  0.230769  0.076923     48.000000
  0.358974  0.230769  0.076923     48.000000
  0.384615  0.230769  0.076923     48.000000
  0.410256  0.230769  0.076923     48.000000
  0.435897  0.230769  0.076923     48.000000
  0.461538  0.230769  0.076923     48.000000
  0.487179  0.230769  0.076923     48.000000
  0.256410  0.256410  0.076923     24.000000
  0.282051  0.256410  0.076923     48.000000
  0.307692  0.256410  0.076923     48.000000
  0.333333  0.256410  0.076923     48.000000
  0.358974  0.256410  0.076923     48.000000
  0.384615  0.256410  0.076923     48.000000
  0.410256  0.256410  0.076923     48.000000
  0.435897  0.256410  0.076923     48.000000
  0.461538  0.256410  0.076923     48.000000
  0.487179  0.256410  0.076923     48.000000
  0.282051  0.282051  0.076923     24.000000
  0.307692  0.282051  0.076923     48.000000
  0.333333  0.282051  0.076923     48.000000
  0.358974  0.282051  0.076923     48.000000
  0.384615  0.282051  0.076923     48.000000
  0.410256  0.282051  0.076923     48.000000
  0.435897  0.282051  0.076923     48.000000
  0.461538  0.282051  0.076923     48.000000
  0.487179  0.282051  0.076923     48.000000
  0.307692  0.307692  0.076923     24.000000
  0.333333  0.307692  0.076923     48.000000
  0.358974  0.307692  0.076923     48.000000
  0.384615  0.307692  0.076923     48.000000
  0.410256  0.307692  0.076923     48.000000
  0.435897  0.307692  0.076923     48.000000
  0.461538  0.307692  0.076923     48.000000
  0.487179  0.307692  0.076923     48.000000
  0.333333  0.333333  0.076923     24.000000
  0.358974  0.333333  0.076923     48.000000
  0.384615  0.333333  0.076923     48.000000
  0.410256  0.333333  0.076923     48.000000
  0.435897  0.333333  0.076923     48.000000
  0.461538  0.333333  0.076923     48.000000
  0.487179  0.333333  0.076923     48.000000
  0.358974  0.358974  0.076923     24.000000
  0.384615  0.358974  0.076923     48.000000
  0.410256  0.358974  0.076923     48.000000
  0.435897  0.358974  0.076923     48.000000
  0.461538  0.358974  0.076923     48.000000
  0.487179  0.358974  0.076923     48.000000
  0.384615  0.384615  0.076923     24.000000
  0.410256  0.384615  0.076923     48.000000
  0.435897  0.384615  0.076923     48.000000
  0.461538  0.384615  0.076923     48.000000
  0.487179  0.384615  0.076923     48.000000
  0.410256  0.410256  0.076923     24.000000
  0.435897  0.410256  0.076923     48.000000
  0.461538  0.410256  0.076923     48.000000
  0.487179  0.410256  0.076923     48.000000
  0.435897  0.435897  0.076923     24.000000
  0.461538  0.435897  0.076923     48.000000
  0.487179  0.435897  0.076923     48.000000
  0.461538  0.461538  0.076923     24.000000
  0.487179  0.461538  0.076923     48.000000
  0.487179  0.487179  0.076923     24.000000
  0.102564  0.102564  0.102564      8.000000
  0.128205  0.102564  0.102564     24.000000
  0.153846  0.102564  0.102564     24.000000
  0.179487  0.102564  0.102564     24.000000
  0.205128  0.102564  0.102564     24.000000
  0.230769  0.102564  0.102564     24.000000
  0.256410  0.102564  0.102564     24.000000
  0.282051  0.102564  0.102564     24.000000
  0.307692  0.102564  0.102564     24.000000
  0.333333  0.102564  0.102564     24.000000
  0.358974  0.102564  0.102564     24.000000
  0.384615  0.102564  0.102564     24.000000
  0.410256  0.102564  0.102564     24.000000
  0.435897  0.102564  0.102564     24.000000
  0.461538  0.102564  0.102564     24.000000
  0.487179  0.102564  0.102564     24.000000
  0.128205  0.128205  0.102564     24.000000
  0.153846  0.128205  0.102564     48.000000
  0.179487  0.128205  0.102564     48.000000
  0.205128  0.128205  0.102564     48.000000
  0.230769  0.128205  0.102564     48.000000
  0.256410  0.128205  0.102564     48.000000
  0.282051  0.128205  0.102564     48.000000
  0.307692  0.128205  0.102564     48.000000
  0.333333  0.128205  0.102564     48.000000
  0.358974  0.128205  0.102564     48.000000
  0.384615  0.128205  0.102564     48.000000
  0.410256  0.128205  0.102564     48.000000
  0.435897  0.128205  0.102564     48.000000
  0.461538  0.128205  0.102564     48.000000
  0.487179  0.128205  0.102564     48.000000
  0.153846  0.153846  0.102564     24.000000
  0.179487  0.153846  0.102564     48.000000
  0.205128  0.153846  0.102564     48.000000
  0.230769  0.153846  0.102564     48.000000
  0.256410  0.153846  0.102564     48.000000
  0.282051  0.153846  0.102564     48.000000
  0.307692  0.153846  0.102564     48.000000
  0.333333  0.153846  0.102564     48.000000
  0.358974  0.153846  0.102564     48.000000
  0.384615  0.153846  0.102564     48.000000
  0.410256  0.153846  0.102564     48.000000
  0.435897  0.153846  0.102564     48.000000
  0.461538  0.153846  0.102564     48.000000
  0.487179  0.153846  0.102564     48.000000
  0.179487  0.179487  0.102564     24.000000
  0.205128  0.179487  0.102564     48.000000
  0.230769  0.179487  0.102564     48.000000
  0.256410  0.179487  0.102564     48.000000
  0.282051  0.179487  0.102564     48.000000
  0.307692  0.179487  0.102564     48.000000
  0.333333  0.179487  0.102564     48.000000
  0.358974  0.179487  0.102564     48.000000
  0.384615  0.179487  0.102564     48.000000
  0.410256  0.179487  0.102564     48.000000
  0.435897  0.179487  0.102564     48.000000
  0.461538  0.179487  0.102564     48.000000
  0.487179  0.179487  0.102564     48.000000
  0.205128  0.205128  0.102564     24.000000
  0.230769  0.205128  0.102564     48.000000
  0.256410  0.205128  0.102564     48.000000
  0.282051  0.205128  0.102564     48.000000
  0.307692  0.205128  0.102564     48.000000
  0.333333  0.205128  0.102564     48.000000
  0.358974  0.205128  0.102564     48.000000
  0.384615  0.205128  0.102564     48.000000
  0.410256  0.205128  0.102564     48.000000
  0.435897  0.205128  0.102564     48.000000
  0.461538  0.205128  0.102564     48.000000
  0.487179  0.205128  0.102564     48.000000
  0.230769  0.230769  0.102564     24.000000
  0.256410  0.230769  0.102564     48.000000
  0.282051  0.230769  0.102564     48.000000
  0.307692  0.230769  0.102564     48.000000
  0.333333  0.230769  0.102564     48.000000
  0.358974  0.230769  0.102564     48.000000
  0.384615  0.230769  0.102564     48.000000
  0.410256  0.230769  0.102564     48.000000
  0.435897  0.230769  0.102564     48.000000
  0.461538  0.230769  0.102564     48.000000
  0.487179  0.230769  0.102564     48.000000
  0.256410  0.256410  0.102564     24.000000
  0.282051  0.256410  0.102564     48.000000
  0.307692  0.256410  0.102564     48.000000
  0.333333  0.256410  0.102564     48.000000
  0.358974  0.256410  0.102564     48.000000
  0.384615  0.256410  0.102564     48.000000
  0.410256  0.256410  0.102564     48.000000
  0.435897  0.256410  0.102564     48.000000
  0.461538  0.256410  0.102564     48.000000
  0.487179  0.256410  0.102564     48.000000
  0.282051  0.282051  0.102564     24.000000
  0.307692  0.282051  0.102564     48.000000
  0.333333  0.282051  0.102564     48.000000
  0.358974  0.282051  0.102564     48.000000
  0.384615  0.282051  0.102564     48.000000
  0.410256  0.282051  0.102564     48.000000
  0.435897  0.282051  0.102564     48.000000
  0.461538  0.282051  0.102564     48.000000
  0.487179  0.282051  0.102564     48.000000
  0.307692  0.307692  0.102564     24.000000
  0.333333  0.307692  0.102564     48.000000
  0.358974  0.307692  0.102564     48.000000
  0.384615  0.307692  0.102564     48.000000
  0.410256  0.307692  0.102564     48.000000
  0.435897  0.307692  0.102564     48.000000
  0.461538  0.307692  0.102564     48.000000
  0.487179  0.307692  0.102564     48.000000
  0.333333  0.333333  0.102564     24.000000
  0.358974  0.333333  0.102564     48.000000
  0.384615  0.333333  0.102564     48.000000
  0.410256  0.333333  0.102564     48.000000
  0.435897  0.333333  0.102564     48.000000
  0.461538  0.333333  0.102564     48.000000
  0.487179  0.333333  0.102564     48.000000
  0.358974  0.358974  0.102564     24.000000
  0.384615  0.358974  0.102564     48.000000
  0.410256  0.358974  0.102564     48.000000
  0.435897  0.358974  0.102564     48.000000
  0.461538  0.358974  0.102564     48.000000
  0.487179  0.358974  0.102564     48.000000
  0.384615  0.384615  0.102564     24.000000
  0.410256  0.384615  0.102564     48.000000
  0.435897  0.384615  0.102564     48.000000
  0.461538  0.384615  0.102564     48.000000
  0.487179  0.384615  0.102564     48.000000
  0.410256  0.410256  0.102564     24.000000
  0.435897  0.410256  0.102564     48.000000
  0.461538  0.410256  0.102564     48.000000
  0.487179  0.410256  0.102564     48.000000
  0.435897  0.435897  0.102564     24.000000
  0.461538  0.435897  0.102564     48.000000
  0.487179  0.435897  0.102564     48.000000
  0.461538  0.461538  0.102564     24.000000
  0.487179  0.461538  0.102564     48.000000
  0.487179  0.487179  0.102564     24.000000
  0.128205  0.128205  0.128205      8.000000
  0.153846  0.128205  0.128205     24.000000
  0.179487  0.128205  0.128205     24.000000
  0.205128  0.128205  0.128205     24.000000
  0.230769  0.128205  0.128205     24.000000
  0.256410  0.128205  0.128205     24.000000
  0.282051  0.128205  0.128205     24.000000
  0.307692  0.128205  0.128205     24.000000
  0.333333  0.128205  0.128205     24.000000
  0.358974  0.128205  0.128205     24.000000
  0.384615  0.128205  0.128205     24.000000
  0.410256  0.128205  0.128205     24.000000
  0.435897  0.128205  0.128205     24.000000
  0.461538  0.128205  0.128205     24.000000
  0.487179  0.128205  0.128205     24.000000
  0.153846  0.153846  0.128205     24.000000
  0.179487  0.153846  0.128205     48.000000
  0.205128  0.153846  0.128205     48.000000
  0.230769  0.153846  0.128205     48.000000
  0.256410  0.153846  0.128205     48.000000
  0.282051  0.153846  0.128205     48.000000
  0.307692  0.153846  0.128205     48.000000
  0.333333  0.153846  0.128205     48.000000
  0.358974  0.153846  0.128205     48.000000
  0.384615  0.153846  0.128205     48.000000
  0.410256  0.153846  0.128205     48.000000
  0.435897  0.153846  0.128205     48.000000
  0.461538  0.153846  0.128205     48.000000
  0.487179  0.153846  0.128205     48.000000
  0.179487  0.179487  0.128205     24.000000
  0.205128  0.179487  0.128205     48.000000
  0.230769  0.179487  0.128205     48.000000
  0.256410  0.179487  0.128205     48.000000
  0.282051  0.179487  0.128205     48.000000
  0.307692  0.179487  0.128205     48.000000
  0.333333  0.179487  0.128205     48.000000
  0.358974  0.179487  0.128205     48.000000
  0.384615  0.179487  0.128205     48.000000
  0.410256  0.179487  0.128205     48.000000
  0.435897  0.179487  0.128205     48.000000
  0.461538  0.179487  0.128205     48.000000
  0.487179  0.179487  0.128205     48.000000
  0.205128  0.205128  0.128205     24.000000
  0.230769  0.205128  0.128205     48.000000
  0.256410  0.205128  0.128205     48.000000
  0.282051  0.205128  0.128205     48.000000
  0.307692  0.205128  0.128205     48.000000
  0.333333  0.205128  0.128205     48.000000
  0.358974  0.205128  0.128205     48.000000
  0.384615  0.205128  0.128205     48.000000
  0.410256  0.205128  0.128205     48.000000
  0.435897  0.205128  0.128205     48.000000
  0.461538  0.205128  0.128205     48.000000
  0.487179  0.205128  0.128205     48.000000
  0.230769  0.230769  0.128205     24.000000
  0.256410  0.230769  0.128205     48.000000
  0.282051  0.230769  0.128205     48.000000
  0.307692  0.230769  0.128205     48.000000
  0.333333  0.230769  0.128205     48.000000
  0.358974  0.230769  0.128205     48.000000
  0.384615  0.230769  0.128205     48.000000
  0.410256  0.230769  0.128205     48.000000
  0.435897  0.230769  0.128205     48.000000
  0.461538  0.230769  0.128205     48.000000
  0.487179  0.230769  0.128205     48.000000
  0.256410  0.256410  0.128205     24.000000
  0.282051  0.256410  0.128205     48.000000
  0.307692  0.256410  0.128205     48.000000
  0.333333  0.256410  0.128205     48.000000
  0.358974  0.256410  0.128205     48.000000
  0.384615  0.256410  0.128205     48.000000
  0.410256  0.256410  0.128205     48.000000
  0.435897  0.256410  0.128205     48.000000
  0.461538  0.256410  0.128205     48.000000
  0.487179  0.256410  0.128205     48.000000
  0.282051  0.282051  0.128205     24.000000
  0.307692  0.282051  0.128205     48.000000
  0.333333  0.282051  0.128205     48.000000
  0.358974  0.282051  0.128205     48.000000
  0.384615  0.282051  0.128205     48.000000
  0.410256  0.282051  0.128205     48.000000
  0.435897  0.282051  0.128205     48.000000
  0.461538  0.282051  0.128205     48.000000
  0.487179  0.282051  0.128205     48.000000
  0.307692  0.307692  0.128205     24.000000
  0.333333  0.307692  0.128205     48.000000
  0.358974  0.307692  0.128205     48.000000
  0.384615  0.307692  0.128205     48.000000
  0.410256  0.307692  0.128205     48.000000
  0.435897  0.307692  0.128205     48.000000
  0.461538  0.307692  0.128205     48.000000
  0.487179  0.307692  0.128205     48.000000
  0.333333  0.333333  0.128205     24.000000
  0.358974  0.333333  0.128205     48.000000
  0.384615  0.333333  0.128205     48.000000
  0.410256  0.333333  0.128205     48.000000
  0.435897  0.333333  0.128205     48.000000
  0.461538  0.333333  0.128205     48.000000
  0.487179  0.333333  0.128205     48.000000
  0.358974  0.358974  0.128205     24.000000
  0.384615  0.358974  0.128205     48.000000
  0.410256  0.358974  0.128205     48.000000
  0.435897  0.358974  0.128205     48.000000
  0.461538  0.358974  0.128205     48.000000
  0.487179  0.358974  0.128205     48.000000
  0.384615  0.384615  0.128205     24.000000
  0.410256  0.384615  0.128205     48.000000
  0.435897  0.384615  0.128205     48.000000
  0.461538  0.384615  0.128205     48.000000
  0.487179  0.384615  0.128205     48.000000
  0.410256  0.410256  0.128205     24.000000
  0.435897  0.410256  0.128205     48.000000
  0.461538  0.410256  0.128205     48.000000
  0.487179  0.410256  0.128205     48.000000
  0.435897  0.435897  0.128205     24.000000
  0.461538  0.435897  0.128205     48.000000
  0.487179  0.435897  0.128205     48.000000
  0.461538  0.461538  0.128205     24.000000
  0.487179  0.461538  0.128205     48.000000
  0.487179  0.487179  0.128205     24.000000
  0.153846  0.153846  0.153846      8.000000
  0.179487  0.153846  0.153846     24.000000
  0.205128  0.153846  0.153846     24.000000
  0.230769  0.153846  0.153846     24.000000
  0.256410  0.153846  0.153846     24.000000
  0.282051  0.153846  0.153846     24.000000
  0.307692  0.153846  0.153846     24.000000
  0.333333  0.153846  0.153846     24.000000
  0.358974  0.153846  0.153846     24.000000
  0.384615  0.153846  0.153846     24.000000
  0.410256  0.153846  0.153846     24.000000
  0.435897  0.153846  0.153846     24.000000
  0.461538  0.153846  0.153846     24.000000
  0.487179  0.153846  0.153846     24.000000
  0.179487  0.179487  0.153846     24.000000
  0.205128  0.179487  0.153846     48.000000
  0.230769  0.179487  0.153846     48.000000
  0.256410  0.179487  0.153846     48.000000
  0.282051  0.179487  0.153846     48.000000
  0.307692  0.179487  0.153846     48.000000
  0.333333  0.179487  0.153846     48.000000
  0.358974  0.179487  0.153846     48.000000
  0.384615  0.179487  0.153846     48.000000
  0.410256  0.179487  0.153846     48.000000
  0.435897  0.179487  0.153846     48.000000
  0.461538  0.179487  0.153846     48.000000
  0.487179  0.179487  0.153846     48.000000
  0.205128  0.205128  0.153846     24.000000
  0.230769  0.205128  0.153846     48.000000
  0.256410  0.205128  0.153846     48.000000
  0.282051  0.205128  0.153846     48.000000
  0.307692  0.205128  0.153846     48.000000
  0.333333  0.205128  0.153846     48.000000
  0.358974  0.205128  0.153846     48.000000
  0.384615  0.205128  0.153846     48.000000
  0.410256  0.205128  0.153846     48.000000
  0.435897  0.205128  0.153846     48.000000
  0.461538  0.205128  0.153846     48.000000
  0.487179  0.205128  0.153846     48.000000
  0.230769  0.230769  0.153846     24.000000
  0.256410  0.230769  0.153846     48.000000
  0.282051  0.230769  0.153846     48.000000
  0.307692  0.230769  0.153846     48.000000
  0.333333  0.230769  0.153846     48.000000
  0.358974  0.230769  0.153846     48.000000
  0.384615  0.230769  0.153846     48.000000
  0.410256  0.230769  0.153846     48.000000
  0.435897  0.230769  0.153846     48.000000
  0.461538  0.230769  0.153846     48.000000
  0.487179  0.230769  0.153846     48.000000
  0.256410  0.256410  0.153846     24.000000
  0.282051  0.256410  0.153846     48.000000
  0.307692  0.256410  0.153846     48.000000
  0.333333  0.256410  0.153846     48.000000
  0.358974  0.256410  0.153846     48.000000
  0.384615  0.256410  0.153846     48.000000
  0.410256  0.256410  0.153846     48.000000
  0.435897  0.256410  0.153846     48.000000
  0.461538  0.256410  0.153846     48.000000
  0.487179  0.256410  0.153846     48.000000
  0.282051  0.282051  0.153846     24.000000
  0.307692  0.282051  0.153846     48.000000
  0.333333  0.282051  0.153846     48.000000
  0.358974  0.282051  0.153846     48.000000
  0.384615  0.282051  0.153846     48.000000
  0.410256  0.282051  0.153846     48.000000
  0.435897  0.282051  0.153846     48.000000
  0.461538  0.282051  0.153846     48.000000
  0.487179  0.282051  0.153846     48.000000
  0.307692  0.307692  0.153846     24.000000
  0.333333  0.307692  0.153846     48.000000
  0.358974  0.307692  0.153846     48.000000
  0.384615  0.307692  0.153846     48.000000
  0.410256  0.307692  0.153846     48.000000
  0.435897  0.307692  0.153846     48.000000
  0.461538  0.307692  0.153846     48.000000
  0.487179  0.307692  0.153846     48.000000
  0.333333  0.333333  0.153846     24.000000
  0.358974  0.333333  0.153846     48.000000
  0.384615  0.333333  0.153846     48.000000
  0.410256  0.333333  0.153846     48.000000
  0.435897  0.333333  0.153846     48.000000
  0.461538  0.333333  0.153846     48.000000
  0.487179  0.333333  0.153846     48.000000
  0.358974  0.358974  0.153846     24.000000
  0.384615  0.358974  0.153846     48.000000
  0.410256  0.358974  0.153846     48.000000
  0.435897  0.358974  0.153846     48.000000
  0.461538  0.358974  0.153846     48.000000
  0.487179  0.358974  0.153846     48.000000
  0.384615  0.384615  0.153846     24.000000
  0.410256  0.384615  0.153846     48.000000
  0.435897  0.384615  0.153846     48.000000
  0.461538  0.384615  0.153846     48.000000
  0.487179  0.384615  0.153846     48.000000
  0.410256  0.410256  0.153846     24.000000
  0.435897  0.410256  0.153846     48.000000
  0.461538  0.410256  0.153846     48.000000
  0.487179  0.410256  0.153846     48.000000
  0.435897  0.435897  0.153846     24.000000
  0.461538  0.435897  0.153846     48.000000
  0.487179  0.435897  0.153846     48.000000
  0.461538  0.461538  0.153846     24.000000
  0.487179  0.461538  0.153846     48.000000
  0.487179  0.487179  0.153846     24.000000
  0.179487  0.179487  0.179487      8.000000
  0.205128  0.179487  0.179487     24.000000
  0.230769  0.179487  0.179487     24.000000
  0.256410  0.179487  0.179487     24.000000
  0.282051  0.179487  0.179487     24.000000
  0.307692  0.179487  0.179487     24.000000
  0.333333  0.179487  0.179487     24.000000
  0.358974  0.179487  0.179487     24.000000
  0.384615  0.179487  0.179487     24.000000
  0.410256  0.179487  0.179487     24.000000
  0.435897  0.179487  0.179487     24.000000
  0.461538  0.179487  0.179487     24.000000
  0.487179  0.179487  0.179487     24.000000
  0.205128  0.205128  0.179487     24.000000
  0.230769  0.205128  0.179487     48.000000
  0.256410  0.205128  0.179487     48.000000
  0.282051  0.205128  0.179487     48.000000
  0.307692  0.205128  0.179487     48.000000
  0.333333  0.205128  0.179487     48.000000
  0.358974  0.205128  0.179487     48.000000
  0.384615  0.205128  0.179487     48.000000
  0.410256  0.205128  0.179487     48.000000
  0.435897  0.205128  0.179487     48.000000
  0.461538  0.205128  0.179487     48.000000
  0.487179  0.205128  0.179487     48.000000
  0.230769  0.230769  0.179487     24.000000
  0.256410  0.230769  0.179487     48.000000
  0.282051  0.230769  0.179487     48.000000
  0.307692  0.230769  0.179487     48.000000
  0.333333  0.230769  0.179487     48.000000
  0.358974  0.230769  0.179487     48.000000
  0.384615  0.230769  0.179487     48.000000
  0.410256  0.230769  0.179487     48.000000
  0.435897  0.230769  0.179487     48.000000
  0.461538  0.230769  0.179487     48.000000
  0.487179  0.230769  0.179487     48.000000
  0.256410  0.256410  0.179487     24.000000
  0.282051  0.256410  0.179487     48.000000
  0.307692  0.256410  0.179487     48.000000
  0.333333  0.256410  0.179487     48.000000
  0.358974  0.256410  0.179487     48.000000
  0.384615  0.256410  0.179487     48.000000
  0.410256  0.256410  0.179487     48.000000
  0.435897  0.256410  0.179487     48.000000
  0.461538  0.256410  0.179487     48.000000
  0.487179  0.256410  0.179487     48.000000
  0.282051  0.282051  0.179487     24.000000
  0.307692  0.282051  0.179487     48.000000
  0.333333  0.282051  0.179487     48.000000
  0.358974  0.282051  0.179487     48.000000
  0.384615  0.282051  0.179487     48.000000
  0.410256  0.282051  0.179487     48.000000
  0.435897  0.282051  0.179487     48.000000
  0.461538  0.282051  0.179487     48.000000
  0.487179  0.282051  0.179487     48.000000
  0.307692  0.307692  0.179487     24.000000
  0.333333  0.307692  0.179487     48.000000
  0.358974  0.307692  0.179487     48.000000
  0.384615  0.307692  0.179487     48.000000
  0.410256  0.307692  0.179487     48.000000
  0.435897  0.307692  0.179487     48.000000
  0.461538  0.307692  0.179487     48.000000
  0.487179  0.307692  0.179487     48.000000
  0.333333  0.333333  0.179487     24.000000
  0.358974  0.333333  0.179487     48.000000
  0.384615  0.333333  0.179487     48.000000
  0.410256  0.333333  0.179487     48.000000
  0.435897  0.333333  0.179487     48.000000
  0.461538  0.333333  0.179487     48.000000
  0.487179  0.333333  0.179487     48.000000
  0.358974  0.358974  0.179487     24.000000
  0.384615  0.358974  0.179487     48.000000
  0.410256  0.358974  0.179487     48.000000
  0.435897  0.358974  0.179487     48.000000
  0.461538  0.358974  0.179487     48.000000
  0.487179  0.358974  0.179487     48.000000
  0.384615  0.384615  0.179487     24.000000
  0.410256  0.384615  0.179487     48.000000
  0.435897  0.384615  0.179487     48.000000
  0.461538  0.384615  0.179487     48.000000
  0.487179  0.384615  0.179487     48.000000
  0.410256  0.410256  0.179487     24.000000
  0.435897  0.410256  0.179487     48.000000
  0.461538  0.410256  0.179487     48.000000
  0.487179  0.410256  0.179487     48.000000
  0.435897  0.435897  0.179487     24.000000
  0.461538  0.435897  0.179487     48.000000
  0.487179  0.435897  0.179487     48.000000
  0.461538  0.461538  0.179487     24.000000
  0.487179  0.461538  0.179487     48.000000
  0.487179  0.487179  0.179487     24.000000
  0.205128  0.205128  0.205128      8.000000
  0.230769  0.205128  0.205128     24.000000
  0.256410  0.205128  0.205128     24.000000
  0.282051  0.205128  0.205128     24.000000
  0.307692  0.205128  0.205128     24.000000
  0.333333  0.205128  0.205128     24.000000
  0.358974  0.205128  0.205128     24.000000
  0.384615  0.205128  0.205128     24.000000
  0.410256  0.205128  0.205128     24.000000
  0.435897  0.205128  0.205128     24.000000
  0.461538  0.205128  0.205128     24.000000
  0.487179  0.205128  0.205128     24.000000
  0.230769  0.230769  0.205128     24.000000
  0.256410  0.230769  0.205128     48.000000
  0.282051  0.230769  0.205128     48.000000
  0.307692  0.230769  0.205128     48.000000
  0.333333  0.230769  0.205128     48.000000
  0.358974  0.230769  0.205128     48.000000
  0.384615  0.230769  0.205128     48.000000
  0.410256  0.230769  0.205128     48.000000
  0.435897  0.230769  0.205128     48.000000
  0.461538  0.230769  0.205128     48.000000
  0.487179  0.230769  0.205128     48.000000
  0.256410  0.256410  0.205128     24.000000
  0.282051  0.256410  0.205128     48.000000
  0.307692  0.256410  0.205128     48.000000
  0.333333  0.256410  0.205128     48.000000
  0.358974  0.256410  0.205128     48.000000
  0.384615  0.256410  0.205128     48.000000
  0.410256  0.256410  0.205128     48.000000
  0.435897  0.256410  0.205128     48.000000
  0.461538  0.256410  0.205128     48.000000
  0.487179  0.256410  0.205128     48.000000
  0.282051  0.282051  0.205128     24.000000
  0.307692  0.282051  0.205128     48.000000
  0.333333  0.282051  0.205128     48.000000
  0.358974  0.282051  0.205128     48.000000
  0.384615  0.282051  0.205128     48.000000
  0.410256  0.282051  0.205128     48.000000
  0.435897  0.282051  0.205128     48.000000
  0.461538  0.282051  0.205128     48.000000
  0.487179  0.282051  0.205128     48.000000
  0.307692  0.307692  0.205128     24.000000
  0.333333  0.307692  0.205128     48.000000
  0.358974  0.307692  0.205128     48.000000
  0.384615  0.307692  0.205128     48.000000
  0.410256  0.307692  0.205128     48.000000
  0.435897  0.307692  0.205128     48.000000
  0.461538  0.307692  0.205128     48.000000
  0.487179  0.307692  0.205128     48.000000
  0.333333  0.333333  0.205128     24.000000
  0.358974  0.333333  0.205128     48.000000
  0.384615  0.333333  0.205128     48.000000
  0.410256  0.333333  0.205128     48.000000
  0.435897  0.333333  0.205128     48.000000
  0.461538  0.333333  0.205128     48.000000
  0.487179  0.333333  0.205128     48.000000
  0.358974  0.358974  0.205128     24.000000
  0.384615  0.358974  0.205128     48.000000
  0.410256  0.358974  0.205128     48.000000
  0.435897  0.358974  0.205128     48.000000
  0.461538  0.358974  0.205128     48.000000
  0.487179  0.358974  0.205128     48.000000
  0.384615  0.384615  0.205128     24.000000
  0.410256  0.384615  0.205128     48.000000
  0.435897  0.384615  0.205128     48.000000
  0.461538  0.384615  0.205128     48.000000
  0.487179  0.384615  0.205128     48.000000
  0.410256  0.410256  0.205128     24.000000
  0.435897  0.410256  0.205128     48.000000
  0.461538  0.410256  0.205128     48.000000
  0.487179  0.410256  0.205128     48.000000
  0.435897  0.435897  0.205128     24.000000
  0.461538  0.435897  0.205128     48.000000
  0.487179  0.435897  0.205128     48.000000
  0.461538  0.461538  0.205128     24.000000
  0.487179  0.461538  0.205128     48.000000
  0.487179  0.487179  0.205128     24.000000
  0.230769  0.230769  0.230769      8.000000
  0.256410  0.230769  0.230769     24.000000
  0.282051  0.230769  0.230769     24.000000
  0.307692  0.230769  0.230769     24.000000
  0.333333  0.230769  0.230769     24.000000
  0.358974  0.230769  0.230769     24.000000
  0.384615  0.230769  0.230769     24.000000
  0.410256  0.230769  0.230769     24.000000
  0.435897  0.230769  0.230769     24.000000
  0.461538  0.230769  0.230769     24.000000
  0.487179  0.230769  0.230769     24.000000
  0.256410  0.256410  0.230769     24.000000
  0.282051  0.256410  0.230769     48.000000
  0.307692  0.256410  0.230769     48.000000
  0.333333  0.256410  0.230769     48.000000
  0.358974  0.256410  0.230769     48.000000
  0.384615  0.256410  0.230769     48.000000
  0.410256  0.256410  0.230769     48.000000
  0.435897  0.256410  0.230769     48.000000
  0.461538  0.256410  0.230769     48.000000
  0.487179  0.256410  0.230769     48.000000
  0.282051  0.282051  0.230769     24.000000
  0.307692  0.282051  0.230769     48.000000
  0.333333  0.282051  0.230769     48.000000
  0.358974  0.282051  0.230769     48.000000
  0.384615  0.282051  0.230769     48.000000
  0.410256  0.282051  0.230769     48.000000
  0.435897  0.282051  0.230769     48.000000
  0.461538  0.282051  0.230769     48.000000
  0.487179  0.282051  0.230769     48.000000
  0.307692  0.307692  0.230769     24.000000
  0.333333  0.307692  0.230769     48.000000
  0.358974  0.307692  0.230769     48.000000
  0.384615  0.307692  0.230769     48.000000
  0.410256  0.307692  0.230769     48.000000
  0.435897  0.307692  0.230769     48.000000
  0.461538  0.307692  0.230769     48.000000
  0.487179  0.307692  0.230769     48.000000
  0.333333  0.333333  0.230769     24.000000
  0.358974  0.333333  0.230769     48.000000
  0.384615  0.333333  0.230769     48.000000
  0.410256  0.333333  0.230769     48.000000
  0.435897  0.333333  0.230769     48.000000
  0.461538  0.333333  0.230769     48.000000
  0.487179  0.333333  0.230769     48.000000
  0.358974  0.358974  0.230769     24.000000
  0.384615  0.358974  0.230769     48.000000
  0.410256  0.358974  0.230769     48.000000
  0.435897  0.358974  0.230769     48.000000
  0.461538  0.358974  0.230769     48.000000
  0.487179  0.358974  0.230769     48.000000
  0.384615  0.384615  0.230769     24.000000
  0.410256  0.384615  0.230769     48.000000
  0.435897  0.384615  0.230769     48.000000
  0.461538  0.384615  0.230769     48.000000
  0.487179  0.384615  0.230769     48.000000
  0.410256  0.410256  0.230769     24.000000
  0.435897  0.410256  0.230769     48.000000
  0.461538  0.410256  0.230769     48.000000
  0.487179  0.410256  0.230769     48.000000
  0.435897  0.435897  0.230769     24.000000
  0.461538  0.435897  0.230769     48.000000
  0.487179  0.435897  0.230769     48.000000
  0.461538  0.461538  0.230769     24.000000
  0.487179  0.461538  0.230769     48.000000
  0.487179  0.487179  0.230769     24.000000
  0.256410  0.256410  0.256410      8.000000
  0.282051  0.256410  0.256410     24.000000
  0.307692  0.256410  0.256410     24.000000
  0.333333  0.256410  0.256410     24.000000
  0.358974  0.256410  0.256410     24.000000
  0.384615  0.256410  0.256410     24.000000
  0.410256  0.256410  0.256410     24.000000
  0.435897  0.256410  0.256410     24.000000
  0.461538  0.256410  0.256410     24.000000
  0.487179  0.256410  0.256410     24.000000
  0.282051  0.282051  0.256410     24.000000
  0.307692  0.282051  0.256410     48.000000
  0.333333  0.282051  0.256410     48.000000
  0.358974  0.282051  0.256410     48.000000
  0.384615  0.282051  0.256410     48.000000
  0.410256  0.282051  0.256410     48.000000
  0.435897  0.282051  0.256410     48.000000
  0.461538  0.282051  0.256410     48.000000
  0.487179  0.282051  0.256410     48.000000
  0.307692  0.307692  0.256410     24.000000
  0.333333  0.307692  0.256410     48.000000
  0.358974  0.307692  0.256410     48.000000
  0.384615  0.307692  0.256410     48.000000
  0.410256  0.307692  0.256410     48.000000
  0.435897  0.307692  0.256410     48.000000
  0.461538  0.307692  0.256410     48.000000
  0.487179  0.307692  0.256410     48.000000
  0.333333  0.333333  0.256410     24.000000
  0.358974  0.333333  0.256410     48.000000
  0.384615  0.333333  0.256410     48.000000
  0.410256  0.333333  0.256410     48.000000
  0.435897  0.333333  0.256410     48.000000
  0.461538  0.333333  0.256410     48.000000
  0.487179  0.333333  0.256410     48.000000
  0.358974  0.358974  0.256410     24.000000
  0.384615  0.358974  0.256410     48.000000
  0.410256  0.358974  0.256410     48.000000
  0.435897  0.358974  0.256410     48.000000
  0.461538  0.358974  0.256410     48.000000
  0.487179  0.358974  0.256410     48.000000
  0.384615  0.384615  0.256410     24.000000
  0.410256  0.384615  0.256410     48.000000
  0.435897  0.384615  0.256410     48.000000
  0.461538  0.384615  0.256410     48.000000
  0.487179  0.384615  0.256410     48.000000
  0.410256  0.410256  0.256410     24.000000
  0.435897  0.410256  0.256410     48.000000
  0.461538  0.410256  0.256410     48.000000
  0.487179  0.410256  0.256410     48.000000
  0.435897  0.435897  0.256410     24.000000
  0.461538  0.435897  0.256410     48.000000
  0.487179  0.435897  0.256410     48.000000
  0.461538  0.461538  0.256410     24.000000
  0.487179  0.461538  0.256410     48.000000
  0.487179  0.487179  0.256410     24.000000
  0.282051  0.282051  0.282051      8.000000
  0.307692  0.282051  0.282051     24.000000
  0.333333  0.282051  0.282051     24.000000
  0.358974  0.282051  0.282051     24.000000
  0.384615  0.282051  0.282051     24.000000
  0.410256  0.282051  0.282051     24.000000
  0.435897  0.282051  0.282051     24.000000
  0.461538  0.282051  0.282051     24.000000
  0.487179  0.282051  0.282051     24.000000
  0.307692  0.307692  0.282051     24.000000
  0.333333  0.307692  0.282051     48.000000
  0.358974  0.307692  0.282051     48.000000
  0.384615  0.307692  0.282051     48.000000
  0.410256  0.307692  0.282051     48.000000
  0.435897  0.307692  0.282051     48.000000
  0.461538  0.307692  0.282051     48.000000
  0.487179  0.307692  0.282051     48.000000
  0.333333  0.333333  0.282051     24.000000
  0.358974  0.333333  0.282051     48.000000
  0.384615  0.333333  0.282051     48.000000
  0.410256  0.333333  0.282051     48.000000
  0.435897  0.333333  0.282051     48.000000
  0.461538  0.333333  0.282051     48.000000
  0.487179  0.333333  0.282051     48.000000
  0.358974  0.358974  0.282051     24.000000
  0.384615  0.358974  0.282051     48.000000
  0.410256  0.358974  0.282051     48.000000
  0.435897  0.358974  0.282051     48.000000
  0.461538  0.358974  0.282051     48.000000
  0.487179  0.358974  0.282051     48.000000
  0.384615  0.384615  0.282051     24.000000
  0.410256  0.384615  0.282051     48.000000
  0.435897  0.384615  0.282051     48.000000
  0.461538  0.384615  0.282051     48.000000
  0.487179  0.384615  0.282051     48.000000
  0.410256  0.410256  0.282051     24.000000
  0.435897  0.410256  0.282051     48.000000
  0.461538  0.410256  0.282051     48.000000
  0.487179  0.410256  0.282051     48.000000
  0.435897  0.435897  0.282051     24.000000
  0.461538  0.435897  0.282051     48.000000
  0.487179  0.435897  0.282051     48.000000
  0.461538  0.461538  0.282051     24.000000
  0.487179  0.461538  0.282051     48.000000
  0.487179  0.487179  0.282051     24.000000
  0.307692  0.307692  0.307692      8.000000
  0.333333  0.307692  0.307692     24.000000
  0.358974  0.307692  0.307692     24.000000
  0.384615  0.307692  0.307692     24.000000
  0.410256  0.307692  0.307692     24.000000
  0.435897  0.307692  0.307692     24.000000
  0.461538  0.307692  0.307692     24.000000
  0.487179  0.307692  0.307692     24.000000
[...]
     19      18.6449      0.00000
     20      19.7737      0.00000
     21      20.0897      0.00000
     22      20.4105      0.00000
     23      21.5516      0.00000
     24      22.1877      0.00000

 k-point  1535 :       0.4872    0.4615    0.4359
  band No.  band energies     occupation 
      1     -41.9152      1.00000
      2     -41.9082      1.00000
      3     -41.8665      1.00000
      4     -41.8511      1.00000
      5     -41.8128      1.00000
      6     -41.8053      1.00000
      7       7.7235      1.00000
      8       7.7640      1.00000
      9       7.8387      1.00000
     10       7.8748      1.00000
     11       7.9884      1.00000
     12       8.0036      1.00000
     13      11.5504      0.00000
     14      11.5512      0.00000
     15      11.5665      0.00000
     16      11.5672      0.00000
     17      17.5633      0.00000
     18      17.8544      0.00000
     19      18.9671      0.00000
     20      19.3725      0.00000
     21      20.2036      0.00000
     22      20.3379      0.00000
     23      21.6007      0.00000
     24      21.8409      0.00000

 k-point  1536 :       0.4872    0.4872    0.4359
  band No.  band energies     occupation 
      1     -41.9081      1.00000
      2     -41.9052      1.00000
      3     -41.8616      1.00000
      4     -41.8551      1.00000
      5     -41.8169      1.00000
      6     -41.8136      1.00000
      7       7.7594      1.00000
      8       7.7913      1.00000
      9       7.8073      1.00000
     10       7.8378      1.00000
     11       8.0033      1.00000
     12       8.0084      1.00000
     13      11.5536      0.00000
     14      11.5538      0.00000
     15      11.5711      0.00000
     16      11.5713      0.00000
     17      17.8397      0.00000
     18      17.9759      0.00000
     19      18.9363      0.00000
     20      19.1116      0.00000
     21      20.2983      0.00000
     22      20.3615      0.00000
     23      21.4630      0.00000
     24      21.5624      0.00000

 k-point  1537 :       0.4615    0.4615    0.4615
  band No.  band energies     occupation 
      1     -41.9122      1.00000
      2     -41.8866      1.00000
      3     -41.8866      1.00000
      4     -41.8336      1.00000
      5     -41.8336      1.00000
      6     -41.8079      1.00000
      7       7.7250      1.00000
      8       7.8292      1.00000
      9       7.8292      1.00000
     10       7.9336      1.00000
     11       7.9434      1.00000
     12       7.9434      1.00000
     13      11.5615      0.00000
     14      11.5615      0.00000
     15      11.5629      0.00000
     16      11.5629      0.00000
     17      17.5921      0.00000
     18      18.4924      0.00000
     19      18.4924      0.00000
     20      19.9206      0.00000
     21      19.9206      0.00000
     22      19.9793      0.00000
     23      21.3514      0.00000
     24      21.8055      0.00000

 k-point  1538 :       0.4872    0.4615    0.4615
  band No.  band energies     occupation 
      1     -41.9023      1.00000
      2     -41.8938      1.00000
      3     -41.8689      1.00000
      4     -41.8512      1.00000
      5     -41.8272      1.00000
      6     -41.8185      1.00000
      7       7.7621      1.00000
      8       7.8006      1.00000
      9       7.8570      1.00000
     10       7.8949      1.00000
     11       7.9480      1.00000
     12       7.9553      1.00000
     13      11.5625      0.00000
     14      11.5630      0.00000
     15      11.5687      0.00000
     16      11.5692      0.00000
     17      17.9291      0.00000
     18      18.2396      0.00000
     19      18.9610      0.00000
     20      19.4372      0.00000
     21      19.9754      0.00000
     22      19.9852      0.00000
     23      21.3325      0.00000
     24      21.5030      0.00000

 k-point  1539 :       0.4872    0.4872    0.4615
  band No.  band energies     occupation 
      1     -41.8922      1.00000
      2     -41.8875      1.00000
      3     -41.8651      1.00000
      4     -41.8551      1.00000
      5     -41.8343      1.00000
      6     -41.8293      1.00000
      7       7.7977      1.00000
      8       7.8269      1.00000
      9       7.8429      1.00000
     10       7.8725      1.00000
     11       7.9447      1.00000
     12       7.9466      1.00000
     13      11.5664      0.00000
     14      11.5665      0.00000
     15      11.5723      0.00000
     16      11.5725      0.00000
     17      18.2557      0.00000
     18      18.4382      0.00000
     19      18.9851      0.00000
     20      19.2501      0.00000
     21      19.8705      0.00000
     22      19.8873      0.00000
     23      21.2108      0.00000
     24      21.2748      0.00000

 k-point  1540 :       0.4872    0.4872    0.4872
  band No.  band energies     occupation 
      1     -41.8786      1.00000
      2     -41.8697      1.00000
      3     -41.8697      1.00000
      4     -41.8520      1.00000
      5     -41.8520      1.00000
      6     -41.8431      1.00000
      7       7.8305      1.00000
      8       7.8563      1.00000
      9       7.8563      1.00000
     10       7.8960      1.00000
     11       7.8960      1.00000
     12       7.9092      1.00000
     13      11.5730      0.00000
     14      11.5730      0.00000
     15      11.5730      0.00000
     16      11.5730      0.00000
     17      18.6375      0.00000
     18      18.9084      0.00000
     19      18.9084      0.00000
     20      19.3860      0.00000
     21      19.3860      0.00000
     22      19.5699      0.00000
     23      21.0823      0.00000
     24      21.1045      0.00000


--------------------------------------------------------------------------------------------------------


 soft charge-density along one line, spin component           1
         0         1         2         3         4         5         6         7         8         9
 total charge-density along one line
 
 soft charge-density along one line, spin component           2
         0         1         2         3         4         5         6         7         8         9
 total charge-density along one line
 
 pseudopotential strength for first ion, spin component:           1
-44.850   0.000  -0.000   7.566  -0.000   0.000  -0.000  -0.000
  0.000 -44.850  -0.000  -0.000   7.566   0.000  -0.000  -0.000
 -0.000  -0.000 -44.850   0.000   0.000   7.566  -0.000  -0.000
  7.566  -0.000   0.000   5.639  -0.000   0.000   0.000   0.000
 -0.000   7.566   0.000  -0.000   5.639   0.000   0.000   0.000
  0.000   0.000   7.566   0.000   0.000   5.639   0.000   0.000
 -0.000  -0.000  -0.000   0.000   0.000   0.000  -1.976  -0.000
 -0.000  -0.000  -0.000   0.000   0.000   0.000  -0.000  -1.976
  0.000  -0.000   0.000  -0.000   0.000   0.000   0.000   0.000
 -0.000  -0.000  -0.000   0.000   0.000   0.000   0.000  -0.000
  0.000  -0.000  -0.000  -0.000   0.000  -0.000   0.000  -0.000
 -0.000  -0.000  -0.000   0.000   0.000   0.000  -2.491  -0.000
 -0.000  -0.000  -0.000   0.000   0.000   0.000  -0.000  -2.491
  0.000  -0.000   0.000  -0.000   0.000  -0.000   0.000   0.000
 -0.000  -0.000  -0.000   0.000   0.000   0.000   0.000  -0.000
  0.000  -0.000  -0.000  -0.000   0.000   0.000   0.000  -0.000
  0.000   0.000   0.000   0.000   0.000   0.000   0.000  -0.000
  0.000   0.000   0.000   0.000   0.000   0.000   0.000  -0.000
 pseudopotential strength for first ion, spin component:           2
-42.872   0.000  -0.000   6.731  -0.000   0.000  -0.000  -0.000
  0.000 -42.872  -0.000  -0.000   6.731   0.000   0.000  -0.000
 -0.000  -0.000 -42.872   0.000   0.000   6.731  -0.000   0.000
  6.731  -0.000   0.000   5.868  -0.000  -0.000   0.000   0.000
 -0.000   6.731   0.000  -0.000   5.868   0.000  -0.000   0.000
  0.000   0.000   6.731  -0.000   0.000   5.868   0.000  -0.000
 -0.000   0.000  -0.000   0.000  -0.000   0.000  -0.442  -0.000
 -0.000  -0.000   0.000   0.000   0.000  -0.000  -0.000  -0.442
  0.000  -0.000   0.000  -0.000   0.000   0.000   0.000   0.000
  0.000  -0.000  -0.000  -0.000   0.000   0.000   0.000  -0.000
  0.000  -0.000  -0.000  -0.000   0.000   0.000   0.000  -0.000
 -0.000   0.000  -0.000   0.000  -0.000   0.000  -0.982  -0.000
 -0.000  -0.000   0.000   0.000   0.000  -0.000  -0.000  -0.982
  0.000  -0.000   0.000  -0.000   0.000  -0.000   0.000   0.000
  0.000  -0.000  -0.000  -0.000   0.000   0.000   0.000  -0.000
  0.000  -0.000  -0.000  -0.000   0.000   0.000   0.000  -0.000
  0.000   0.000   0.000   0.000   0.000   0.000   0.000  -0.000
  0.000   0.000   0.000   0.000   0.000   0.000   0.000  -0.000
 total augmentation occupancy for first ion, spin component:           1
  1.992   0.000   0.000  -0.026  -0.000   0.000  -0.000  -0.000  -0.000  -0.000   0.000   0.000  -0.000   0.000  -0.000   0.000
  0.000   1.992   0.000   0.000  -0.026   0.000   0.000   0.000   0.000  -0.000  -0.000   0.000  -0.000   0.000   0.000   0.000
  0.000   0.000   1.992   0.000   0.000  -0.026   0.000  -0.000  -0.000  -0.000   0.000   0.000  -0.000   0.000   0.000   0.000
 -0.026   0.000   0.000   0.200  -0.000   0.000   0.000   0.000   0.000   0.000   0.000   0.000   0.000   0.000  -0.000   0.000
  0.000  -0.026  -0.000  -0.000   0.200   0.000   0.000   0.000   0.000   0.000   0.000  -0.000   0.000   0.000   0.000  -0.000
  0.000  -0.000  -0.026  -0.000   0.000   0.200   0.000   0.000  -0.000   0.000  -0.000   0.000  -0.000   0.000   0.000  -0.000
 -0.000   0.000   0.000   0.000  -0.000   0.000   2.192  -0.000   0.000   0.000   0.000  -1.241   0.000  -0.000   0.000   0.000
 -0.000   0.000  -0.000   0.000   0.000   0.000  -0.000   2.192  -0.000  -0.000  -0.000  -0.000  -1.241   0.000   0.000   0.000
 -0.000   0.000   0.000   0.000   0.000   0.000   0.000  -0.000   3.389  -0.000   0.000   0.000  -0.000  -2.174   0.000   0.000
 -0.000  -0.000  -0.000   0.000   0.000   0.000  -0.000  -0.000  -0.000   2.192   0.000  -0.000   0.000   0.000  -1.241  -0.000
  0.000   0.000   0.000   0.000   0.000  -0.000   0.000  -0.000   0.000  -0.000   3.389   0.000  -0.000   0.000  -0.000  -2.174
  0.000   0.000   0.000   0.000   0.000   0.000  -1.241  -0.000   0.000   0.000   0.000   1.666   0.000  -0.000   0.000   0.000
 -0.000  -0.000  -0.000   0.000   0.000   0.000  -0.000  -1.241   0.000  -0.000  -0.000  -0.000   1.666   0.000   0.000  -0.000
  0.000   0.000   0.000  -0.000   0.000   0.000   0.000  -0.000  -2.174   0.000   0.000  -0.000   0.000   2.221   0.000  -0.000
 -0.000   0.000   0.000  -0.000   0.000   0.000  -0.000   0.000   0.000  -1.241   0.000   0.000   0.000   0.000   1.666   0.000
  0.000   0.000   0.000   0.000   0.000   0.000   0.000   0.000   0.000  -0.000  -2.174  -0.000   0.000   0.000   0.000   2.221
 -0.000  -0.000   0.000  -0.000  -0.000  -0.000   0.000   0.000  -0.000  -0.000   0.000  -0.000   0.000   0.000  -0.000   0.000
 -0.000   0.000   0.000   0.000   0.000  -0.000   0.000   0.000  -0.000   0.000   0.000   0.000   0.000  -0.000   0.000  -0.000
 total augmentation occupancy for first ion, spin component:           2
 -0.002   0.000   0.000  -0.009   0.000   0.000   0.000   0.000   0.000   0.000   0.000   0.000   0.000  -0.000   0.000   0.000
  0.000  -0.002   0.000   0.000  -0.009   0.000   0.000   0.000   0.000   0.000   0.000   0.000  -0.000   0.000   0.000  -0.000
  0.000   0.000  -0.002   0.000   0.000  -0.009   0.000   0.000   0.000   0.000   0.000   0.000   0.000   0.000  -0.000   0.000
 -0.009  -0.000  -0.000  -0.018   0.000   0.000   0.000   0.000   0.000   0.000  -0.000   0.000   0.000   0.000   0.000   0.000
  0.000  -0.009   0.000   0.000  -0.018  -0.000  -0.000   0.000   0.000   0.000   0.000  -0.000   0.000   0.000   0.000  -0.000
  0.000  -0.000  -0.009   0.000   0.000  -0.018   0.000   0.000   0.000   0.000  -0.000   0.000   0.000   0.000   0.000   0.000
  0.000   0.000   0.000   0.000   0.000   0.000   1.781  -0.000   0.000  -0.000  -0.000  -0.674   0.000   0.000  -0.000   0.000
  0.000   0.000   0.000   0.000   0.000   0.000  -0.000   1.781   0.000   0.000  -0.000  -0.000  -0.674  -0.000  -0.000  -0.000
 -0.000   0.000   0.000  -0.000   0.000  -0.000   0.000   0.000   2.800   0.000  -0.000   0.000  -0.000  -1.148  -0.000   0.000
  0.000   0.000   0.000   0.000   0.000   0.000  -0.000   0.000  -0.000   1.781   0.000  -0.000  -0.000  -0.000  -0.674   0.000
  0.000   0.000   0.000   0.000   0.000  -0.000  -0.000  -0.000   0.000   0.000   2.800   0.000   0.000  -0.000  -0.000  -1.148
  0.000   0.000   0.000   0.000  -0.000   0.000  -0.674  -0.000   0.000   0.000   0.000   0.001   0.000   0.000  -0.000   0.000
  0.000  -0.000   0.000   0.000   0.000  -0.000   0.000  -0.674   0.000   0.000   0.000   0.000   0.001   0.000   0.000   0.000
 -0.000   0.000   0.000   0.000   0.000  -0.000   0.000   0.000  -1.148  -0.000   0.000   0.000   0.000   0.229   0.000  -0.000
  0.000   0.000  -0.000  -0.000   0.000   0.000   0.000  -0.000   0.000  -0.674  -0.000  -0.000  -0.000   0.000   0.001  -0.000
  0.000   0.000   0.000  -0.000  -0.000  -0.000  -0.000  -0.000   0.000   0.000  -1.148   0.000   0.000   0.000  -0.000   0.229
  0.000   0.000  -0.000  -0.000  -0.000  -0.000  -0.000  -0.000  -0.000  -0.000   0.000  -0.000  -0.000  -0.000   0.000  -0.000
  0.000  -0.000   0.000  -0.000  -0.000  -0.000   0.000   0.000  -0.000   0.000  -0.000  -0.000   0.000   0.000  -0.000  -0.000


------------------------ aborting loop because EDIFF is reached ----------------------------------------


 


 total charge     
 
# of ion       s       p       d       tot
------------------------------------------
    1        0.385   6.376   6.078  12.838
    2        0.385   6.376   6.078  12.838
--------------------------------------------------
tot          0.770  12.752  12.155  25.677
 


 magnetization (x)
 
# of ion       s       p       d       tot
------------------------------------------
    1       -0.008  -0.039   2.300   2.253
    2       -0.008  -0.039   2.300   2.253
--------------------------------------------------
tot         -0.016  -0.078   4.600   4.506
 
    CHARGE:  cpu time    0.5596: real time    0.5610
    FORLOC:  cpu time    0.0006: real time    0.0006
    FORNL :  cpu time    4.4244: real time    4.4352
    STRESS:  cpu time   13.2141: real time   13.2464
    FORCOR:  cpu time    0.0100: real time    0.0100
    FORHAR:  cpu time    0.0016: real time    0.0016
    MIXING:  cpu time    0.0006: real time    0.0006
    OFIELD:  cpu time    0.0000: real time    0.0001

  FORCE on cell =-STRESS in cart. coord.  units (eV):
  Direction    XX          YY          ZZ          XY          YZ          ZX
  --------------------------------------------------------------------------------------
  Alpha Z   218.87049   218.87049   218.87049
  Ewald   -1205.52018 -1205.52018 -1205.52018    -0.00000    -0.00000    -0.00000
  Hartree   363.41474   363.41474   363.41474    -0.00000    -0.00000    -0.00000
  E(xc)    -179.80358  -179.80358  -179.80358     0.00000    -0.00000     0.00000
  Local     289.66477   289.66477   289.66477     0.00000    -0.00000     0.00000
  n-local   -60.34812   -54.15983   -50.47825     2.78385    -1.47344     0.59099
  augment   285.34515   285.34515   285.34515    -0.00000    -0.00000    -0.00000
  Kinetic   283.92348   282.59244   281.97235     3.03279    -0.75193     0.02636
  Fock        0.00000     0.00000     0.00000     0.00000     0.00000     0.00000
  -------------------------------------------------------------------------------------
  Total      -0.19458    -0.19458    -0.19458     0.00000    -0.00000    -0.00000
  in kB     -13.60914   -13.60914   -13.60914     0.00000    -0.00000    -0.00000
  external pressure =      -13.61 kB  Pullay stress =        0.00 kB


 VOLUME and BASIS-vectors are now :
 -----------------------------------------------------------------------------
  energy-cutoff  :      920.00
  volume of cell :       22.91
      direct lattice vectors                 reciprocal lattice vectors
     2.840052000  0.000000000  0.000000000     0.352106229  0.000000000  0.000000000
     0.000000000  2.840052000  0.000000000     0.000000000  0.352106229  0.000000000
     0.000000000  0.000000000  2.840052000     0.000000000  0.000000000  0.352106229

  length of vectors
     2.840052000  2.840052000  2.840052000     0.352106229  0.352106229  0.352106229


 FORCES acting on ions
    electron-ion (+dipol)            ewald-force                    non-local-force                 convergence-correction
 -----------------------------------------------------------------------------------------------
   -.195E-13 -.276E-13 -.494E-13   -.529E-15 -.103E-14 -.897E-14   0.162E-26 0.000E+00 -.162E-26   0.116E-13 0.456E-14 -.147E-13
   0.849E-12 0.748E-11 0.864E-11   0.472E-14 0.447E-14 0.926E-14   0.000E+00 0.000E+00 0.000E+00   0.401E-13 -.321E-13 -.106E-12
 -----------------------------------------------------------------------------------------------
   0.830E-12 0.745E-11 0.859E-11   0.419E-14 0.343E-14 0.284E-15   0.162E-26 0.000E+00 -.162E-26   0.517E-13 -.275E-13 -.121E-12
 
 
 POSITION                                       TOTAL-FORCE (eV/Angst)
 -----------------------------------------------------------------------------------
      0.00000      0.00000      0.00000        -0.000000      0.000000     -0.000000
      1.42003      1.42003      1.42003         0.000000     -0.000000      0.000000
 -----------------------------------------------------------------------------------
    total drift:                                0.000000      0.000000      0.000000


--------------------------------------------------------------------------------------------------------



  FREE ENERGIE OF THE ION-ELECTRON SYSTEM (eV)
  ---------------------------------------------------
  free  energy   TOTEN  =       -16.51548339 eV

  energy  without entropy=      -16.51548339  energy(sigma->0) =      -16.51548339
 


--------------------------------------------------------------------------------------------------------


    POTLOK:  cpu time    0.0154: real time    0.0154


--------------------------------------------------------------------------------------------------------


     LOOP+:  cpu time  400.6890: real time  401.8853
    4ORBIT:  cpu time    0.0000: real time    0.0000
 


 total charge     
 
# of ion       s       p       d       tot
------------------------------------------
    1        0.385   6.376   6.078  12.838
    2        0.385   6.376   6.078  12.838
--------------------------------------------------
tot          0.770  12.752  12.155  25.677
 


 magnetization (x)
 
# of ion       s       p       d       tot
------------------------------------------
    1       -0.008  -0.039   2.300   2.253
    2       -0.008  -0.039   2.300   2.253
--------------------------------------------------
tot         -0.016  -0.078   4.600   4.506
 
 BZINTS: Fermi energy:  9.639805; 28.000000 electrons
         Band energy:-398.994918;  BLOECHL correction: -0.003942

 total amount of memory used by VASP MPI-rank0   109471. kBytes
=======================================================================

   base      :      30000. kBytes
   nonlr-proj:        945. kBytes
   fftplans  :        478. kBytes
   grid      :       1141. kBytes
   one-center:         31. kBytes
   wavefun   :      76876. kBytes
 
  
  
 General timing and accounting informations for this job:
 ========================================================
  
                  Total CPU time used (sec):      425.591
                            User time (sec):      421.476
                          System time (sec):        4.115
                         Elapsed time (sec):      427.797
  
                   Maximum memory used (kb):      213076.
                   Average memory used (kb):           0.
  
                          Minor page faults:        65584
                          Major page faults:            0
                 Voluntary context switches:         1552
