=========================================
SLURM_JOB_ID = 31881296
SLURM_JOB_NODELIST = lnode37
SLURM_GPUS = 
SLURM_CPUS_ON_NODE = 8
SLURM_JOB_PARTITION = lenovo
SLURM_TASK_PID = 218331
CUDA_VISIBLE_DEVICES = 
==========================================
 running on    8 total cores
 distrk:  each k-point on    8 cores,    1 groups
 distr:  one band on    4 cores,    2 groups
 using from now: INCAR     
 vasp.5.4.4.18Apr17-6-g9f103f2a35 (build Apr 28 2018 00:24:27) complex          
  
 POSCAR found type information on POSCAR  Eu O 
 POSCAR found :  2 types and       4 ions
 scaLAPACK will be used
 LDA part: xc-table for Pade appr. of Perdew
 generate k-points for:    5    5    3


 VERY BAD NEWS! internal error in subroutine IBZKPT:
 Reciprocal lattice and k-lattice belong to different class of lattices. Often results are still useful...      48


 VERY BAD NEWS! internal error in subroutine IBZKPT:
 Reciprocal lattice and k-lattice belong to different class of lattices. Often results are still useful...      48


 VERY BAD NEWS! internal error in subroutine IBZKPT:
 Reciprocal lattice and k-lattice belong to different class of lattices. Often results are still useful...      48


 VERY BAD NEWS! internal error in subroutine IBZKPT:
 Reciprocal lattice and k-lattice belong to different class of lattices. Often results are still useful...      48


 VERY BAD NEWS! internal error in subroutine IBZKPT:
 Reciprocal lattice and k-lattice belong to different class of lattices. Often results are still useful...      48


 VERY BAD NEWS! internal error in subroutine IBZKPT:
 Reciprocal lattice and k-lattice belong to different class of lattices. Often results are still useful...      48


 VERY BAD NEWS! internal error in subroutine IBZKPT:
 Reciprocal lattice and k-lattice belong to different class of lattices. Often results are still useful...      48


 VERY BAD NEWS! internal error in subroutine IBZKPT:
 Reciprocal lattice and k-lattice belong to different class of lattices. Often results are still useful...      48
 POSCAR, INCAR and KPOINTS ok, starting setup
 FFT: planning ...
 WAVECAR not read
 entering main loop
       N       E                     dE             d eps       ncg     rms          rms(c)
DAV:   1     0.445015298134E+03    0.44502E+03   -0.18063E+04  3156   0.350E+03
DAV:   2     0.541585787424E+02   -0.39086E+03   -0.36629E+03  3648   0.423E+02
DAV:   3    -0.367987098819E+02   -0.90957E+02   -0.89174E+02  4556   0.273E+02
DAV:   4    -0.442026009592E+02   -0.74039E+01   -0.70424E+01  4728   0.679E+01
DAV:   5    -0.450177401941E+02   -0.81514E+00   -0.76107E+00  4936   0.187E+01    0.268E+01
DAV:   6    -0.852129917606E+02   -0.40195E+02   -0.66445E+02  4408   0.226E+02    0.108E+02
DAV:   7    -0.286473856375E+02    0.56566E+02   -0.46716E+02  4280   0.121E+02    0.260E+01
DAV:   8    -0.410608212666E+02   -0.12413E+02   -0.94294E+01  4308   0.616E+01    0.205E+01
DAV:   9    -0.414498419146E+02   -0.38902E+00   -0.88723E+00  4344   0.216E+01    0.121E+01
DAV:  10    -0.416809265027E+02   -0.23108E+00   -0.19178E+00  4992   0.106E+01    0.788E+00
DAV:  11    -0.417005543752E+02   -0.19628E-01   -0.46773E-01  5128   0.586E+00    0.519E+00
DAV:  12    -0.416181191393E+02    0.82435E-01   -0.10602E+00  4000   0.909E+00    0.184E+00
DAV:  13    -0.416206759894E+02   -0.25569E-02   -0.20611E-01  5272   0.409E+00    0.168E+00
DAV:  14    -0.416170242554E+02    0.36517E-02   -0.13558E-02  3500   0.825E-01    0.162E+00
DAV:  15    -0.416066922579E+02    0.10332E-01   -0.25600E-02  4588   0.122E+00    0.142E+00
DAV:  16    -0.416057664926E+02    0.92577E-03   -0.23089E-02  4476   0.147E+00    0.884E-01
DAV:  17    -0.416067820897E+02   -0.10156E-02   -0.50397E-03  4872   0.504E-01    0.461E-01
DAV:  18    -0.416071889653E+02   -0.40688E-03   -0.18554E-03  4632   0.417E-01    0.150E-01
DAV:  19    -0.416072119158E+02   -0.22951E-04   -0.42805E-04  5320   0.175E-01    0.579E-02
DAV:  20    -0.416071667388E+02    0.45177E-04   -0.22154E-04  3732   0.131E-01    0.408E-02
DAV:  21    -0.416071637593E+02    0.29795E-05   -0.73635E-05  4592   0.619E-02    0.183E-02
DAV:  22    -0.416071654747E+02   -0.17154E-05   -0.11509E-05  3756   0.263E-02    0.109E-02
DAV:  23    -0.416071652003E+02    0.27441E-06   -0.10467E-06  1920   0.119E-02
   1 F= -.41607165E+02 E0= -.41610175E+02  d E =0.903036E-02  mag=    -0.0000
