=========================================
SLURM_JOB_ID = 37466382
SLURM_JOB_NODELIST = lnode38
SLURM_GPUS = 
SLURM_CPUS_ON_NODE = 8
SLURM_JOB_PARTITION = lenovo
SLURM_TASK_PID = 3549445
CUDA_VISIBLE_DEVICES = 
==========================================
 running on    8 total cores
 distrk:  each k-point on    8 cores,    1 groups
 distr:  one band on    4 cores,    2 groups
 using from now: INCAR     
 vasp.5.4.4.18Apr17-6-g9f103f2a35 (build Apr 28 2018 00:24:27) complex          
  
 POSCAR found type information on POSCAR  Eu O 
 POSCAR found :  2 types and       8 ions
 scaLAPACK will be used

 ----------------------------------------------------------------------------- 
|                                                                             |
|  ADVICE TO THIS USER RUNNING 'VASP/VAMP'   (HEAR YOUR MASTER'S VOICE ...):  |
|                                                                             |
|      You have a (more or less) 'small supercell' and for smaller cells      |
|      it is recommended  to use the reciprocal-space projection scheme!      |
|      The real space optimization is not  efficient for small cells and it   |
|      is also less accurate ...                                              |
|      Therefore set LREAL=.FALSE. in the  INCAR file                         |
|                                                                             |
 ----------------------------------------------------------------------------- 

 LDA part: xc-table for Pade appr. of Perdew
 POSCAR, INCAR and KPOINTS ok, starting setup
 FFT: planning ...
 WAVECAR not read
 entering main loop
       N       E                     dE             d eps       ncg     rms          rms(c)
DAV:   1     0.128607670325E+04    0.12861E+04   -0.31019E+04 64360   0.355E+03
DAV:   2     0.344367830270E+03   -0.94171E+03   -0.85063E+03 73568   0.710E+02
DAV:   3    -0.769451008879E+01   -0.35206E+03   -0.34155E+03 85392   0.367E+02
DAV:   4    -0.753609941041E+02   -0.67666E+02   -0.65891E+02103840   0.150E+02
DAV:   5    -0.816861237840E+02   -0.63251E+01   -0.58969E+01106312   0.497E+01    0.375E+01
RMM:   6    -0.868046800161E+02   -0.51186E+01   -0.24228E+02 76873   0.114E+02    0.634E+01
RMM:   7    -0.807407132296E+02    0.60640E+01   -0.10314E+02 63342   0.103E+02    0.267E+01
RMM:   8    -0.826322331625E+02   -0.18915E+01   -0.27342E+01 69741   0.400E+01    0.981E+00
RMM:   9    -0.830798253309E+02   -0.44759E+00   -0.14559E+01 72107   0.249E+01    0.501E+00
RMM:  10    -0.834310560690E+02   -0.35123E+00   -0.15849E+00 79634   0.896E+00    0.737E+00
RMM:  11    -0.832025829276E+02    0.22847E+00   -0.59261E-01 85753   0.491E+00    0.242E+00
RMM:  12    -0.832687514243E+02   -0.66168E-01   -0.32063E-01 92713   0.254E+00    0.178E+00
RMM:  13    -0.833262231005E+02   -0.57472E-01   -0.23880E-01 94778   0.197E+00    0.164E+00
RMM:  14    -0.833249853127E+02    0.12378E-02   -0.11097E-01 90107   0.160E+00    0.550E-01
RMM:  15    -0.833321077728E+02   -0.71225E-02   -0.68995E-02 96136   0.902E-01    0.447E-01
RMM:  16    -0.833348316768E+02   -0.27239E-02   -0.38927E-02 96462   0.710E-01    0.264E-01
RMM:  17    -0.833374121615E+02   -0.25805E-02   -0.27553E-02 84704   0.463E-01    0.149E-01
RMM:  18    -0.833390385344E+02   -0.16264E-02   -0.17205E-02 70242   0.404E-01    0.792E-02
RMM:  19    -0.833403869328E+02   -0.13484E-02   -0.14052E-02 63673   0.402E-01    0.798E-02
RMM:  20    -0.833413686490E+02   -0.98172E-03   -0.10286E-02 58807   0.387E-01    0.231E-02
RMM:  21    -0.833421844017E+02   -0.81575E-03   -0.83423E-03 56128   0.364E-01    0.193E-02
RMM:  22    -0.833428147495E+02   -0.63035E-03   -0.64899E-03 52751   0.357E-01    0.200E-02
RMM:  23    -0.833433179127E+02   -0.50316E-03   -0.51916E-03 52382   0.340E-01    0.239E-02
RMM:  24    -0.833437279274E+02   -0.41001E-03   -0.41881E-03 50420   0.314E-01    0.651E-02
RMM:  25    -0.833440518110E+02   -0.32388E-03   -0.34251E-03 50364   0.287E-01    0.591E-02
RMM:  26    -0.833443040862E+02   -0.25228E-03   -0.27469E-03 48802   0.268E-01    0.301E-02
RMM:  27    -0.833445147974E+02   -0.21071E-03   -0.22108E-03 48298   0.261E-01    0.147E-02
RMM:  28    -0.833446840077E+02   -0.16921E-03   -0.17754E-03 47403   0.250E-01    0.132E-02
RMM:  29    -0.833448221226E+02   -0.13811E-03   -0.14537E-03 47083   0.244E-01    0.925E-03
RMM:  30    -0.833449370907E+02   -0.11497E-03   -0.11883E-03 46584   0.239E-01    0.177E-02
RMM:  31    -0.833450309927E+02   -0.93902E-04   -0.98563E-04 46422   0.240E-01
   1 F= -.83345031E+02 E0= -.83344923E+02  d E =-.833450E+02  mag=     0.0000
 curvature:   0.00 expect dE= 0.000E+00 dE for cont linesearch  0.000E+00
 trial: gam= 0.00000 g(F)=  0.772E-03 g(S)=  0.115E-02 ort = 0.000E+00 (trialstep = 0.100E+01)
 search vector abs. value=  0.192E-02
 bond charge predicted
       N       E                     dE             d eps       ncg     rms          rms(c)
DAV:   1    -0.833414076201E+02    0.35295E-02   -0.19205E-01 77176   0.878E+00    0.561E-01
RMM:   2    -0.833475323779E+02   -0.61248E-02   -0.82945E-02 81894   0.185E+00    0.278E-01
RMM:   3    -0.833477607164E+02   -0.22834E-03   -0.16197E-02 88590   0.680E-01    0.140E-01
RMM:   4    -0.833471008606E+02    0.65986E-03   -0.22229E-03 67291   0.314E-01    0.101E-01
RMM:   5    -0.833474458446E+02   -0.34498E-03   -0.14329E-03 63279   0.317E-01    0.374E-01
RMM:   6    -0.833469903395E+02    0.45551E-03   -0.98570E-04 57278   0.283E-01    0.308E-02
RMM:   7    -0.833470263417E+02   -0.36002E-04   -0.31014E-04 40886   0.218E-01
   2 F= -.83347026E+02 E0= -.83346931E+02  d E =-.199535E-02  mag=     0.0001
 ZBRENT: can't locate minimum, use default step
 trial-energy change:   -0.001995  1 .order   -0.001899   -0.001919   -0.001879
 step:   4.0000(harm= 47.5402)  dis= 0.00757  next Energy=   -83.390644 (dE=-0.456E-01)
 bond charge predicted
       N       E                     dE             d eps       ncg     rms          rms(c)
DAV:   1    -0.833006804371E+02    0.46310E-01   -0.17881E+00 75360   0.263E+01    0.168E+00
RMM:   2    -0.833511799694E+02   -0.50500E-01   -0.69164E-01 79656   0.550E+00    0.846E-01
RMM:   3    -0.833541804403E+02   -0.30005E-02   -0.13067E-01 89867   0.190E+00    0.705E-01
RMM:   4    -0.833588835491E+02   -0.47031E-02   -0.23219E-02 78906   0.107E+00    0.137E+00
RMM:   5    -0.833476971815E+02    0.11186E-01   -0.11621E-02 79804   0.830E-01    0.217E-01
RMM:   6    -0.833472532960E+02    0.44389E-03   -0.87126E-03 86050   0.598E-01    0.176E-01
RMM:   7    -0.833473653142E+02   -0.11202E-03   -0.29224E-03 69742   0.270E-01    0.684E-02
RMM:   8    -0.833473024685E+02    0.62846E-04   -0.82133E-04 52158   0.222E-01
   3 F= -.83347302E+02 E0= -.83347212E+02  d E =-.227148E-02  mag=    -0.0005
 curvature:  -2.97 expect dE=-0.249E-02 dE for cont linesearch -0.169E-02
 ZBRENT: interpolating
 opt :   2.9275  next Energy=   -83.347863 (dE=-0.283E-02)
 bond charge predicted
       N       E                     dE             d eps       ncg     rms          rms(c)
DAV:   1    -0.833434937606E+02    0.38716E-02   -0.23759E-01 75344   0.936E+00    0.594E-01
RMM:   2    -0.833487039532E+02   -0.52102E-02   -0.78082E-02 78528   0.192E+00    0.298E-01
RMM:   3    -0.833490677618E+02   -0.36381E-03   -0.14509E-02 82772   0.760E-01    0.336E-01
RMM:   4    -0.833490863779E+02   -0.18616E-04   -0.26816E-03 60803   0.436E-01    0.417E-01
RMM:   5    -0.833480464523E+02    0.10399E-02   -0.93467E-04 52067   0.354E-01    0.637E-02
RMM:   6    -0.833480052143E+02    0.41238E-04   -0.95320E-04 53049   0.274E-01
   4 F= -.83348005E+02 E0= -.83347921E+02  d E =-.297422E-02  mag=    -0.0004
 curvature:  -0.98 expect dE=-0.202E-02 dE for cont linesearch -0.146E-02
 ZBRENT: bisectioning
 opt :   1.9638  next Energy=   -83.349906 (dE=-0.488E-02)
 bond charge predicted
       N       E                     dE             d eps       ncg     rms          rms(c)
DAV:   1    -0.833439314608E+02    0.41150E-02   -0.18613E-01 80152   0.836E+00    0.524E-01
RMM:   2    -0.833484254515E+02   -0.44940E-02   -0.62672E-02 79053   0.170E+00    0.265E-01
RMM:   3    -0.833488531789E+02   -0.42773E-03   -0.12670E-02 82982   0.691E-01    0.381E-01
RMM:   4    -0.833485623920E+02    0.29079E-03   -0.24211E-03 62248   0.394E-01    0.269E-01
WARNING in EDDRMM: call to ZHEGV failed, returncode =   6  3     22
RMM:   5    -0.833478923603E+02    0.67003E-03   -0.85148E-04 51285   0.314E-01    0.583E-02
RMM:   6    -0.833478867825E+02    0.55777E-05   -0.10472E-03 57247   0.268E-01    0.468E-02
RMM:   7    -0.833479039115E+02   -0.17129E-04   -0.30820E-04 38583   0.215E-01
   5 F= -.83347904E+02 E0= -.83347813E+02  d E =-.287292E-02  mag=    -0.0000
 curvature:  -1.28 expect dE=-0.290E-03 dE for cont linesearch -0.261E-04
 ZBRENT: interpolating
 opt :   1.8531  next Energy=   -83.347916 (dE=-0.289E-02)
 bond charge predicted
       N       E                     dE             d eps       ncg     rms          rms(c)
DAV:   1    -0.833478224456E+02    0.64337E-04   -0.25610E-03 86016   0.101E+00    0.593E-02
RMM:   2    -0.833478775455E+02   -0.55100E-04   -0.81551E-04 47013   0.207E-01
   6 F= -.83347878E+02 E0= -.83347791E+02  d E =-.284655E-02  mag=     0.0010
 curvature:  -0.61 expect dE=-0.946E-03 dE for cont linesearch -0.268E-03
 ZBRENT: interpolating
 opt :   1.9442  next Energy=   -83.347906 (dE=-0.287E-02)
 bond charge predicted
       N       E                     dE             d eps       ncg     rms          rms(c)
DAV:   1    -0.833479381891E+02   -0.11574E-03   -0.17687E-03 85416   0.833E-01    0.110E-01
RMM:   2    -0.833493445431E+02   -0.14064E-02   -0.10587E-03 43712   0.305E-01    0.723E-01
RMM:   3    -0.833478978144E+02    0.14467E-02   -0.54772E-04 40343   0.321E-01    0.382E-02
RMM:   4    -0.833479335336E+02   -0.35719E-04   -0.18611E-05 30564   0.206E-01
   7 F= -.83347934E+02 E0= -.83347844E+02  d E =-.290254E-02  mag=    -0.0001
 curvature:  -0.00 expect dE=-0.234E-06 dE for cont linesearch -0.124E-06
 ZBRENT: interpolating
 opt :   1.9548  next Energy=   -83.347905 (dE=-0.287E-02)
 bond charge predicted
       N       E                     dE             d eps       ncg     rms          rms(c)
DAV:   1    -0.833479470387E+02   -0.49224E-04   -0.15215E-04 46480   0.234E-01    0.814E-03
RMM:   2    -0.833479488379E+02   -0.17992E-05   -0.25658E-05 28798   0.751E-02
   8 F= -.83347949E+02 E0= -.83347860E+02  d E =-.291785E-02  mag=    -0.0002
 curvature:  -0.03 expect dE=-0.112E-05 dE for cont linesearch -0.399E-06
 ZBRENT: interpolating
 opt :   1.9587  next Energy=   -83.347949 (dE=-0.292E-02)
 bond charge predicted
       N       E                     dE             d eps       ncg     rms          rms(c)
DAV:   1    -0.833479520622E+02   -0.50235E-05   -0.16261E-05 38800   0.103E-01    0.899E-03
RMM:   2    -0.833479608491E+02   -0.87868E-05   -0.25739E-05 28599   0.569E-02
   9 F= -.83347961E+02 E0= -.83347872E+02  d E =-.292986E-02  mag=    -0.0001
 curvature:  -0.02 expect dE=-0.940E-06 dE for cont linesearch -0.240E-06
 ZBRENT: bisectioning
 opt :   1.9613  next Energy=   -83.347961 (dE=-0.293E-02)
 bond charge predicted
       N       E                     dE             d eps       ncg     rms          rms(c)
DAV:   1    -0.833479552028E+02   -0.31406E-05   -0.13897E-05 38464   0.947E-02    0.430E-03
RMM:   2    -0.833479575820E+02   -0.23792E-05   -0.15380E-05 28043   0.413E-02
  10 F= -.83347958E+02 E0= -.83347869E+02  d E =-.292659E-02  mag=    -0.0001
 curvature:  -0.03 expect dE=-0.167E-05 dE for cont linesearch -0.566E-06
 ZBRENT: bisectioning
 opt :   1.9625  next Energy=   -83.347958 (dE=-0.293E-02)
 bond charge predicted
       N       E                     dE             d eps       ncg     rms          rms(c)
DAV:   1    -0.833479579724E+02   -0.27696E-05   -0.77045E-06 37768   0.651E-02    0.327E-03
RMM:   2    -0.833479588902E+02   -0.91784E-06   -0.90297E-06 26432   0.314E-02
  11 F= -.83347959E+02 E0= -.83347870E+02  d E =-.292790E-02  mag=    -0.0001
 curvature:  -0.01 expect dE=-0.101E-05 dE for cont linesearch -0.459E-06
 ZBRENT: interpolating
 opt :   1.9632  next Energy=   -83.347904 (dE=-0.287E-02)
 bond charge predicted
       N       E                     dE             d eps       ncg     rms          rms(c)
DAV:   1    -0.833479596188E+02   -0.16465E-05   -0.54988E-06 36912   0.504E-02    0.252E-03
RMM:   2    -0.833479602571E+02   -0.63828E-06   -0.52329E-06 23521   0.261E-02
  12 F= -.83347960E+02 E0= -.83347872E+02  d E =-.292926E-02  mag=    -0.0001
 curvature:  -0.00 expect dE=-0.157E-06 dE for cont linesearch -0.856E-07
 ZBRENT: interpolating
 opt :   1.9635  next Energy=   -83.347904 (dE=-0.287E-02)
 bond charge predicted
       N       E                     dE             d eps       ncg     rms          rms(c)
DAV:   1    -0.833479606129E+02   -0.99407E-06   -0.41624E-06 36008   0.398E-02    0.185E-03
RMM:   2    -0.833479609836E+02   -0.37067E-06   -0.33018E-06 21067   0.226E-02
  13 F= -.83347961E+02 E0= -.83347873E+02  d E =-.292999E-02  mag=    -0.0001
 curvature:  -0.00 expect dE=-0.470E-07 dE for cont linesearch -0.281E-07
 ZBRENT: interpolating
 opt :   1.9637  next Energy=   -83.347904 (dE=-0.287E-02)
 bond charge predicted
       N       E                     dE             d eps       ncg     rms          rms(c)
DAV:   1    -0.833479612937E+02   -0.68078E-06   -0.31785E-06 34968   0.305E-02    0.126E-03
RMM:   2    -0.833479615642E+02   -0.27056E-06   -0.23391E-06 19734   0.207E-02
  14 F= -.83347962E+02 E0= -.83347873E+02  d E =-.293057E-02  mag=    -0.0001
 curvature:  -0.00 expect dE=-0.145E-07 dE for cont linesearch -0.918E-08
 ZBRENT: interpolating
 opt :   1.9637  next Energy=   -83.347904 (dE=-0.287E-02)
 bond charge predicted
       N       E                     dE             d eps       ncg     rms          rms(c)
DAV:   1    -0.833479617965E+02   -0.50286E-06   -0.25196E-06 34048   0.255E-02    0.760E-04
RMM:   2    -0.833479619460E+02   -0.14943E-06   -0.15397E-06 14261   0.187E-02
  15 F= -.83347962E+02 E0= -.83347874E+02  d E =-.293095E-02  mag=    -0.0001
 curvature:  -0.00 expect dE=-0.432E-08 dE for cont linesearch -0.280E-08
 ZBRENT: interpolating
 opt :   1.9638  next Energy=   -83.347904 (dE=-0.287E-02)
 bond charge predicted
       N       E                     dE             d eps       ncg     rms          rms(c)
DAV:   1    -0.833479622006E+02   -0.40402E-06   -0.22786E-06 33288   0.222E-02    0.534E-04
RMM:   2    -0.833479623150E+02   -0.11441E-06   -0.10959E-06 13684   0.175E-02
  16 F= -.83347962E+02 E0= -.83347874E+02  d E =-.293132E-02  mag=    -0.0001
 curvature:  -0.00 expect dE=-0.130E-08 dE for cont linesearch -0.854E-09
 ZBRENT: interpolating
 opt :   1.9638  next Energy=   -83.347904 (dE=-0.287E-02)
 bond charge predicted
       N       E                     dE             d eps       ncg     rms          rms(c)
DAV:   1    -0.833479625432E+02   -0.34262E-06   -0.20539E-06 32424   0.210E-02    0.602E-04
RMM:   2    -0.833479626541E+02   -0.11092E-06   -0.82736E-07 12573   0.159E-02
  17 F= -.83347963E+02 E0= -.83347874E+02  d E =-.293166E-02  mag=    -0.0000
 curvature:  -0.00 expect dE=-0.389E-09 dE for cont linesearch -0.257E-09
 ZBRENT: interpolating
 opt :   1.9638  next Energy=   -83.347904 (dE=-0.287E-02)
 bond charge predicted
       N       E                     dE             d eps       ncg     rms          rms(c)
DAV:   1    -0.833479628215E+02   -0.27831E-06   -0.17619E-06 31832   0.187E-02    0.370E-04
RMM:   2    -0.833479628888E+02   -0.67335E-07   -0.59448E-07  9789   0.143E-02
  18 F= -.83347963E+02 E0= -.83347875E+02  d E =-.293190E-02  mag=    -0.0000
 curvature:  -0.00 expect dE=-0.117E-09 dE for cont linesearch -0.780E-10
 ZBRENT: interpolating
 opt :   1.9638  next Energy=   -83.347904 (dE=-0.287E-02)
 bond charge predicted
       N       E                     dE             d eps       ncg     rms          rms(c)
DAV:   1    -0.833479630520E+02   -0.23055E-06   -0.14821E-06 31640   0.175E-02    0.350E-04
RMM:   2    -0.833479630999E+02   -0.47878E-07   -0.44119E-07  8771   0.128E-02
  19 F= -.83347963E+02 E0= -.83347875E+02  d E =-.293211E-02  mag=    -0.0000
 curvature:  -0.00 expect dE=-0.350E-10 dE for cont linesearch -0.234E-10
 ZBRENT:  can not reach accuracy
 opt :   0.0000  next Energy=     0.000000 (dE= 0.833E+02)
 bond charge predicted
       N       E                     dE             d eps       ncg     rms          rms(c)
DAV:   1    -0.833306847988E+02    0.17278E-01   -0.83263E-01 83288   0.171E+01    0.107E+00
RMM:   2    -0.833481850532E+02   -0.17500E-01   -0.25049E-01 78338   0.331E+00    0.528E-01
RMM:   3    -0.833475490025E+02    0.63605E-03   -0.42608E-02 85645   0.127E+00    0.257E-01
RMM:   4    -0.833454852419E+02    0.20638E-02   -0.85205E-03 82180   0.642E-01    0.968E-02
RMM:   5    -0.833454694271E+02    0.15815E-04   -0.31296E-03 74266   0.366E-01    0.128E-01
RMM:   6    -0.833455412300E+02   -0.71803E-04   -0.11048E-03 55614   0.248E-01    0.128E-01
RMM:   7    -0.833455019865E+02    0.39244E-04   -0.38505E-04 42440   0.214E-01
  20 F= -.83345502E+02 E0= -.83345391E+02  d E =-.470994E-03  mag=    -0.0002
 curvature:   0.00 expect dE= 0.000E+00 dE for cont linesearch  0.000E+00
 ZBRENT: fatal error in bracketing
     please rerun with smaller EDIFF, or copy CONTCAR
     to POSCAR and continue
