=========================================
SLURM_JOB_ID = 31413423
SLURM_JOB_NODELIST = lnode15
SLURM_GPUS = 
SLURM_CPUS_ON_NODE = 8
SLURM_JOB_PARTITION = lenovo
SLURM_TASK_PID = 1793821
CUDA_VISIBLE_DEVICES = 
==========================================
 running on    8 total cores
 distrk:  each k-point on    8 cores,    1 groups
 distr:  one band on    4 cores,    2 groups
 using from now: INCAR     
 vasp.5.4.4.18Apr17-6-g9f103f2a35 (build Apr 28 2018 00:24:27) complex          
  
 POSCAR found type information on POSCAR  Eu O 
 POSCAR found :  2 types and       4 ions
 scaLAPACK will be used
 LDA part: xc-table for Pade appr. of Perdew
 POSCAR, INCAR and KPOINTS ok, starting setup
 FFT: planning ...
 WAVECAR not read
 entering main loop
       N       E                     dE             d eps       ncg     rms          rms(c)
DAV:   1     0.431707122345E+03    0.43171E+03   -0.18133E+04  2968   0.350E+03
DAV:   2     0.545800863817E+02   -0.37713E+03   -0.35504E+03  3328   0.417E+02
DAV:   3    -0.364487196702E+02   -0.91029E+02   -0.89273E+02  4240   0.256E+02
DAV:   4    -0.441467884504E+02   -0.76981E+01   -0.73392E+01  4284   0.688E+01
DAV:   5    -0.450147185979E+02   -0.86793E+00   -0.81029E+00  4460   0.196E+01    0.268E+01
DAV:   6    -0.856971905782E+02   -0.40682E+02   -0.66681E+02  4120   0.227E+02    0.108E+02
DAV:   7    -0.263653791492E+02    0.59332E+02   -0.44450E+02  3864   0.122E+02    0.236E+01
DAV:   8    -0.407028454301E+02   -0.14337E+02   -0.11260E+02  3932   0.620E+01    0.218E+01
DAV:   9    -0.414218027741E+02   -0.71896E+00   -0.11388E+01  3896   0.232E+01    0.134E+01
DAV:  10    -0.416056550156E+02   -0.18385E+00   -0.23122E+00  4504   0.115E+01    0.873E+00
DAV:  11    -0.417568176527E+02   -0.15116E+00   -0.55894E-01  4612   0.537E+00    0.568E+00
DAV:  12    -0.416953645884E+02    0.61453E-01   -0.14098E+00  4328   0.973E+00    0.320E+00
DAV:  13    -0.416246472023E+02    0.70717E-01   -0.33065E-01  4336   0.446E+00    0.233E+00
DAV:  14    -0.416178897456E+02    0.67575E-02   -0.40522E-02  4168   0.130E+00    0.198E+00
DAV:  15    -0.416115842691E+02    0.63055E-02   -0.39751E-02  4296   0.132E+00    0.102E+00
DAV:  16    -0.416119832092E+02   -0.39894E-03   -0.16911E-02  4528   0.119E+00    0.579E-01
DAV:  17    -0.416120726453E+02   -0.89436E-04   -0.27501E-03  4464   0.340E-01    0.394E-01
DAV:  18    -0.416121172680E+02   -0.44623E-04   -0.22420E-03  3952   0.428E-01    0.177E-01
DAV:  19    -0.416121859690E+02   -0.68701E-04   -0.13275E-03  4744   0.287E-01    0.128E-01
DAV:  20    -0.416121802171E+02    0.57519E-05   -0.16050E-04  3960   0.991E-02    0.925E-02
DAV:  21    -0.416121780380E+02    0.21792E-05   -0.42016E-05  4608   0.465E-02    0.706E-02
DAV:  22    -0.416121928233E+02   -0.14785E-04   -0.43888E-05  4444   0.467E-02    0.104E-02
DAV:  23    -0.416121932528E+02   -0.42956E-06   -0.36255E-06  2448   0.186E-02
   1 F= -.41612193E+02 E0= -.41617419E+02  d E =0.156785E-01  mag=     0.0000
