 vasp.5.4.4.18Apr17-6-g9f103f2a35 (build Apr 28 2018 00:24:27) complex          
  
 executed on             LinuxIFC date 2021.03.25  01:51:13
 running on    8 total cores
 distrk:  each k-point on    8 cores,    1 groups
 distr:  one band on NCORES_PER_BAND=   4 cores,    2 groups


--------------------------------------------------------------------------------------------------------


 INCAR:
 POTCAR:    PAW_PBE Eu 23Dec2003                  
 POTCAR:    PAW_PBE O 08Apr2002                   
 POTCAR:    PAW_PBE Eu 23Dec2003                  
   SHA256 =  ed303d27e7c5191953f9b15539336e6f36d9037c1d2e92e80c13d733697cb93d Eu
   COPYR  = (c) Copyright 23Dec2003 Georg Kresse                                
   COPYR  = This file is part of the software VASP. Any use, copying, and all ot
   COPYR  = If you do not have a valid VASP license, you may not use, copy or di
   VRHFIN =Eu : [core=Kr4d]                                                     
   LEXCH  = PE                                                                  
   EATOM  =  2619.8085 eV,  192.5505 Ry                                         
                                                                                
   TITEL  = PAW_PBE Eu 23Dec2003                                                
   LULTRA =        F    use ultrasoft PP ?                                      
   IUNSCR =        1    unscreen: 0-lin 1-nonlin 2-no                           
   RPACOR =    2.300    partial core radius                                     
   POMASS =  151.965; ZVAL   =   17.000    mass and valenz                      
   RCORE  =    2.800    outmost cutoff radius                                   
   RWIGS  =    2.800; RWIGS  =    1.482    wigner-seitz radius (au A)           
   ENMAX  =  249.668; ENMIN  =  187.251 eV                                      
   RCLOC  =    2.308    cutoff for local pot                                    
   LCOR   =        T    correct aug charges                                     
   LPAW   =        T    paw PP                                                  
   EAUG   =  549.628                                                            
   DEXC   =    0.000                                                            
   RMAX   =    2.870    core radius for proj-oper                               
   RAUG   =    1.300    factor for augmentation sphere                          
   RDEP   =    2.887    radius for radial grids                                 
   RDEPT  =    2.221    core radius for aug-charge                              
                                                                                
   Atomic configuration                                                         
   14 entries                                                                   
     n  l   j            E        occ.                                          
     1  0  0.50    -48354.7667   2.0000                                         
     2  0  0.50     -7939.6472   2.0000                                         
     2  1  1.50     -7072.6637   6.0000                                         
     3  0  0.50     -1747.1875   2.0000                                         
     3  1  1.50     -1477.5221   6.0000                                         
     3  2  2.50     -1117.4686  10.0000                                         
     4  0  0.50      -346.8682   2.0000                                         
     4  1  1.50      -258.1962   6.0000                                         
     4  2  2.50      -134.7724  10.0000                                         
     5  0  0.50       -44.6510   2.0000                                         
     6  0  0.50        -3.6227   2.0000                                         
     5  1  1.50       -23.7639   6.0000                                         
     5  2  2.50        -1.3130   0.0000                                         
     4  3  2.50        -2.7310   7.0000                                         
   Description                                                                  
     l       E           TYP  RCUT    TYP  RCUT                                 
     0    -44.6510453     23  2.400                                             
     0     -3.6226685     23  2.400                                             
     1    -23.7638687     23  2.400                                             
     1     27.2116520     23  2.400                                             
     2     -1.3129622     23  2.500                                             
     2     13.6058260     23  2.500                                             
     3     -2.7309948     23  2.800                                             
     3     -3.4014565     23  2.800                                             
  local pseudopotential read in
  partial core-charges read in
  partial kinetic energy density read in
  atomic valenz-charges read in
  non local Contribution for L=           0  read in
    real space projection operators read in
  non local Contribution for L=           0  read in
    real space projection operators read in
  non local Contribution for L=           1  read in
    real space projection operators read in
  non local Contribution for L=           1  read in
    real space projection operators read in
  non local Contribution for L=           2  read in
    real space projection operators read in
  non local Contribution for L=           2  read in
    real space projection operators read in
  non local Contribution for L=           3  read in
    real space projection operators read in
  non local Contribution for L=           3  read in
    real space projection operators read in
    PAW grid and wavefunctions read in
 
   number of l-projection  operators is LMAX  =           8
   number of lm-projection operators is LMMAX =          32
 
 POTCAR:    PAW_PBE O 08Apr2002                   
   SHA256 =  818f92134a0a090dccd8ba1447fa70422a3b330e708bb4f08108d8ae51209ddf O/
   COPYR  = (c) Copyright 08Apr2002 Georg Kresse                                
   COPYR  = This file is part of the software VASP. Any use, copying, and all ot
   COPYR  = If you do not have a valid VASP license, you may not use, copy or di
   VRHFIN =O: s2p4                                                              
   LEXCH  = PE                                                                  
   EATOM  =   432.3788 eV,   31.7789 Ry                                         
                                                                                
   TITEL  = PAW_PBE O 08Apr2002                                                 
   LULTRA =        F    use ultrasoft PP ?                                      
   IUNSCR =        1    unscreen: 0-lin 1-nonlin 2-no                           
   RPACOR =    1.200    partial core radius                                     
   POMASS =   16.000; ZVAL   =    6.000    mass and valenz                      
   RCORE  =    1.520    outmost cutoff radius                                   
   RWIGS  =    1.550; RWIGS  =    0.820    wigner-seitz radius (au A)           
   ENMAX  =  400.000; ENMIN  =  300.000 eV                                      
   ICORE  =        2    local potential                                         
   LCOR   =        T    correct aug charges                                     
   LPAW   =        T    paw PP                                                  
   EAUG   =  605.392                                                            
   DEXC   =    0.000                                                            
   RMAX   =    1.553    core radius for proj-oper                               
   RAUG   =    1.300    factor for augmentation sphere                          
   RDEP   =    1.550    radius for radial grids                                 
   RDEPT  =    1.329    core radius for aug-charge                              
                                                                                
   Atomic configuration                                                         
    4 entries                                                                   
     n  l   j            E        occ.                                          
     1  0  0.50      -514.6923   2.0000                                         
     2  0  0.50       -23.9615   2.0000                                         
     2  1  0.50        -9.0305   4.0000                                         
     3  2  1.50        -9.5241   0.0000                                         
   Description                                                                  
     l       E           TYP  RCUT    TYP  RCUT                                 
     0    -23.9615318     23  1.200                                             
     0     -9.5240782     23  1.200                                             
     1     -9.0304911     23  1.520                                             
     1      8.1634956     23  1.520                                             
     2     -9.5240782      7  1.500                                             
  local pseudopotential read in
  partial core-charges read in
  partial kinetic energy density read in
  kinetic energy density of atom read in
  atomic valenz-charges read in
  non local Contribution for L=           0  read in
    real space projection operators read in
  non local Contribution for L=           0  read in
    real space projection operators read in
  non local Contribution for L=           1  read in
    real space projection operators read in
  non local Contribution for L=           1  read in
    real space projection operators read in
    PAW grid and wavefunctions read in
 
   number of l-projection  operators is LMAX  =           4
   number of lm-projection operators is LMMAX =           8
 
  PAW_PBE Eu 23Dec2003                  :
 energy of atom  1       EATOM=-2619.8085
 kinetic energy error for atom=    0.0019 (will be added to EATOM!!)
  PAW_PBE O 08Apr2002                   :
 energy of atom  2       EATOM= -432.3788
 kinetic energy error for atom=    0.0224 (will be added to EATOM!!)
 
 
 POSCAR: Eu1 O1 str #: 4                         
  positions in direct lattice
  No initial velocities read in
 exchange correlation table for  LEXCH =        8
   RHO(1)=    0.500       N(1)  =     2000
   RHO(2)=  100.500       N(2)  =     4000
 


--------------------------------------------------------------------------------------------------------


 ion  position               nearest neighbor table
   1  0.000  0.000  0.000-   4 2.54   3 2.54   3 2.54   4 2.54   3 2.54   4 2.54
   2  0.000  0.500  0.500-   3 2.54   4 2.54   4 2.54   3 2.54   4 2.54   3 2.54
   3  0.500  0.250  0.750-   2 2.54   1 2.54   1 2.54   2 2.54   1 2.54   2 2.54
   4  0.500  0.750  0.250-   1 2.54   2 2.54   2 2.54   1 2.54   2 2.54   1 2.54
 
  LATTYP: Found a trigonal (rhomboedric) cell.
 ALAT       =     6.2226765187
 COS(alpha) =     0.8333417511
  
  Lattice vectors:
  
 A1 = (  -5.3890301000,  -3.1112791000,   0.0000000000)
 A2 = (  -5.3890386000,  -1.0371167000,  -2.9333340000)
 A3 = (  -3.5927775000,  -4.1483958000,  -2.9333340000)


Analysis of symmetry for initial positions (statically):
=====================================================================
 Subroutine PRICEL returns following result:
 
  LATTYP: Found a trigonal (rhomboedric) cell.
 ALAT       =     3.5926389896
 COS(alpha) =     0.5000183251
  
  Lattice vectors:
  
 A1 = (   1.7963845000,   3.1112791000,   0.0000000000)
 A2 = (   1.7963930000,   1.0371167000,   2.9333340000)
 A3 = (   3.5926456000,   0.0000000000,   0.0000000000)
 
   2 primitive cells build up your supercell.
 

 Routine SETGRP: Setting up the symmetry group for a 
 trigonal (rhombohedral) supercell.


 Subroutine GETGRP returns: Found 12 space group operations
 (whereof 12 operations were pure point group operations)
 out of a pool of 12 trial point group operations.


The static configuration has the point symmetry D_3d.


Analysis of symmetry for dynamics (positions and initial velocities):
=====================================================================
 Subroutine PRICEL returns following result:
 
  LATTYP: Found a trigonal (rhomboedric) cell.
 ALAT       =     3.5926389896
 COS(alpha) =     0.5000183251
  
  Lattice vectors:
  
 A1 = (   1.7963845000,   3.1112791000,   0.0000000000)
 A2 = (   1.7963930000,   1.0371167000,   2.9333340000)
 A3 = (   3.5926456000,   0.0000000000,   0.0000000000)
 
   2 primitive cells build up your supercell.
 

 Routine SETGRP: Setting up the symmetry group for a 
 trigonal (rhombohedral) supercell.


 Subroutine GETGRP returns: Found 12 space group operations
 (whereof 12 operations were pure point group operations)
 out of a pool of 12 trial point group operations.


The dynamic configuration has the point symmetry D_3d.


Analysis of structural, dynamic, and magnetic symmetry:
=====================================================================
 Subroutine PRICEL returns following result:
 
  LATTYP: Found a trigonal (rhomboedric) cell.
 ALAT       =     3.5926389896
 COS(alpha) =     0.5000183251
  
  Lattice vectors:
  
 A1 = (   1.7963845000,   3.1112791000,   0.0000000000)
 A2 = (   1.7963930000,   1.0371167000,   2.9333340000)
 A3 = (   3.5926456000,   0.0000000000,   0.0000000000)
 
   2 primitive cells build up your supercell.
 

 Routine SETGRP: Setting up the symmetry group for a 
 trigonal (rhombohedral) supercell.


 Subroutine GETGRP returns: Found 12 space group operations
 (whereof 12 operations were pure point group operations)
 out of a pool of 12 trial point group operations.


The magnetic configuration has the point symmetry D_3d.


 Subroutine INISYM returns: Found 12 space group operations
 (whereof 12 operations are pure point group operations),
 and found     2 'primitive' translations

 
 

Automatic generation of k-mesh.
 generate k-points for:    5    5    3
Space group operators:
 irot       det(A)        alpha          n_x          n_y          n_z        tau_x        tau_y        tau_z
    1     1.000000     0.000000     1.000000     0.000000     0.000000     0.000000     0.000000     0.000000
    2    -1.000000     0.000000     1.000000     0.000000     0.000000     0.000000     0.000000     0.000000
    3     1.000000   180.000000    -0.499990     0.866031     0.000001     0.000000     0.000000     0.000000
    4    -1.000000   180.000000    -0.499990     0.866031     0.000001     0.000000     0.000000     0.000000
    5     1.000000   120.000000     0.816503     0.471398     0.333327     0.000000     0.000000     0.000000
    6    -1.000000   120.000000     0.816503     0.471398     0.333327     0.000000     0.000000     0.000000
    7     1.000000   180.000000    -0.000000     0.577347    -0.816499     0.000000     0.000000     0.000000
    8    -1.000000   180.000000    -0.000000     0.577347    -0.816499     0.000000     0.000000     0.000000
    9     1.000000   120.000000    -0.816505    -0.471397    -0.333322     0.000000     0.000000     0.000000
   10    -1.000000   120.000000    -0.816505    -0.471397    -0.333322     0.000000     0.000000     0.000000
   11     1.000000   180.000000    -0.499990     0.288683     0.816500     0.000000     0.000000     0.000000
   12    -1.000000   180.000000    -0.499990     0.288683     0.816500     0.000000     0.000000     0.000000
 
 Subroutine IBZKPT returns following result:
 ===========================================
 
 Found     24 irreducible k-points:
 
 Following reciprocal coordinates:
            Coordinates               Weight
  0.000000  0.000000  0.000000      1.000000
  0.200000 -0.000000  0.000000      2.000000
  0.400000 -0.000000  0.000000      2.000000
 -0.000000  0.200000  0.000000      4.000000
  0.400000  0.200000  0.000000      4.000000
 -0.400000  0.200000 -0.000000      2.000000
 -0.000000  0.400000  0.000000      4.000000
  0.200000  0.400000  0.000000      2.000000
 -0.400000  0.400000 -0.000000      4.000000
 -0.000000 -0.000000  0.333333      2.000000
  0.200000 -0.000000  0.333333      2.000000
  0.400000 -0.000000  0.333333      2.000000
 -0.400000  0.000000  0.333333      2.000000
 -0.200000 -0.000000  0.333333      2.000000
 -0.000000  0.200000  0.333333      4.000000
  0.200000  0.200000  0.333333      4.000000
  0.400000  0.200000  0.333333      4.000000
 -0.400000  0.200000  0.333333      4.000000
 -0.200000  0.200000  0.333333      4.000000
 -0.000000  0.400000  0.333333      4.000000
  0.200000  0.400000  0.333333      4.000000
  0.400000  0.400000  0.333333      4.000000
 -0.400000  0.400000  0.333333      4.000000
 -0.200000  0.400000  0.333333      4.000000
 
 Following cartesian coordinates:
            Coordinates               Weight
  0.000000  0.000000  0.000000      1.000000
 -0.055669  0.032142  0.022728      2.000000
 -0.111339  0.064284  0.045456      2.000000
  0.027835 -0.048212  0.034091      4.000000
 -0.083504  0.016072  0.079547      4.000000
  0.139173 -0.112497 -0.011365      2.000000
  0.055669 -0.096424  0.068182      4.000000
  0.000000 -0.064282  0.090910      2.000000
  0.167008 -0.160709  0.022726      4.000000
  0.046391  0.026783  0.018938      2.000000
 -0.009278  0.058926  0.041666      2.000000
 -0.064947  0.091068  0.064394      2.000000
  0.157730 -0.037501 -0.026518      2.000000
  0.102060 -0.005359 -0.003790      2.000000
  0.074226 -0.021429  0.053029      4.000000
  0.018556  0.010713  0.075757      4.000000
 -0.037113  0.042856  0.098485      4.000000
  0.185564 -0.085713  0.007573      4.000000
  0.129895 -0.053571  0.030301      4.000000
  0.102060 -0.069641  0.087120      4.000000
  0.046391 -0.037499  0.109848      4.000000
 -0.009278 -0.005357  0.132576      4.000000
  0.213399 -0.133926  0.041664      4.000000
  0.157730 -0.101783  0.064392      4.000000
 


--------------------------------------------------------------------------------------------------------




 Dimension of arrays:
   k-points           NKPTS =     24   k-points in BZ     NKDIM =     24   number of bands    NBANDS=     28
   number of dos      NEDOS =    301   number of ions     NIONS =      4
   non local maximal  LDIM  =      8   non local SUM 2l+1 LMDIM =     32
   total plane-waves  NPLWV =  14400
   max r-space proj   IRMAX =      1   max aug-charges    IRDMAX=  12752
   dimension x,y,z NGX =    20 NGY =   20 NGZ =   36
   dimension x,y,z NGXF=    40 NGYF=   40 NGZF=   72
   support grid    NGXF=    40 NGYF=   40 NGZF=   72
   ions per type =               2   2
   NGX,Y,Z   is equivalent  to a cutoff of   9.25,  9.25,  9.62 a.u.
   NGXF,Y,Z  is equivalent  to a cutoff of  18.51, 18.51, 19.24 a.u.

 SYSTEM =  "EuO"                                   
 POSCAR =  Eu1 O1 str #: 4                         

 Startparameter for this run:
   NWRITE =      2    write-flag & timer
   PREC   = normal    normal or accurate (medium, high low for compatibility)
   ISTART =      0    job   : 0-new  1-cont  2-samecut
   ICHARG =      2    charge: 1-file 2-atom 10-const
   ISPIN  =      2    spin polarized calculation?
   LNONCOLLINEAR =      F non collinear calculations
   LSORBIT =      F    spin-orbit coupling
   INIWAV =      1    electr: 0-lowe 1-rand  2-diag
   LASPH  =      F    aspherical Exc in radial PAW
   METAGGA=      F    non-selfconsistent MetaGGA calc.

 Electronic Relaxation 1
   ENCUT  =  500.0 eV  36.75 Ry    6.06 a.u.   6.55  6.55 11.35*2*pi/ulx,y,z
   ENINI  =  500.0     initial cutoff
   ENAUG  =  605.4 eV  augmentation charge cutoff
   NELM   =     60;   NELMIN=  2; NELMDL= -5     # of ELM steps 
   EDIFF  = 0.1E-05   stopping-criterion for ELM
   LREAL  =      F    real-space projection
   NLSPLINE    = F    spline interpolate recip. space projectors
   LCOMPAT=      F    compatible to vasp.4.4
   GGA_COMPAT  = T    GGA compatible to vasp.4.4-vasp.4.6
   LMAXPAW     = -100 max onsite density
   LMAXMIX     =    2 max onsite mixed and CHGCAR
   VOSKOWN=      0    Vosko Wilk Nusair interpolation
   ROPT   =    0.00000   0.00000
 Ionic relaxation
   EDIFFG = 0.1E-04   stopping-criterion for IOM
   NSW    =      0    number of steps for IOM
   NBLOCK =      1;   KBLOCK =      1    inner block; outer block 
   IBRION =     -1    ionic relax: 0-MD 1-quasi-New 2-CG
   NFREE  =      1    steps in history (QN), initial steepest desc. (CG)
   ISIF   =      2    stress and relaxation
   IWAVPR =     10    prediction:  0-non 1-charg 2-wave 3-comb
   ISYM   =      2    0-nonsym 1-usesym 2-fastsym
   LCORR  =      T    Harris-Foulkes like correction to forces

   POTIM  = 0.5000    time-step for ionic-motion
   TEIN   =    0.0    initial temperature
   TEBEG  =    0.0;   TEEND  =   0.0 temperature during run
   SMASS  =  -3.00    Nose mass-parameter (am)
   estimated Nose-frequenzy (Omega)   =  0.10E-29 period in steps =****** mass=  -0.295E-27a.u.
   SCALEE = 1.0000    scale energy and forces
   NPACO  =    256;   APACO  = 16.0  distance and # of slots for P.C.
   PSTRESS=    0.0 pullay stress

  Mass of Ions in am
   POMASS = 151.97 16.00
  Ionic Valenz
   ZVAL   =  17.00  6.00
  Atomic Wigner-Seitz radii
   RWIGS  =  -1.00 -1.00
  virtual crystal weights 
   VCA    =   1.00  1.00
   NELECT =      46.0000    total number of electrons
   NUPDOWN=      -1.0000    fix difference up-down

 DOS related values:
   EMIN   =  10.00;   EMAX   =-10.00  energy-range for DOS
   EFERMI =   0.00
   ISMEAR =     1;   SIGMA  =   0.10  broadening in eV -4-tet -1-fermi 0-gaus

 Electronic relaxation 2 (details)
   IALGO  =     38    algorithm
   LDIAG  =      T    sub-space diagonalisation (order eigenvalues)
   LSUBROT=      F    optimize rotation matrix (better conditioning)
   TURBO    =      0    0=normal 1=particle mesh
   IRESTART =      0    0=no restart 2=restart with 2 vectors
   NREBOOT  =      0    no. of reboots
   NMIN     =      0    reboot dimension
   EREF     =   0.00    reference energy to select bands
   IMIX   =      4    mixing-type and parameters
     AMIX     =   0.40;   BMIX     =  1.00
     AMIX_MAG =   1.60;   BMIX_MAG =  1.00
     AMIN     =   0.10
     WC   =   100.;   INIMIX=   1;  MIXPRE=   1;  MAXMIX= -45

 Intra band minimization:
   WEIMIN = 0.0000     energy-eigenvalue tresh-hold
   EBREAK =  0.89E-08  absolut break condition
   DEPER  =   0.30     relativ break condition  

   TIME   =   0.40     timestep for ELM

  volume/ion in A,a.u.               =      16.39       110.63
  Fermi-wavevector in a.u.,A,eV,Ry     =   1.454607  2.748810 28.788335  2.115883
  Thomas-Fermi vector in A             =   2.571738
 
 Write flags
   LWAVE        =      F    write WAVECAR
   LDOWNSAMPLE  =      F    k-point downsampling of WAVECAR
   LCHARG       =      F    write CHGCAR
   LVTOT        =      F    write LOCPOT, total local potential
   LVHAR        =      F    write LOCPOT, Hartree potential only
   LELF         =      F    write electronic localiz. function (ELF)
   LORBIT       =     11    0 simple, 1 ext, 2 COOP (PROOUT), +10 PAW based schemes


 Dipole corrections
   LMONO  =      F    monopole corrections only (constant potential shift)
   LDIPOL =      F    correct potential (dipole corrections)
   IDIPOL =      0    1-x, 2-y, 3-z, 4-all directions 
   EPSILON=  1.0000000 bulk dielectric constant

 Exchange correlation treatment:
   GGA     =    --    GGA type
   LEXCH   =     8    internal setting for exchange type
   VOSKOWN=      0    Vosko Wilk Nusair interpolation
   LHFCALC =     F    Hartree Fock is set to
   LHFONE  =     F    Hartree Fock one center treatment
   AEXX    =    0.0000 exact exchange contribution

 Linear response parameters
   LEPSILON=     F    determine dielectric tensor
   LRPA    =     F    only Hartree local field effects (RPA)
   LNABLA  =     F    use nabla operator in PAW spheres
   LVEL    =     F    velocity operator in full k-point grid
   LINTERFAST=   F  fast interpolation
   KINTER  =     0    interpolate to denser k-point grid
   CSHIFT  =0.1000    complex shift for real part using Kramers Kronig
   OMEGAMAX=  -1.0    maximum frequency
   DEG_THRESHOLD= 0.2000000E-02 threshold for treating states as degnerate
   RTIME   =   -0.100 relaxation time in fs
  (WPLASMAI=    0.000 imaginary part of plasma frequency in eV, 0.658/RTIME)
   DFIELD  = 0.0000000 0.0000000 0.0000000 field for delta impulse in time
 
 Orbital magnetization related:
   ORBITALMAG=     F  switch on orbital magnetization
   LCHIMAG   =     F  perturbation theory with respect to B field
   DQ        =  0.001000  dq finite difference perturbation B field
   LLRAUG    =     F  two centre corrections for induced B field



--------------------------------------------------------------------------------------------------------


 Static calculation
 charge density and potential will be updated during run
 spin polarized calculation
 Variant of blocked Davidson
 Davidson routine will perform the subspace rotation
 perform sub-space diagonalisation
    after iterative eigenvector-optimisation
 modified Broyden-mixing scheme, WC =      100.0
 initial mixing is a Kerker type mixing with AMIX =  0.4000 and BMIX =      1.0000
 Hartree-type preconditioning will be used
 using additional bands            5
 reciprocal scheme for non local part
 use partial core corrections
 calculate Harris-corrections to forces 
   (improved forces if not selfconsistent)
 use gradient corrections 
 use of overlap-Matrix (Vanderbilt PP)
 Methfessel and Paxton  Order N= 1 SIGMA  =   0.10


--------------------------------------------------------------------------------------------------------


  energy-cutoff  :      500.00
  volume of cell :       65.58
      direct lattice vectors                 reciprocal lattice vectors
    -1.796252600  1.037116700  2.933334000    -0.278346409  0.160711128  0.113639751
     0.000008500 -2.074162400  2.933334000     0.139173204 -0.241061172  0.170454097
     3.592777500  4.148395800  2.933334000     0.139173204  0.080350044  0.056815166

  length of vectors
     3.592573285  3.592575402  6.222675167     0.340908760  0.326395877  0.170450208


 
 k-points in units of 2pi/SCALE and weight: read from INCAR                         
   0.00000000  0.00000000  0.00000000       0.013
  -0.05566928  0.03214223  0.02272795       0.027
  -0.11133856  0.06428445  0.04545590       0.027
   0.02783464 -0.04821223  0.03409082       0.053
  -0.08350392  0.01607222  0.07954672       0.053
   0.13917320 -0.11249669 -0.01136508       0.027
   0.05566928 -0.09642447  0.06818164       0.053
   0.00000000 -0.06428224  0.09090959       0.027
   0.16700785 -0.16070892  0.02272574       0.053
   0.04639107  0.02678335  0.01893839       0.027
  -0.00927821  0.05892557  0.04166634       0.027
  -0.06494750  0.09106780  0.06439429       0.027
   0.15772963 -0.03750110 -0.02651751       0.027
   0.10206035 -0.00535888 -0.00378956       0.027
   0.07422571 -0.02142889  0.05302921       0.053
   0.01855643  0.01071334  0.07575716       0.053
  -0.03711285  0.04285556  0.09848511       0.053
   0.18556427 -0.08571334  0.00757331       0.053
   0.12989499 -0.05357111  0.03030126       0.053
   0.10206035 -0.06964112  0.08712003       0.053
   0.04639107 -0.03749890  0.10984798       0.053
  -0.00927821 -0.00535667  0.13257593       0.053
   0.21339891 -0.13392557  0.04166413       0.053
   0.15772963 -0.10178335  0.06439208       0.053
 
 k-points in reciprocal lattice and weights: read from INCAR                         
   0.00000000  0.00000000  0.00000000       0.013
   0.20000000 -0.00000000  0.00000000       0.027
   0.40000000 -0.00000000  0.00000000       0.027
  -0.00000000  0.20000000  0.00000000       0.053
   0.40000000  0.20000000  0.00000000       0.053
  -0.40000000  0.20000000 -0.00000000       0.027
  -0.00000000  0.40000000  0.00000000       0.053
   0.20000000  0.40000000  0.00000000       0.027
  -0.40000000  0.40000000 -0.00000000       0.053
  -0.00000000 -0.00000000  0.33333333       0.027
   0.20000000 -0.00000000  0.33333333       0.027
   0.40000000 -0.00000000  0.33333333       0.027
  -0.40000000  0.00000000  0.33333333       0.027
  -0.20000000 -0.00000000  0.33333333       0.027
  -0.00000000  0.20000000  0.33333333       0.053
   0.20000000  0.20000000  0.33333333       0.053
   0.40000000  0.20000000  0.33333333       0.053
  -0.40000000  0.20000000  0.33333333       0.053
  -0.20000000  0.20000000  0.33333333       0.053
  -0.00000000  0.40000000  0.33333333       0.053
   0.20000000  0.40000000  0.33333333       0.053
   0.40000000  0.40000000  0.33333333       0.053
  -0.40000000  0.40000000  0.33333333       0.053
  -0.20000000  0.40000000  0.33333333       0.053
 
 position of ions in fractional coordinates (direct lattice) 
   0.00000000  0.00000000  0.00000000
   0.00000000  0.50000000  0.50000000
   0.49999995  0.25000006  0.75000002
   0.49999995  0.75000006  0.25000002
 
 position of ions in cartesian coordinates  (Angst):
   0.00000000  0.00000000  0.00000000
   1.79639300  1.03711670  2.93333400
   1.79645910  3.11131450  4.40000110
   0.00007460  0.00003540  4.40000110
 


--------------------------------------------------------------------------------------------------------


 k-point  1 :   0.0000 0.0000 0.0000  plane waves:    1701
 k-point  2 :   0.2000-0.0000 0.0000  plane waves:    1659
 k-point  3 :   0.4000-0.0000 0.0000  plane waves:    1644
 k-point  4 :  -0.0000 0.2000 0.0000  plane waves:    1688
 k-point  5 :   0.4000 0.2000 0.0000  plane waves:    1664
 k-point  6 :  -0.4000 0.2000-0.0000  plane waves:    1646
 k-point  7 :  -0.0000 0.4000 0.0000  plane waves:    1666
 k-point  8 :   0.2000 0.4000 0.0000  plane waves:    1663
 k-point  9 :  -0.4000 0.4000-0.0000  plane waves:    1659
 k-point 10 :  -0.0000-0.0000 0.3333  plane waves:    1678
 k-point 11 :   0.2000-0.0000 0.3333  plane waves:    1679
 k-point 12 :   0.4000-0.0000 0.3333  plane waves:    1653
 k-point 13 :  -0.4000 0.0000 0.3333  plane waves:    1659
 k-point 14 :  -0.2000-0.0000 0.3333  plane waves:    1670
 k-point 15 :  -0.0000 0.2000 0.3333  plane waves:    1673
 k-point 16 :   0.2000 0.2000 0.3333  plane waves:    1667
 k-point 17 :   0.4000 0.2000 0.3333  plane waves:    1665
 k-point 18 :  -0.4000 0.2000 0.3333  plane waves:    1659
 k-point 19 :  -0.2000 0.2000 0.3333  plane waves:    1659
 k-point 20 :  -0.0000 0.4000 0.3333  plane waves:    1661
 k-point 21 :   0.2000 0.4000 0.3333  plane waves:    1666
 k-point 22 :   0.4000 0.4000 0.3333  plane waves:    1658
 k-point 23 :  -0.4000 0.4000 0.3333  plane waves:    1658
 k-point 24 :  -0.2000 0.4000 0.3333  plane waves:    1657

 maximum and minimum number of plane-waves per node :       439      397

 maximum number of plane-waves:      1701
 maximum index in each direction: 
   IXMAX=    6   IYMAX=    6   IZMAX=   11
   IXMIN=   -6   IYMIN=   -6   IZMIN=  -11


 parallel 3D FFT for wavefunctions:
    minimum data exchange during FFTs selected (reduces bandwidth)
 parallel 3D FFT for charge:
    minimum data exchange during FFTs selected (reduces bandwidth)


 total amount of memory used by VASP MPI-rank0    42174. kBytes
=======================================================================

   base      :      30000. kBytes
   nonl-proj :       5163. kBytes
   fftplans  :        607. kBytes
   grid      :       1468. kBytes
   one-center:         98. kBytes
   wavefun   :       4838. kBytes
 
     INWAV:  cpu time    0.0000: real time    0.0001
 Broyden mixing: mesh for mixing (old mesh)
   NGX = 13   NGY = 13   NGZ = 23
  (NGX  = 40   NGY  = 40   NGZ  = 72)
  gives a total of   3887 points

 initial charge density was supplied:
 charge density of overlapping atoms calculated
 number of electron      46.0000000 magnetization       0.0000000
 keeping initial charge density in first step


--------------------------------------------------------------------------------------------------------


 Maximum index for augmentation-charges         1439 (set IRDMAX)


--------------------------------------------------------------------------------------------------------


 First call to EWALD:  gamma=   0.440
 Maximum number of real-space cells 4x 3x 2
 Maximum number of reciprocal cells 3x 3x 4

    FEWALD:  cpu time    0.0012: real time    0.0013


--------------------------------------- Iteration      1(   1)  ---------------------------------------


    POTLOK:  cpu time    0.0185: real time    0.0214
    SETDIJ:  cpu time    0.0089: real time    0.0089
     EDDAV:  cpu time    0.5897: real time    0.6122
       DOS:  cpu time    0.0017: real time    0.0017
    --------------------------------------------
      LOOP:  cpu time    0.6188: real time    0.6442

 eigenvalue-minimisations  :  3156
 total energy-change (2. order) : 0.4450153E+03  (-0.1806314E+04)
 number of electron      46.0000000 magnetization       0.0000000
 augmentation part       46.0000000 magnetization       0.0000000

 Free energy of the ion-electron system (eV)
  ---------------------------------------------------
  alpha Z        PSCENC =       453.10565554
  Ewald energy   TEWEN  =     -4853.25068260
  -Hartree energ DENC   =     -1394.95400397
  -exchange      EXHF   =         0.00000000
  -V(xc)+E(xc)   XCENC  =       227.31531201
  PAW double counting   =      5122.54265185    -5413.80328534
  entropy T*S    EENTRO =        -0.00172402
  eigenvalues    EBANDS =       199.73520950
  atomic energy  EATOM  =      6104.32616516
  Solvation  Ediel_sol  =         0.00000000
  ---------------------------------------------------
  free energy    TOTEN  =       445.01529813 eV

  energy without entropy =      445.01702216  energy(sigma->0) =      445.01587281


--------------------------------------------------------------------------------------------------------




--------------------------------------- Iteration      1(   2)  ---------------------------------------


     EDDAV:  cpu time    0.6573: real time    0.6601
       DOS:  cpu time    0.0017: real time    0.0017
    --------------------------------------------
      LOOP:  cpu time    0.6590: real time    0.6618

 eigenvalue-minimisations  :  3648
 total energy-change (2. order) :-0.3908567E+03  (-0.3662900E+03)
 number of electron      46.0000000 magnetization       0.0000000
 augmentation part       46.0000000 magnetization       0.0000000

 Free energy of the ion-electron system (eV)
  ---------------------------------------------------
  alpha Z        PSCENC =       453.10565554
  Ewald energy   TEWEN  =     -4853.25068260
  -Hartree energ DENC   =     -1394.95400397
  -exchange      EXHF   =         0.00000000
  -V(xc)+E(xc)   XCENC  =       227.31531201
  PAW double counting   =      5122.54265185    -5413.80328534
  entropy T*S    EENTRO =         0.00114613
  eigenvalues    EBANDS =      -191.12438005
  atomic energy  EATOM  =      6104.32616516
  Solvation  Ediel_sol  =         0.00000000
  ---------------------------------------------------
  free energy    TOTEN  =        54.15857874 eV

  energy without entropy =       54.15743261  energy(sigma->0) =       54.15819670


--------------------------------------------------------------------------------------------------------




--------------------------------------- Iteration      1(   3)  ---------------------------------------


     EDDAV:  cpu time    0.7919: real time    0.7939
       DOS:  cpu time    0.0020: real time    0.0020
    --------------------------------------------
      LOOP:  cpu time    0.7939: real time    0.7959

 eigenvalue-minimisations  :  4556
 total energy-change (2. order) :-0.9095729E+02  (-0.8917371E+02)
 number of electron      46.0000000 magnetization       0.0000000
 augmentation part       46.0000000 magnetization       0.0000000

 Free energy of the ion-electron system (eV)
  ---------------------------------------------------
  alpha Z        PSCENC =       453.10565554
  Ewald energy   TEWEN  =     -4853.25068260
  -Hartree energ DENC   =     -1394.95400397
  -exchange      EXHF   =         0.00000000
  -V(xc)+E(xc)   XCENC  =       227.31531201
  PAW double counting   =      5122.54265185    -5413.80328534
  entropy T*S    EENTRO =         0.00400212
  eigenvalues    EBANDS =      -282.08452466
  atomic energy  EATOM  =      6104.32616516
  Solvation  Ediel_sol  =         0.00000000
  ---------------------------------------------------
  free energy    TOTEN  =       -36.79870988 eV

  energy without entropy =      -36.80271201  energy(sigma->0) =      -36.80004392


--------------------------------------------------------------------------------------------------------




--------------------------------------- Iteration      1(   4)  ---------------------------------------


     EDDAV:  cpu time    0.8164: real time    0.8184
       DOS:  cpu time    0.0020: real time    0.0020
    --------------------------------------------
      LOOP:  cpu time    0.8184: real time    0.8205

 eigenvalue-minimisations  :  4728
 total energy-change (2. order) :-0.7403891E+01  (-0.7042416E+01)
 number of electron      46.0000000 magnetization       0.0000000
 augmentation part       46.0000000 magnetization       0.0000000

 Free energy of the ion-electron system (eV)
  ---------------------------------------------------
  alpha Z        PSCENC =       453.10565554
  Ewald energy   TEWEN  =     -4853.25068260
  -Hartree energ DENC   =     -1394.95400397
  -exchange      EXHF   =         0.00000000
  -V(xc)+E(xc)   XCENC  =       227.31531201
  PAW double counting   =      5122.54265185    -5413.80328534
  entropy T*S    EENTRO =        -0.01001600
  eigenvalues    EBANDS =      -289.47439762
  atomic energy  EATOM  =      6104.32616516
  Solvation  Ediel_sol  =         0.00000000
  ---------------------------------------------------
  free energy    TOTEN  =       -44.20260096 eV

  energy without entropy =      -44.19258496  energy(sigma->0) =      -44.19926229


--------------------------------------------------------------------------------------------------------




--------------------------------------- Iteration      1(   5)  ---------------------------------------


     EDDAV:  cpu time    0.8546: real time    0.8568
       DOS:  cpu time    0.0020: real time    0.0020
    CHARGE:  cpu time    0.0454: real time    0.0455
    MIXING:  cpu time    0.0005: real time    0.0006
    --------------------------------------------
      LOOP:  cpu time    0.9025: real time    0.9048

 eigenvalue-minimisations  :  4936
 total energy-change (2. order) :-0.8151392E+00  (-0.7610659E+00)
 number of electron      45.9999978 magnetization       0.0000000
 augmentation part        8.7056266 magnetization       0.0000000

 Broyden mixing:
  rms(total) = 0.26785E+01    rms(broyden)= 0.26783E+01
  rms(prec ) = 0.49336E+01
  weight for this iteration     100.00

 Free energy of the ion-electron system (eV)
  ---------------------------------------------------
  alpha Z        PSCENC =       453.10565554
  Ewald energy   TEWEN  =     -4853.25068260
  -Hartree energ DENC   =     -1394.95400397
  -exchange      EXHF   =         0.00000000
  -V(xc)+E(xc)   XCENC  =       227.31531201
  PAW double counting   =      5122.54265185    -5413.80328534
  entropy T*S    EENTRO =        -0.00888841
  eigenvalues    EBANDS =      -290.29066445
  atomic energy  EATOM  =      6104.32616516
  Solvation  Ediel_sol  =         0.00000000
  ---------------------------------------------------
  free energy    TOTEN  =       -45.01774019 eV

  energy without entropy =      -45.00885179  energy(sigma->0) =      -45.01477739


--------------------------------------------------------------------------------------------------------




--------------------------------------- Iteration      1(   6)  ---------------------------------------


    POTLOK:  cpu time    0.0159: real time    0.0160
    SETDIJ:  cpu time    0.0081: real time    0.0081
     EDDAV:  cpu time    0.7768: real time    0.7787
       DOS:  cpu time    0.0018: real time    0.0018
    CHARGE:  cpu time    0.0444: real time    0.0445
    MIXING:  cpu time    0.0006: real time    0.0006
    --------------------------------------------
      LOOP:  cpu time    0.8476: real time    0.8497

 eigenvalue-minimisations  :  4408
 total energy-change (2. order) :-0.4019525E+02  (-0.6644480E+02)
 number of electron      46.0000041 magnetization      -0.0000000
 augmentation part       22.4474282 magnetization      -0.0000000

 Broyden mixing:
  rms(total) = 0.10795E+02    rms(broyden)= 0.10794E+02
  rms(prec ) = 0.17628E+02
  weight for this iteration     100.00

 eigenvalues of (default mixing * dielectric matrix)
  average eigenvalue GAMMA=   0.1461
  0.1461

 Free energy of the ion-electron system (eV)
  ---------------------------------------------------
  alpha Z        PSCENC =       453.10565554
  Ewald energy   TEWEN  =     -4853.25068260
  -Hartree energ DENC   =     -1269.36523837
  -exchange      EXHF   =         0.00000000
  -V(xc)+E(xc)   XCENC  =       223.80980845
  PAW double counting   =      4939.07601915    -5174.75162309
  entropy T*S    EENTRO =         0.00032635
  eigenvalues    EBANDS =      -508.16342236
  atomic energy  EATOM  =      6104.32616516
  Solvation  Ediel_sol  =         0.00000000
  ---------------------------------------------------
  free energy    TOTEN  =       -85.21299176 eV

  energy without entropy =      -85.21331811  energy(sigma->0) =      -85.21310054


--------------------------------------------------------------------------------------------------------




--------------------------------------- Iteration      1(   7)  ---------------------------------------


    POTLOK:  cpu time    0.0153: real time    0.0155
    SETDIJ:  cpu time    0.0079: real time    0.0079
     EDDAV:  cpu time    0.7515: real time    0.7533
       DOS:  cpu time    0.0017: real time    0.0017
    CHARGE:  cpu time    0.0439: real time    0.0440
    MIXING:  cpu time    0.0006: real time    0.0006
    --------------------------------------------
      LOOP:  cpu time    0.8209: real time    0.8230

 eigenvalue-minimisations  :  4280
 total energy-change (2. order) : 0.5656561E+02  (-0.4671646E+02)
 number of electron      45.9999989 magnetization      -0.0000000
 augmentation part       10.7083679 magnetization      -0.0000000

 Broyden mixing:
  rms(total) = 0.26004E+01    rms(broyden)= 0.26000E+01
  rms(prec ) = 0.26812E+01
  weight for this iteration     100.00

 eigenvalues of (default mixing * dielectric matrix)
  average eigenvalue GAMMA=   0.2183
  0.2183  0.2183

 Free energy of the ion-electron system (eV)
  ---------------------------------------------------
  alpha Z        PSCENC =       453.10565554
  Ewald energy   TEWEN  =     -4853.25068260
  -Hartree energ DENC   =     -1356.52053144
  -exchange      EXHF   =         0.00000000
  -V(xc)+E(xc)   XCENC  =       224.30403457
  PAW double counting   =      5162.97118227    -5452.71423176
  entropy T*S    EENTRO =        -0.00063711
  eigenvalues    EBANDS =      -310.86834026
  atomic energy  EATOM  =      6104.32616516
  Solvation  Ediel_sol  =         0.00000000
  ---------------------------------------------------
  free energy    TOTEN  =       -28.64738564 eV

  energy without entropy =      -28.64674852  energy(sigma->0) =      -28.64717327


--------------------------------------------------------------------------------------------------------




--------------------------------------- Iteration      1(   8)  ---------------------------------------


    POTLOK:  cpu time    0.0151: real time    0.0152
    SETDIJ:  cpu time    0.0077: real time    0.0077
     EDDAV:  cpu time    0.7531: real time    0.7550
       DOS:  cpu time    0.0019: real time    0.0020
    CHARGE:  cpu time    0.0474: real time    0.0475
    MIXING:  cpu time    0.0007: real time    0.0007
    --------------------------------------------
      LOOP:  cpu time    0.8259: real time    0.8280

 eigenvalue-minimisations  :  4308
 total energy-change (2. order) :-0.1241344E+02  (-0.9429414E+01)
 number of electron      45.9999982 magnetization       0.0000000
 augmentation part       12.0611629 magnetization       0.0000000

 Broyden mixing:
  rms(total) = 0.20463E+01    rms(broyden)= 0.20461E+01
  rms(prec ) = 0.23104E+01
  weight for this iteration     100.00

 eigenvalues of (default mixing * dielectric matrix)
  average eigenvalue GAMMA=   0.3462
  0.4169  0.4169  0.2047

 Free energy of the ion-electron system (eV)
  ---------------------------------------------------
  alpha Z        PSCENC =       453.10565554
  Ewald energy   TEWEN  =     -4853.25068260
  -Hartree energ DENC   =     -1352.21709816
  -exchange      EXHF   =         0.00000000
  -V(xc)+E(xc)   XCENC  =       225.51087272
  PAW double counting   =      5183.77692407    -5474.37055478
  entropy T*S    EENTRO =         0.00067190
  eigenvalues    EBANDS =      -327.94277512
  atomic energy  EATOM  =      6104.32616516
  Solvation  Ediel_sol  =         0.00000000
  ---------------------------------------------------
  free energy    TOTEN  =       -41.06082127 eV

  energy without entropy =      -41.06149316  energy(sigma->0) =      -41.06104523


--------------------------------------------------------------------------------------------------------




--------------------------------------- Iteration      1(   9)  ---------------------------------------


    POTLOK:  cpu time    0.0156: real time    0.0158
    SETDIJ:  cpu time    0.0079: real time    0.0080
     EDDAV:  cpu time    0.7567: real time    0.7585
       DOS:  cpu time    0.0020: real time    0.0020
    CHARGE:  cpu time    0.0421: real time    0.0422
    MIXING:  cpu time    0.0007: real time    0.0007
    --------------------------------------------
      LOOP:  cpu time    0.8250: real time    0.8271

 eigenvalue-minimisations  :  4344
 total energy-change (2. order) :-0.3890206E+00  (-0.8872345E+00)
 number of electron      45.9999983 magnetization       0.0000000
 augmentation part       11.4700733 magnetization       0.0000000

 Broyden mixing:
  rms(total) = 0.12090E+01    rms(broyden)= 0.12090E+01
  rms(prec ) = 0.14792E+01
  weight for this iteration     100.00

 eigenvalues of (default mixing * dielectric matrix)
  average eigenvalue GAMMA=   0.5316
  0.7961  0.2004  0.5650  0.5650

 Free energy of the ion-electron system (eV)
  ---------------------------------------------------
  alpha Z        PSCENC =       453.10565554
  Ewald energy   TEWEN  =     -4853.25068260
  -Hartree energ DENC   =     -1374.15018454
  -exchange      EXHF   =         0.00000000
  -V(xc)+E(xc)   XCENC  =       227.94031360
  PAW double counting   =      5212.40832798    -5511.71076819
  entropy T*S    EENTRO =         0.00819473
  eigenvalues    EBANDS =      -300.12686359
  atomic energy  EATOM  =      6104.32616516
  Solvation  Ediel_sol  =         0.00000000
  ---------------------------------------------------
  free energy    TOTEN  =       -41.44984191 eV

  energy without entropy =      -41.45803665  energy(sigma->0) =      -41.45257349


--------------------------------------------------------------------------------------------------------




--------------------------------------- Iteration      1(  10)  ---------------------------------------


    POTLOK:  cpu time    0.0153: real time    0.0157
    SETDIJ:  cpu time    0.0077: real time    0.0077
     EDDAV:  cpu time    0.8567: real time    0.8587
       DOS:  cpu time    0.0019: real time    0.0019
    CHARGE:  cpu time    0.0459: real time    0.0460
    MIXING:  cpu time    0.0007: real time    0.0007
    --------------------------------------------
      LOOP:  cpu time    0.9283: real time    0.9308

 eigenvalue-minimisations  :  4992
 total energy-change (2. order) :-0.2310846E+00  (-0.1917779E+00)
 number of electron      45.9999984 magnetization       0.0000000
 augmentation part       11.1174283 magnetization       0.0000000

 Broyden mixing:
  rms(total) = 0.78762E+00    rms(broyden)= 0.78761E+00
  rms(prec ) = 0.10943E+01
  weight for this iteration     100.00

 eigenvalues of (default mixing * dielectric matrix)
  average eigenvalue GAMMA=   0.6028
  0.9014  0.9014  0.2008  0.5052  0.5052

 Free energy of the ion-electron system (eV)
  ---------------------------------------------------
  alpha Z        PSCENC =       453.10565554
  Ewald energy   TEWEN  =     -4853.25068260
  -Hartree energ DENC   =     -1383.10147878
  -exchange      EXHF   =         0.00000000
  -V(xc)+E(xc)   XCENC  =       229.83404957
  PAW double counting   =      5230.55924930    -5537.77438259
  entropy T*S    EENTRO =         0.00375733
  eigenvalues    EBANDS =      -285.38325943
  atomic energy  EATOM  =      6104.32616516
  Solvation  Ediel_sol  =         0.00000000
  ---------------------------------------------------
  free energy    TOTEN  =       -41.68092650 eV

  energy without entropy =      -41.68468383  energy(sigma->0) =      -41.68217895


--------------------------------------------------------------------------------------------------------




--------------------------------------- Iteration      1(  11)  ---------------------------------------


    POTLOK:  cpu time    0.0153: real time    0.0154
    SETDIJ:  cpu time    0.0077: real time    0.0078
     EDDAV:  cpu time    0.8800: real time    0.8821
       DOS:  cpu time    0.0019: real time    0.0019
    CHARGE:  cpu time    0.0487: real time    0.0488
    MIXING:  cpu time    0.0007: real time    0.0007
    --------------------------------------------
      LOOP:  cpu time    0.9543: real time    0.9567

 eigenvalue-minimisations  :  5128
 total energy-change (2. order) :-0.1962787E-01  (-0.4677299E-01)
 number of electron      45.9999985 magnetization      -0.0000000
 augmentation part       11.2084781 magnetization      -0.0000000

 Broyden mixing:
  rms(total) = 0.51924E+00    rms(broyden)= 0.51923E+00
  rms(prec ) = 0.73916E+00
  weight for this iteration     100.00

 eigenvalues of (default mixing * dielectric matrix)
  average eigenvalue GAMMA=   0.8350
  1.9782  1.1456  0.2006  0.5168  0.5168  0.6518

 Free energy of the ion-electron system (eV)
  ---------------------------------------------------
  alpha Z        PSCENC =       453.10565554
  Ewald energy   TEWEN  =     -4853.25068260
  -Hartree energ DENC   =     -1383.59618647
  -exchange      EXHF   =         0.00000000
  -V(xc)+E(xc)   XCENC  =       230.70577848
  PAW double counting   =      5242.98174040    -5552.41551812
  entropy T*S    EENTRO =         0.00156776
  eigenvalues    EBANDS =      -283.55907453
  atomic energy  EATOM  =      6104.32616516
  Solvation  Ediel_sol  =         0.00000000
  ---------------------------------------------------
  free energy    TOTEN  =       -41.70055438 eV

  energy without entropy =      -41.70212213  energy(sigma->0) =      -41.70107696


--------------------------------------------------------------------------------------------------------




--------------------------------------- Iteration      1(  12)  ---------------------------------------


    POTLOK:  cpu time    0.0153: real time    0.0155
    SETDIJ:  cpu time    0.0077: real time    0.0077
     EDDAV:  cpu time    0.7116: real time    0.7133
       DOS:  cpu time    0.0021: real time    0.0022
    CHARGE:  cpu time    0.0542: real time    0.0544
    MIXING:  cpu time    0.0009: real time    0.0009
    --------------------------------------------
      LOOP:  cpu time    0.7920: real time    0.7939

 eigenvalue-minimisations  :  4000
 total energy-change (2. order) : 0.8243524E-01  (-0.1060215E+00)
 number of electron      45.9999988 magnetization       0.0000000
 augmentation part       11.5595615 magnetization       0.0000000

 Broyden mixing:
  rms(total) = 0.18372E+00    rms(broyden)= 0.18370E+00
  rms(prec ) = 0.24487E+00
  weight for this iteration     100.00

 eigenvalues of (default mixing * dielectric matrix)
  average eigenvalue GAMMA=   0.9428
  2.8825  1.1575  0.2006  0.5224  0.5224  0.6570  0.6570

 Free energy of the ion-electron system (eV)
  ---------------------------------------------------
  alpha Z        PSCENC =       453.10565554
  Ewald energy   TEWEN  =     -4853.25068260
  -Hartree energ DENC   =     -1378.98386857
  -exchange      EXHF   =         0.00000000
  -V(xc)+E(xc)   XCENC  =       232.12710602
  PAW double counting   =      5265.74684512    -5576.14395380
  entropy T*S    EENTRO =         0.00646493
  eigenvalues    EBANDS =      -288.55185094
  atomic energy  EATOM  =      6104.32616516
  Solvation  Ediel_sol  =         0.00000000
  ---------------------------------------------------
  free energy    TOTEN  =       -41.61811914 eV

  energy without entropy =      -41.62458407  energy(sigma->0) =      -41.62027412


--------------------------------------------------------------------------------------------------------




--------------------------------------- Iteration      1(  13)  ---------------------------------------


    POTLOK:  cpu time    0.0175: real time    0.0176
    SETDIJ:  cpu time    0.0089: real time    0.0089
     EDDAV:  cpu time    1.0816: real time    1.0845
       DOS:  cpu time    0.0022: real time    0.0022
    CHARGE:  cpu time    0.0468: real time    0.0469
    MIXING:  cpu time    0.0009: real time    0.0009
    --------------------------------------------
      LOOP:  cpu time    1.1578: real time    1.1610

 eigenvalue-minimisations  :  5272
 total energy-change (2. order) :-0.2556850E-02  (-0.2061055E-01)
 number of electron      45.9999989 magnetization       0.0000000
 augmentation part       11.6602775 magnetization       0.0000000

 Broyden mixing:
  rms(total) = 0.16829E+00    rms(broyden)= 0.16829E+00
  rms(prec ) = 0.23539E+00
  weight for this iteration     100.00

 eigenvalues of (default mixing * dielectric matrix)
  average eigenvalue GAMMA=   0.9539
  3.1257  1.1949  0.2006  0.5193  0.5193  0.7642  0.7642  0.5429

 Free energy of the ion-electron system (eV)
  ---------------------------------------------------
  alpha Z        PSCENC =       453.10565554
  Ewald energy   TEWEN  =     -4853.25068260
  -Hartree energ DENC   =     -1377.41532291
  -exchange      EXHF   =         0.00000000
  -V(xc)+E(xc)   XCENC  =       232.55606411
  PAW double counting   =      5271.08582423    -5580.60656419
  entropy T*S    EENTRO =         0.00768401
  eigenvalues    EBANDS =      -291.42949933
  atomic energy  EATOM  =      6104.32616516
  Solvation  Ediel_sol  =         0.00000000
  ---------------------------------------------------
  free energy    TOTEN  =       -41.62067599 eV

  energy without entropy =      -41.62836000  energy(sigma->0) =      -41.62323732


--------------------------------------------------------------------------------------------------------




--------------------------------------- Iteration      1(  14)  ---------------------------------------


    POTLOK:  cpu time    0.0175: real time    0.0176
    SETDIJ:  cpu time    0.0089: real time    0.0089
     EDDAV:  cpu time    0.7508: real time    0.7526
       DOS:  cpu time    0.0022: real time    0.0022
    CHARGE:  cpu time    0.0473: real time    0.0474
    MIXING:  cpu time    0.0011: real time    0.0011
    --------------------------------------------
      LOOP:  cpu time    0.8278: real time    0.8298

 eigenvalue-minimisations  :  3500
 total energy-change (2. order) : 0.3651734E-02  (-0.1355758E-02)
 number of electron      45.9999989 magnetization      -0.0000000
 augmentation part       11.6884159 magnetization      -0.0000000

 Broyden mixing:
  rms(total) = 0.16233E+00    rms(broyden)= 0.16233E+00
  rms(prec ) = 0.22425E+00
  weight for this iteration     100.00

 eigenvalues of (default mixing * dielectric matrix)
  average eigenvalue GAMMA=   1.0130
  3.3022  1.2208  1.2208  0.2006  0.5192  0.5192  0.8454  0.6446  0.6446

 Free energy of the ion-electron system (eV)
  ---------------------------------------------------
  alpha Z        PSCENC =       453.10565554
  Ewald energy   TEWEN  =     -4853.25068260
  -Hartree energ DENC   =     -1377.28731913
  -exchange      EXHF   =         0.00000000
  -V(xc)+E(xc)   XCENC  =       232.65007269
  PAW double counting   =      5274.12808476    -5582.91876810
  entropy T*S    EENTRO =         0.00841857
  eigenvalues    EBANDS =      -292.37865115
  atomic energy  EATOM  =      6104.32616516
  Solvation  Ediel_sol  =         0.00000000
  ---------------------------------------------------
  free energy    TOTEN  =       -41.61702426 eV

  energy without entropy =      -41.62544282  energy(sigma->0) =      -41.61983044


--------------------------------------------------------------------------------------------------------




--------------------------------------- Iteration      1(  15)  ---------------------------------------


    POTLOK:  cpu time    0.0183: real time    0.0184
    SETDIJ:  cpu time    0.0089: real time    0.0089
     EDDAV:  cpu time    0.9370: real time    0.9392
       DOS:  cpu time    0.0021: real time    0.0021
    CHARGE:  cpu time    0.0475: real time    0.0476
    MIXING:  cpu time    0.0011: real time    0.0011
    --------------------------------------------
      LOOP:  cpu time    1.0148: real time    1.0174

 eigenvalue-minimisations  :  4588
 total energy-change (2. order) : 0.1033200E-01  (-0.2559967E-02)
 number of electron      45.9999988 magnetization      -0.0000000
 augmentation part       11.7213345 magnetization      -0.0000000

 Broyden mixing:
  rms(total) = 0.14154E+00    rms(broyden)= 0.14153E+00
  rms(prec ) = 0.17999E+00
  weight for this iteration     100.00

 eigenvalues of (default mixing * dielectric matrix)
  average eigenvalue GAMMA=   1.1273
  3.0633  2.0549  2.0549  0.2006  0.5195  0.5195  0.7913  0.7913  0.6390  0.6390

 Free energy of the ion-electron system (eV)
  ---------------------------------------------------
  alpha Z        PSCENC =       453.10565554
  Ewald energy   TEWEN  =     -4853.25068260
  -Hartree energ DENC   =     -1377.45248587
  -exchange      EXHF   =         0.00000000
  -V(xc)+E(xc)   XCENC  =       232.73729754
  PAW double counting   =      5282.87902468    -5590.38465089
  entropy T*S    EENTRO =         0.00951190
  eigenvalues    EBANDS =      -293.57652773
  atomic energy  EATOM  =      6104.32616516
  Solvation  Ediel_sol  =         0.00000000
  ---------------------------------------------------
  free energy    TOTEN  =       -41.60669226 eV

  energy without entropy =      -41.61620416  energy(sigma->0) =      -41.60986289


--------------------------------------------------------------------------------------------------------




--------------------------------------- Iteration      1(  16)  ---------------------------------------


    POTLOK:  cpu time    0.0171: real time    0.0172
    SETDIJ:  cpu time    0.0089: real time    0.0089
     EDDAV:  cpu time    0.9236: real time    0.9258
       DOS:  cpu time    0.0022: real time    0.0022
    CHARGE:  cpu time    0.0479: real time    0.0480
    MIXING:  cpu time    0.0011: real time    0.0011
    --------------------------------------------
      LOOP:  cpu time    1.0008: real time    1.0032

 eigenvalue-minimisations  :  4476
 total energy-change (2. order) : 0.9257653E-03  (-0.2308902E-02)
 number of electron      45.9999988 magnetization      -0.0000000
 augmentation part       11.6834241 magnetization      -0.0000000

 Broyden mixing:
  rms(total) = 0.88392E-01    rms(broyden)= 0.88389E-01
  rms(prec ) = 0.98714E-01
  weight for this iteration     100.00

 eigenvalues of (default mixing * dielectric matrix)
  average eigenvalue GAMMA=   1.1421
  3.0328  2.3612  2.3612  0.2006  0.5193  0.5193  0.8599  0.8599  0.6301  0.6095
  0.6095

 Free energy of the ion-electron system (eV)
  ---------------------------------------------------
  alpha Z        PSCENC =       453.10565554
  Ewald energy   TEWEN  =     -4853.25068260
  -Hartree energ DENC   =     -1378.01870318
  -exchange      EXHF   =         0.00000000
  -V(xc)+E(xc)   XCENC  =       232.54097571
  PAW double counting   =      5287.59635703    -5594.98230509
  entropy T*S    EENTRO =         0.00953705
  eigenvalues    EBANDS =      -292.93276610
  atomic energy  EATOM  =      6104.32616516
  Solvation  Ediel_sol  =         0.00000000
  ---------------------------------------------------
  free energy    TOTEN  =       -41.60576649 eV

  energy without entropy =      -41.61530354  energy(sigma->0) =      -41.60894551


--------------------------------------------------------------------------------------------------------




--------------------------------------- Iteration      1(  17)  ---------------------------------------


    POTLOK:  cpu time    0.0176: real time    0.0178
    SETDIJ:  cpu time    0.0087: real time    0.0087
     EDDAV:  cpu time    0.9906: real time    0.9930
       DOS:  cpu time    0.0022: real time    0.0022
    CHARGE:  cpu time    0.0486: real time    0.0487
    MIXING:  cpu time    0.0012: real time    0.0012
    --------------------------------------------
      LOOP:  cpu time    1.0688: real time    1.0714

 eigenvalue-minimisations  :  4872
 total energy-change (2. order) :-0.1015597E-02  (-0.5039679E-03)
 number of electron      45.9999988 magnetization       0.0000000
 augmentation part       11.6838598 magnetization       0.0000000

 Broyden mixing:
  rms(total) = 0.46097E-01    rms(broyden)= 0.46095E-01
  rms(prec ) = 0.52934E-01
  weight for this iteration     100.00

 eigenvalues of (default mixing * dielectric matrix)
  average eigenvalue GAMMA=   1.1336
  2.7012  2.7012  2.4275  0.9915  0.9915  0.2006  0.5194  0.5194  0.6736  0.6736
  0.6018  0.6018

 Free energy of the ion-electron system (eV)
  ---------------------------------------------------
  alpha Z        PSCENC =       453.10565554
  Ewald energy   TEWEN  =     -4853.25068260
  -Hartree energ DENC   =     -1377.69413560
  -exchange      EXHF   =         0.00000000
  -V(xc)+E(xc)   XCENC  =       232.38357863
  PAW double counting   =      5286.92169635    -5594.23142887
  entropy T*S    EENTRO =         0.00949813
  eigenvalues    EBANDS =      -293.17712883
  atomic energy  EATOM  =      6104.32616516
  Solvation  Ediel_sol  =         0.00000000
  ---------------------------------------------------
  free energy    TOTEN  =       -41.60678209 eV

  energy without entropy =      -41.61628022  energy(sigma->0) =      -41.60994813


--------------------------------------------------------------------------------------------------------




--------------------------------------- Iteration      1(  18)  ---------------------------------------


    POTLOK:  cpu time    0.0172: real time    0.0173
    SETDIJ:  cpu time    0.0090: real time    0.0090
     EDDAV:  cpu time    0.9395: real time    0.9417
       DOS:  cpu time    0.0022: real time    0.0022
    CHARGE:  cpu time    0.0490: real time    0.0491
    MIXING:  cpu time    0.0012: real time    0.0012
    --------------------------------------------
      LOOP:  cpu time    1.0181: real time    1.0206

 eigenvalue-minimisations  :  4632
 total energy-change (2. order) :-0.4068755E-03  (-0.1855384E-03)
 number of electron      45.9999988 magnetization      -0.0000000
 augmentation part       11.6694648 magnetization      -0.0000000

 Broyden mixing:
  rms(total) = 0.14974E-01    rms(broyden)= 0.14973E-01
  rms(prec ) = 0.18413E-01
  weight for this iteration     100.00

 eigenvalues of (default mixing * dielectric matrix)
  average eigenvalue GAMMA=   1.1458
  2.6465  2.6465  2.1625  1.3646  1.3646  0.2006  0.5194  0.5194  0.8188  0.8188
  0.6702  0.5818  0.5818

 Free energy of the ion-electron system (eV)
  ---------------------------------------------------
  alpha Z        PSCENC =       453.10565554
  Ewald energy   TEWEN  =     -4853.25068260
  -Hartree energ DENC   =     -1377.60273145
  -exchange      EXHF   =         0.00000000
  -V(xc)+E(xc)   XCENC  =       232.26736408
  PAW double counting   =      5285.15802824    -5592.69485175
  entropy T*S    EENTRO =         0.00925405
  eigenvalues    EBANDS =      -292.92539024
  atomic energy  EATOM  =      6104.32616516
  Solvation  Ediel_sol  =         0.00000000
  ---------------------------------------------------
  free energy    TOTEN  =       -41.60718897 eV

  energy without entropy =      -41.61644302  energy(sigma->0) =      -41.61027365


--------------------------------------------------------------------------------------------------------




--------------------------------------- Iteration      1(  19)  ---------------------------------------


    POTLOK:  cpu time    0.0174: real time    0.0175
    SETDIJ:  cpu time    0.0087: real time    0.0088
     EDDAV:  cpu time    1.0768: real time    1.0794
       DOS:  cpu time    0.0023: real time    0.0023
    CHARGE:  cpu time    0.0507: real time    0.0508
    MIXING:  cpu time    0.0013: real time    0.0013
    --------------------------------------------
      LOOP:  cpu time    1.1572: real time    1.1600

 eigenvalue-minimisations  :  5320
 total energy-change (2. order) :-0.2295051E-04  (-0.4280511E-04)
 number of electron      45.9999988 magnetization      -0.0000000
 augmentation part       11.6661010 magnetization      -0.0000000

 Broyden mixing:
  rms(total) = 0.57869E-02    rms(broyden)= 0.57860E-02
  rms(prec ) = 0.91943E-02
  weight for this iteration     100.00

 eigenvalues of (default mixing * dielectric matrix)
  average eigenvalue GAMMA=   1.2074
  2.9720  2.9720  2.2550  2.2550  0.2006  0.5194  0.5194  0.9752  0.9752  0.7224
  0.7224  0.6746  0.5904  0.5506

 Free energy of the ion-electron system (eV)
  ---------------------------------------------------
  alpha Z        PSCENC =       453.10565554
  Ewald energy   TEWEN  =     -4853.25068260
  -Hartree energ DENC   =     -1377.59408316
  -exchange      EXHF   =         0.00000000
  -V(xc)+E(xc)   XCENC  =       232.23196937
  PAW double counting   =      5284.26966760    -5591.83832395
  entropy T*S    EENTRO =         0.00915514
  eigenvalues    EBANDS =      -292.86673502
  atomic energy  EATOM  =      6104.32616516
  Solvation  Ediel_sol  =         0.00000000
  ---------------------------------------------------
  free energy    TOTEN  =       -41.60721192 eV

  energy without entropy =      -41.61636706  energy(sigma->0) =      -41.61026363


--------------------------------------------------------------------------------------------------------




--------------------------------------- Iteration      1(  20)  ---------------------------------------


    POTLOK:  cpu time    0.0170: real time    0.0171
    SETDIJ:  cpu time    0.0085: real time    0.0085
     EDDAV:  cpu time    0.7789: real time    0.7808
       DOS:  cpu time    0.0023: real time    0.0023
    CHARGE:  cpu time    0.0526: real time    0.0527
    MIXING:  cpu time    0.0014: real time    0.0014
    --------------------------------------------
      LOOP:  cpu time    0.8607: real time    0.8628

 eigenvalue-minimisations  :  3732
 total energy-change (2. order) : 0.4517696E-04  (-0.2215381E-04)
 number of electron      45.9999988 magnetization      -0.0000000
 augmentation part       11.6604347 magnetization      -0.0000000

 Broyden mixing:
  rms(total) = 0.40750E-02    rms(broyden)= 0.40744E-02
  rms(prec ) = 0.50033E-02
  weight for this iteration     100.00

 eigenvalues of (default mixing * dielectric matrix)
  average eigenvalue GAMMA=   1.2335
  2.9482  2.9482  2.5345  2.5345  1.0686  1.0686  0.2006  0.5194  0.5194  0.8376
  0.8376  0.6943  0.6452  0.5728  0.5728

 Free energy of the ion-electron system (eV)
  ---------------------------------------------------
  alpha Z        PSCENC =       453.10565554
  Ewald energy   TEWEN  =     -4853.25068260
  -Hartree energ DENC   =     -1377.67847889
  -exchange      EXHF   =         0.00000000
  -V(xc)+E(xc)   XCENC  =       232.21198502
  PAW double counting   =      5283.88292139    -5591.50961338
  entropy T*S    EENTRO =         0.00907307
  eigenvalues    EBANDS =      -292.70419206
  atomic energy  EATOM  =      6104.32616516
  Solvation  Ediel_sol  =         0.00000000
  ---------------------------------------------------
  free energy    TOTEN  =       -41.60716674 eV

  energy without entropy =      -41.61623981  energy(sigma->0) =      -41.61019110


--------------------------------------------------------------------------------------------------------




--------------------------------------- Iteration      1(  21)  ---------------------------------------


    POTLOK:  cpu time    0.0172: real time    0.0173
    SETDIJ:  cpu time    0.0082: real time    0.0082
     EDDAV:  cpu time    0.9201: real time    0.9223
       DOS:  cpu time    0.0023: real time    0.0023
    CHARGE:  cpu time    0.0525: real time    0.0526
    MIXING:  cpu time    0.0015: real time    0.0015
    --------------------------------------------
      LOOP:  cpu time    1.0018: real time    1.0042

 eigenvalue-minimisations  :  4592
 total energy-change (2. order) : 0.2979494E-05  (-0.7363543E-05)
 number of electron      45.9999988 magnetization       0.0000000
 augmentation part       11.6585178 magnetization       0.0000000

 Broyden mixing:
  rms(total) = 0.18268E-02    rms(broyden)= 0.18251E-02
  rms(prec ) = 0.22823E-02
  weight for this iteration     100.00

 eigenvalues of (default mixing * dielectric matrix)
  average eigenvalue GAMMA=   1.2210
  2.9747  2.9747  2.7383  2.4347  1.1463  1.1463  0.2006  0.5194  0.5194  0.8824
  0.8824  0.6751  0.6751  0.6483  0.5593  0.5593

 Free energy of the ion-electron system (eV)
  ---------------------------------------------------
  alpha Z        PSCENC =       453.10565554
  Ewald energy   TEWEN  =     -4853.25068260
  -Hartree energ DENC   =     -1377.77433254
  -exchange      EXHF   =         0.00000000
  -V(xc)+E(xc)   XCENC  =       232.22188624
  PAW double counting   =      5283.73179221    -5591.38508306
  entropy T*S    EENTRO =         0.00901766
  eigenvalues    EBANDS =      -292.59158238
  atomic energy  EATOM  =      6104.32616516
  Solvation  Ediel_sol  =         0.00000000
  ---------------------------------------------------
  free energy    TOTEN  =       -41.60716376 eV

  energy without entropy =      -41.61618142  energy(sigma->0) =      -41.61016964


--------------------------------------------------------------------------------------------------------




--------------------------------------- Iteration      1(  22)  ---------------------------------------


    POTLOK:  cpu time    0.0172: real time    0.0174
    SETDIJ:  cpu time    0.0088: real time    0.0088
     EDDAV:  cpu time    0.7875: real time    0.7894
       DOS:  cpu time    0.0022: real time    0.0022
    CHARGE:  cpu time    0.0526: real time    0.0527
    MIXING:  cpu time    0.0018: real time    0.0018
    --------------------------------------------
      LOOP:  cpu time    0.8701: real time    0.8722

 eigenvalue-minimisations  :  3756
 total energy-change (2. order) :-0.1715393E-05  (-0.1150891E-05)
 number of electron      45.9999988 magnetization      -0.0000000
 augmentation part       11.6589576 magnetization      -0.0000000

 Broyden mixing:
  rms(total) = 0.10920E-02    rms(broyden)= 0.10901E-02
  rms(prec ) = 0.14554E-02
  weight for this iteration     100.00

 eigenvalues of (default mixing * dielectric matrix)
  average eigenvalue GAMMA=   1.1893
  2.9659  2.9659  2.8858  2.2201  1.1234  1.1234  0.2006  0.5194  0.5194  0.9598
  0.9598  0.7242  0.7242  0.6151  0.6151  0.5480  0.5480

 Free energy of the ion-electron system (eV)
  ---------------------------------------------------
  alpha Z        PSCENC =       453.10565554
  Ewald energy   TEWEN  =     -4853.25068260
  -Hartree energ DENC   =     -1377.77570718
  -exchange      EXHF   =         0.00000000
  -V(xc)+E(xc)   XCENC  =       232.22613082
  PAW double counting   =      5283.75914011    -5591.41433769
  entropy T*S    EENTRO =         0.00902372
  eigenvalues    EBANDS =      -292.59255335
  atomic energy  EATOM  =      6104.32616516
  Solvation  Ediel_sol  =         0.00000000
  ---------------------------------------------------
  free energy    TOTEN  =       -41.60716547 eV

  energy without entropy =      -41.61618919  energy(sigma->0) =      -41.61017338


--------------------------------------------------------------------------------------------------------




--------------------------------------- Iteration      1(  23)  ---------------------------------------


    POTLOK:  cpu time    0.0178: real time    0.0180
    SETDIJ:  cpu time    0.0086: real time    0.0086
     EDDAV:  cpu time    0.4994: real time    0.5006
       DOS:  cpu time    0.0022: real time    0.0022
    --------------------------------------------
      LOOP:  cpu time    0.5280: real time    0.5294

 eigenvalue-minimisations  :  1920
 total energy-change (2. order) : 0.2744100E-06  (-0.1046717E-06)
 number of electron      45.9999988 magnetization      -0.0000000
 augmentation part       11.6589576 magnetization      -0.0000000

 Free energy of the ion-electron system (eV)
  ---------------------------------------------------
  alpha Z        PSCENC =       453.10565554
  Ewald energy   TEWEN  =     -4853.25068260
  -Hartree energ DENC   =     -1377.76524492
  -exchange      EXHF   =         0.00000000
  -V(xc)+E(xc)   XCENC  =       232.22661628
  PAW double counting   =      5283.78416163    -5591.43890103
  entropy T*S    EENTRO =         0.00903036
  eigenvalues    EBANDS =      -292.60396563
  atomic energy  EATOM  =      6104.32616516
  Solvation  Ediel_sol  =         0.00000000
  ---------------------------------------------------
  free energy    TOTEN  =       -41.60716520 eV

  energy without entropy =      -41.61619556  energy(sigma->0) =      -41.61017532


--------------------------------------------------------------------------------------------------------




 average (electrostatic) potential at core
  the test charge radii are     1.1829  0.7215
  (the norm of the test charge is              1.0000)
       1 -37.4368       2 -37.4368       3 -71.1778       4 -71.1778
 
 
 
 E-fermi :   4.8178     XC(G=0): -11.0357     alpha+bet :-12.2018


 spin component 1

 k-point     1 :       0.0000    0.0000    0.0000
  band No.  band energies     occupation 
      1     -36.3073      1.00000
      2     -33.2531      1.00000
      3     -16.2872      1.00000
      4     -14.7749      1.00000
      5     -14.7748      1.00000
      6     -13.8529      1.00000
      7     -13.6286      1.00000
      8     -12.4742      1.00000
      9     -12.4742      1.00000
     10     -11.4723      1.00000
     11      -1.0303      1.00000
     12       0.0189      1.00000
     13       0.0190      1.00000
     14       1.1155      1.00000
     15       1.1155      1.00000
     16       1.1179      1.00000
     17       4.3865      1.00000
     18       4.5677      1.00115
     19       4.5677      1.00116
     20       4.7096      1.03168
     21       4.7571      0.92308
     22       4.8245      0.44328
     23       4.8245      0.44302
     24       5.3494     -0.00000
     25       7.0649     -0.00000
     26       7.1721     -0.00000
     27       7.1722     -0.00000
     28       7.9423      0.00000

 k-point     2 :       0.2000   -0.0000    0.0000
  band No.  band energies     occupation 
      1     -36.2825      1.00000
      2     -33.2217      1.00000
      3     -15.9891      1.00000
      4     -15.4704      1.00000
      5     -14.8452      1.00000
      6     -14.0455      1.00000
      7     -13.5192      1.00000
      8     -12.5569      1.00000
      9     -12.1935      1.00000
     10     -11.8286      1.00000
     11      -0.2861      1.00000
     12       0.1905      1.00000
     13       0.3810      1.00000
     14       0.4178      1.00000
     15       0.6943      1.00000
     16       0.6965      1.00000
     17       4.3997      1.00000
     18       4.5268      1.00015
     19       4.5622      1.00090
     20       4.6371      1.01418
     21       4.6565      1.02246
     22       4.6842      1.03382
     23       4.7644      0.88834
     24       6.5698     -0.00000
     25       7.0182     -0.00000
     26       7.1021     -0.00000
     27       7.9503      0.00000
     28       8.1159      0.00000

 k-point     3 :       0.4000   -0.0000    0.0000
  band No.  band energies     occupation 
      1     -36.2420      1.00000
      2     -33.1698      1.00000
      3     -16.2442      1.00000
      4     -15.3799      1.00000
      5     -14.9579      1.00000
      6     -14.1905      1.00000
      7     -13.7177      1.00000
      8     -12.7272      1.00000
      9     -12.6817      1.00000
     10     -11.6143      1.00000
     11      -0.8737      1.00000
     12       0.1096      1.00000
     13       0.1112      1.00000
     14       0.9312      1.00000
     15       1.0133      1.00000
     16       1.0728      1.00000
     17       4.3007      1.00000
     18       4.4928      1.00002
     19       4.4957      1.00003
     20       4.5671      1.00112
     21       4.6065      1.00545
     22       4.6072      1.00559
     23       4.7777      0.81124
     24       4.8441      0.28552
     25       7.5376     -0.00000
     26       8.8560      0.00000
     27       9.0009      0.00000
     28       9.0648      0.00000

 k-point     4 :      -0.0000    0.2000    0.0000
  band No.  band energies     occupation 
      1     -36.2825      1.00000
      2     -33.2216      1.00000
      3     -16.0248      1.00000
      4     -15.4168      1.00000
      5     -14.8431      1.00000
      6     -13.9446      1.00000
      7     -13.6792      1.00000
      8     -12.5608      1.00000
      9     -12.1988      1.00000
     10     -11.7798      1.00000
     11      -0.4863      1.00000
     12       0.1194      1.00000
     13       0.2040      1.00000
     14       0.5504      1.00000
     15       0.8860      1.00000
     16       0.9535      1.00000
     17       4.3997      1.00000
     18       4.5422      1.00034
     19       4.5582      1.00074
     20       4.6351      1.01340
     21       4.6604      1.02428
     22       4.6939      1.03543
     23       4.7826      0.77823
     24       6.4201     -0.00000
     25       6.7164     -0.00000
     26       7.5418     -0.00000
     27       8.0101      0.00000
     28       8.1676      0.00000

 k-point     5 :       0.4000    0.2000    0.0000
  band No.  band energies     occupation 
      1     -36.2498      1.00000
      2     -33.1799      1.00000
      3     -15.9156      1.00000
      4     -15.6441      1.00000
      5     -15.0594      1.00000
      6     -14.0856      1.00000
      7     -13.7954      1.00000
      8     -12.8040      1.00000
      9     -12.1011      1.00000
     10     -11.9392      1.00000
     11      -0.3797      1.00000
     12       0.0080      1.00000
     13       0.3139      1.00000
     14       0.6353      1.00000
     15       0.8304      1.00000
     16       0.9621      1.00000
     17       4.4345      1.00000
     18       4.5001      1.00003
     19       4.5507      1.00052
     20       4.5854      1.00246
     21       4.5947      1.00354
     22       4.6263      1.01043
     23       4.6958      1.03545
     24       6.3723     -0.00000
     25       6.4762     -0.00000
     26       8.1228      0.00000
     27       8.2667      0.00000
     28       8.8788      0.00000

 k-point     6 :      -0.4000    0.2000   -0.0000
  band No.  band energies     occupation 
      1     -36.2295      1.00000
      2     -33.1536      1.00000
      3     -16.1527      1.00000
      4     -15.4448      1.00000
      5     -15.2066      1.00000
      6     -14.0792      1.00000
[...]
 -4.027  -0.351  -0.000   0.000   0.000   0.000  -0.000  -0.000
  0.000  -0.000 -15.666  -0.000  -0.001   7.376   0.000   0.001
 -0.000   0.000  -0.000 -15.666  -0.000   0.000   7.376   0.000
 -0.000   0.000  -0.001  -0.000 -15.667   0.001   0.000   7.376
  0.000   0.000   7.376   0.000   0.001   4.937  -0.000  -0.001
 -0.000  -0.000   0.000   7.376   0.000  -0.000   4.937  -0.000
 -0.000  -0.000   0.001   0.000   7.376  -0.001  -0.000   4.936
 -0.000  -0.000  -0.000   0.000   0.000  -0.000   0.000   0.000
 -0.000  -0.000  -0.000   0.000   0.000  -0.000   0.000   0.000
  0.000   0.000  -0.000  -0.000   0.000  -0.000  -0.000   0.000
 -0.000  -0.000   0.000  -0.000  -0.000   0.000  -0.000  -0.000
 -0.000  -0.000  -0.000  -0.000  -0.000  -0.000  -0.000  -0.000
  0.001   0.000  -0.000   0.000   0.000   0.000  -0.000  -0.000
  0.000   0.000  -0.000   0.000   0.000   0.000  -0.000  -0.000
 -0.000  -0.000   0.000   0.000  -0.000   0.000   0.000  -0.000
  0.000   0.000   0.000  -0.000  -0.000  -0.000   0.000   0.000
  0.000   0.000   0.000  -0.000  -0.000   0.000   0.000   0.000
 -0.000   0.000  -0.000  -0.003  -0.001   0.000  -0.001   0.000
 -0.000   0.000  -0.000  -0.000  -0.004   0.000   0.000  -0.001
 -0.000   0.000   0.002  -0.000   0.000   0.001   0.000  -0.000
 -0.000   0.000   0.000  -0.002   0.000  -0.000  -0.001  -0.000
  0.000  -0.000   0.000  -0.000   0.002  -0.000   0.000   0.000
  0.000  -0.000  -0.003  -0.000  -0.000  -0.002   0.000   0.000
  0.000  -0.000   0.001   0.000  -0.000  -0.000  -0.000   0.000
 -0.000   0.000  -0.000  -0.003  -0.001   0.000  -0.001   0.000
 -0.000   0.000  -0.000  -0.000  -0.004   0.000   0.000  -0.001
 -0.000   0.000   0.002  -0.000   0.000   0.000   0.000  -0.000
 -0.000   0.000   0.000  -0.002   0.000  -0.000  -0.001  -0.000
  0.000  -0.000   0.000  -0.000   0.002  -0.000   0.000   0.000
  0.000  -0.000  -0.003  -0.000  -0.000  -0.001   0.000   0.000
  0.000  -0.000   0.001   0.000  -0.000  -0.000  -0.000   0.000
 pseudopotential strength for first ion, spin component:           2
-15.721   0.720   0.000  -0.000  -0.000   0.000  -0.000  -0.000
  0.720  -3.402  -0.000   0.000   0.000   0.000  -0.000  -0.000
  0.000  -0.000 -17.545  -0.000  -0.001   7.757   0.000   0.001
 -0.000   0.000  -0.000 -17.545  -0.000   0.000   7.757   0.001
 -0.000   0.000  -0.001  -0.000 -17.546   0.001   0.001   7.758
  0.000   0.000   7.757   0.000   0.001   5.168  -0.000  -0.001
 -0.000  -0.000   0.000   7.757   0.001  -0.000   5.168  -0.001
 -0.000  -0.000   0.001   0.001   7.758  -0.001  -0.001   5.167
 -0.000  -0.000  -0.000   0.000   0.000  -0.000   0.000   0.000
 -0.000  -0.000  -0.000   0.000   0.000  -0.000   0.000   0.000
  0.000   0.000  -0.000  -0.000   0.000  -0.000  -0.000   0.000
 -0.000  -0.000   0.000  -0.000  -0.000   0.000  -0.000  -0.000
 -0.000  -0.000  -0.000  -0.000  -0.000  -0.000  -0.000  -0.000
  0.001   0.000  -0.000   0.000   0.000   0.000  -0.000  -0.000
  0.000   0.000  -0.000   0.000   0.000   0.000  -0.000  -0.000
 -0.000  -0.000   0.000   0.000  -0.000   0.000   0.000  -0.000
  0.000   0.000   0.000  -0.000  -0.000  -0.000   0.000   0.000
  0.000   0.000   0.000  -0.000  -0.000   0.000   0.000   0.000
 -0.000   0.000  -0.000  -0.021  -0.000  -0.000   0.011  -0.000
 -0.000   0.000  -0.000  -0.001  -0.026   0.000   0.001   0.014
 -0.000   0.000   0.012  -0.001   0.000  -0.007   0.001  -0.000
 -0.000   0.000  -0.000  -0.019  -0.000   0.000   0.010   0.000
  0.000  -0.000   0.000  -0.001   0.012  -0.000   0.001  -0.007
  0.000  -0.000  -0.025  -0.000  -0.000   0.014   0.000   0.000
  0.000  -0.000   0.001  -0.000  -0.001  -0.001   0.000   0.001
 -0.000   0.000   0.000  -0.020  -0.000  -0.000   0.011  -0.000
 -0.000   0.000  -0.000  -0.001  -0.025   0.000   0.001   0.014
 -0.000   0.000   0.012  -0.001   0.000  -0.006   0.001  -0.000
 -0.000   0.000  -0.000  -0.018  -0.000   0.000   0.010   0.000
  0.000  -0.000   0.000  -0.001   0.012  -0.000   0.001  -0.007
  0.000  -0.000  -0.025  -0.000  -0.000   0.013   0.000   0.000
  0.000  -0.000   0.001  -0.000  -0.001  -0.001   0.000   0.001
 total augmentation occupancy for first ion, spin component:           1
  1.992  -0.038   0.000   0.000   0.000   0.000   0.000   0.000  -0.000  -0.000   0.000  -0.000  -0.000  -0.000  -0.000   0.000
 -0.038   0.605   0.000   0.000   0.000   0.000   0.000   0.000  -0.001  -0.000   0.000  -0.001  -0.000  -0.000  -0.000   0.000
  0.000   0.000   2.012   0.000   0.000  -0.020  -0.000  -0.000   0.000  -0.000   0.000  -0.000   0.000   0.000   0.000  -0.000
  0.000   0.000   0.000   2.012   0.000  -0.000  -0.020  -0.000  -0.000   0.000  -0.000   0.000   0.000  -0.000   0.000   0.000
  0.000   0.000   0.000   0.000   2.013  -0.000  -0.000  -0.020  -0.000   0.000   0.000   0.000  -0.000   0.000   0.000   0.000
  0.000   0.000  -0.020  -0.000  -0.000   0.020  -0.000  -0.000  -0.000   0.000   0.000   0.000   0.000   0.000  -0.000   0.000
  0.000  -0.000  -0.000  -0.020  -0.000  -0.000   0.020  -0.000   0.000  -0.000   0.000  -0.000   0.000   0.000  -0.000   0.000
 -0.000   0.000  -0.000  -0.000  -0.020  -0.000  -0.000   0.020   0.000   0.000   0.000   0.000   0.000   0.000  -0.000  -0.000
 -0.000  -0.001   0.000   0.000   0.000  -0.000   0.000   0.000   0.229  -0.000   0.000  -0.082  -0.000   0.063  -0.000   0.000
 -0.000  -0.000   0.000  -0.000   0.000   0.000   0.000  -0.000  -0.000   0.288   0.000  -0.000  -0.082  -0.000   0.085   0.000
  0.000   0.000  -0.000   0.000   0.000   0.000   0.000   0.000   0.000   0.000   0.172   0.000   0.000   0.000   0.000   0.041
 -0.000  -0.001   0.000   0.000   0.000   0.000  -0.000   0.000  -0.082  -0.000   0.000   0.288  -0.000  -0.031  -0.000   0.000
 -0.000  -0.000   0.000   0.000   0.000   0.000   0.000   0.000  -0.000  -0.082   0.000  -0.000   0.230  -0.000  -0.031   0.000
 -0.000  -0.000   0.000   0.000   0.000  -0.000   0.000   0.000   0.063  -0.000   0.000  -0.031  -0.000   0.018  -0.000   0.000
 -0.000  -0.000  -0.000   0.000   0.000   0.000   0.000   0.000  -0.000   0.085   0.000  -0.000  -0.031  -0.000   0.026  -0.000
  0.000   0.000  -0.000   0.000   0.000   0.000   0.000  -0.000   0.000   0.000   0.041   0.000   0.000   0.000  -0.000   0.011
 -0.000  -0.000   0.000  -0.000  -0.000   0.000   0.000  -0.000  -0.031  -0.000   0.000   0.084  -0.000  -0.011  -0.000  -0.000
 -0.000  -0.000  -0.000  -0.000  -0.000  -0.000   0.000  -0.000  -0.000  -0.031   0.000  -0.000   0.063  -0.000  -0.011   0.000
 -0.000   0.000  -0.000  -0.120  -0.001   0.000   0.082   0.000   0.000   0.000   0.000   0.000  -0.000   0.000  -0.000  -0.000
  0.000   0.000  -0.000  -0.001  -0.147   0.000   0.000   0.101   0.000  -0.000   0.000   0.000   0.000   0.000  -0.000   0.000
 -0.000   0.000   0.066  -0.000   0.000  -0.045   0.000  -0.000   0.000   0.000   0.000   0.000  -0.000   0.000   0.000  -0.000
 -0.000  -0.000   0.000  -0.107   0.000  -0.000   0.074  -0.000   0.000   0.000  -0.000   0.000   0.000   0.000   0.000  -0.000
  0.000   0.000   0.000  -0.001   0.066  -0.000   0.000  -0.045   0.000  -0.000   0.000   0.000   0.000   0.000   0.000  -0.000
 -0.000   0.000  -0.146  -0.000  -0.000   0.101   0.000   0.000   0.000   0.000   0.000  -0.000  -0.000  -0.000  -0.000   0.000
  0.000  -0.000   0.001  -0.000  -0.000  -0.000   0.000   0.000   0.000   0.000  -0.000  -0.000  -0.000   0.000   0.000   0.000
  0.000  -0.000   0.000   0.121   0.000  -0.000  -0.076  -0.000  -0.000   0.000   0.000   0.000  -0.000   0.000   0.000  -0.000
 -0.000   0.000   0.000   0.001   0.149  -0.000  -0.000  -0.093   0.000   0.000   0.000   0.000  -0.000   0.000   0.000   0.000
  0.000   0.000  -0.067   0.000  -0.000   0.042  -0.000   0.000   0.000   0.000   0.000   0.000   0.000   0.000   0.000   0.000
  0.000  -0.000  -0.000   0.108  -0.000   0.000  -0.068   0.000   0.000  -0.000   0.000  -0.000   0.000   0.000   0.000   0.000
 -0.000   0.000  -0.000   0.001  -0.067   0.000  -0.000   0.042   0.000   0.000   0.000   0.000   0.000   0.000   0.000   0.000
  0.000   0.000   0.149   0.000   0.000  -0.093  -0.000  -0.000   0.000   0.000  -0.000   0.000  -0.000  -0.000  -0.000   0.000
  0.000   0.000  -0.001   0.000   0.001   0.000  -0.000  -0.000   0.000   0.000   0.000   0.000   0.000  -0.000   0.000   0.000
 total augmentation occupancy for first ion, spin component:           2
 -0.042  -0.160   0.000   0.000  -0.000   0.000   0.000   0.000   0.000   0.000  -0.000   0.000   0.000   0.000   0.000  -0.000
 -0.160   0.130  -0.000   0.000   0.000   0.000  -0.000   0.000  -0.005  -0.002   0.003  -0.004  -0.003  -0.001  -0.001   0.001
 -0.000  -0.000  -0.007  -0.000  -0.000  -0.044   0.000   0.000   0.000  -0.000  -0.000   0.000   0.000   0.000  -0.000   0.000
 -0.000  -0.000  -0.000  -0.007  -0.000   0.000  -0.044   0.000   0.000   0.000   0.000   0.000   0.000   0.000   0.000  -0.000
 -0.000   0.000  -0.000  -0.000  -0.008   0.000   0.000  -0.044   0.000   0.000  -0.000   0.000   0.000   0.000   0.000  -0.000
 -0.000   0.000  -0.044   0.000   0.000   0.003  -0.000  -0.000   0.000   0.000  -0.000  -0.000  -0.000  -0.000   0.000   0.000
  0.000  -0.000   0.000  -0.044   0.000  -0.000   0.003  -0.000  -0.000   0.000  -0.000   0.000   0.000   0.000  -0.000  -0.000
  0.000   0.000   0.000   0.000  -0.044  -0.000  -0.000   0.003  -0.000   0.000   0.000   0.000   0.000  -0.000  -0.000  -0.000
  0.000  -0.005   0.000   0.000   0.000  -0.000   0.000   0.000   0.036  -0.002   0.003  -0.007  -0.001   0.010  -0.000   0.001
  0.000  -0.002  -0.000   0.000   0.000   0.000  -0.000   0.000  -0.002   0.044  -0.000  -0.002  -0.005  -0.000   0.012  -0.000
 -0.000   0.003  -0.000  -0.000  -0.000   0.000   0.000   0.000   0.003  -0.000   0.036  -0.000   0.002   0.001  -0.000   0.008
  0.000  -0.004   0.000   0.000   0.000  -0.000   0.000   0.000  -0.007  -0.002  -0.000   0.041  -0.002  -0.003  -0.001  -0.000
  0.000  -0.003  -0.000   0.000   0.000   0.000  -0.000   0.000  -0.001  -0.005   0.002  -0.002   0.038  -0.000  -0.002   0.000
  0.000  -0.001   0.000  -0.000   0.000  -0.000   0.000  -0.000   0.010  -0.000   0.001  -0.003  -0.000   0.003  -0.000   0.000
  0.000  -0.001  -0.000   0.000   0.000  -0.000  -0.000   0.000  -0.000   0.012  -0.000  -0.001  -0.002  -0.000   0.003  -0.000
 -0.000   0.001   0.000   0.000   0.000   0.000   0.000   0.000   0.001  -0.000   0.008  -0.000   0.000   0.000  -0.000   0.002
  0.000  -0.001   0.000   0.000   0.000  -0.000  -0.000   0.000  -0.003  -0.001  -0.000   0.012  -0.000  -0.001  -0.000  -0.000
  0.000  -0.001   0.000   0.000   0.000   0.000   0.000   0.000  -0.000  -0.002   0.000  -0.000   0.010  -0.000  -0.001   0.000
 -0.000   0.000  -0.000  -0.012  -0.001   0.001   0.024   0.002   0.000   0.000   0.000   0.000  -0.000   0.000   0.000  -0.000
  0.000   0.000  -0.001  -0.001  -0.016   0.001   0.002   0.031  -0.000   0.000   0.000   0.000   0.000   0.000  -0.000   0.000
  0.000   0.000   0.007  -0.000   0.000  -0.014   0.001  -0.001   0.000  -0.000   0.000   0.000   0.000   0.000   0.000  -0.000
 -0.000   0.000  -0.000  -0.011  -0.000  -0.000   0.021  -0.000   0.000   0.000   0.000   0.000   0.000   0.000   0.000  -0.000
  0.000  -0.000   0.000  -0.001   0.008  -0.001   0.001  -0.015   0.000   0.000   0.000   0.000   0.000   0.000  -0.000   0.000
  0.000  -0.000  -0.015  -0.001  -0.001   0.030   0.001   0.001   0.000   0.000  -0.000   0.000   0.000   0.000   0.000   0.000
  0.000  -0.000   0.001  -0.000  -0.001  -0.002   0.000   0.001  -0.000   0.000  -0.000   0.000   0.000   0.000  -0.000   0.000
  0.000   0.000   0.001  -0.002   0.001  -0.001  -0.011  -0.002   0.000   0.000  -0.000  -0.000  -0.000  -0.000   0.000   0.000
  0.000   0.000   0.001   0.001  -0.001  -0.002  -0.002  -0.015  -0.000   0.000   0.000   0.000  -0.000  -0.000   0.000  -0.000
  0.000   0.000   0.001   0.000  -0.000   0.007  -0.001   0.001   0.000  -0.000   0.000   0.000   0.000  -0.000   0.000   0.000
  0.000   0.000   0.000  -0.002   0.000   0.000  -0.009   0.000  -0.000  -0.000   0.000   0.000   0.000  -0.000   0.000   0.000
  0.000   0.000  -0.000   0.001   0.000   0.001  -0.001   0.007  -0.000   0.000  -0.000   0.000   0.000  -0.000   0.000   0.000
  0.000  -0.000  -0.002   0.001   0.001  -0.013  -0.001  -0.002   0.000   0.000   0.000   0.000   0.000   0.000   0.000  -0.000
  0.000  -0.000  -0.001  -0.000   0.001   0.002  -0.000  -0.001   0.000   0.000   0.000   0.000   0.000  -0.000  -0.000   0.000


------------------------ aborting loop because EDIFF is reached ----------------------------------------


 


 total charge     
 
# of ion       s       p       d       f       tot
--------------------------------------------------
    1        2.083   5.888   0.616   6.717  15.304
    2        2.083   5.888   0.616   6.717  15.304
    3        1.557   3.407   0.000   0.000   4.965
    4        1.557   3.407   0.000   0.000   4.965
--------------------------------------------------
tot          7.281  18.591   1.233  13.434  40.538

 


 magnetization (x)
 
# of ion       s       p       d       f       tot
--------------------------------------------------
    1       -0.006  -0.010   0.102   6.612   6.698
    2        0.006   0.010  -0.102  -6.612  -6.698
    3        0.000  -0.000   0.000   0.000  -0.000
    4       -0.000  -0.000   0.000   0.000  -0.000
--------------------------------------------------
tot          0.000  -0.000   0.000  -0.000   0.000

 
    CHARGE:  cpu time    0.0561: real time    0.0562
    FORLOC:  cpu time    0.0008: real time    0.0008
    FORNL :  cpu time    0.2027: real time    0.2034
    STRESS:  cpu time    0.2726: real time    0.2733
    FORCOR:  cpu time    0.0182: real time    0.0182
    FORHAR:  cpu time    0.0022: real time    0.0022
    MIXING:  cpu time    0.0016: real time    0.0016
    OFIELD:  cpu time    0.0000: real time    0.0000

  FORCE on cell =-STRESS in cart. coord.  units (eV):
  Direction    XX          YY          ZZ          XY          YZ          ZX
  --------------------------------------------------------------------------------------
  Alpha Z   453.10566   453.10566   453.10566
  Ewald   -1617.75261 -1617.75125 -1617.75302     0.00351     0.00252    -0.00245
  Hartree   459.18032   459.24389   459.25949    -0.05470    -0.02195    -0.03971
  E(xc)    -244.14685  -244.13984  -244.13807    -0.00607    -0.00248    -0.00429
  Local     422.68846   422.57093   422.54315     0.09967     0.03917     0.07438
  n-local  -226.46122  -226.55057  -226.37088    -0.03743     0.02102     0.05951
  augment    96.42317    96.44936    96.45659    -0.02198    -0.01016    -0.01514
  Kinetic   656.78969   656.65981   656.58505     0.33289     0.06708    -0.22740
  Fock        0.00000     0.00000     0.00000     0.00000     0.00000     0.00000
  -------------------------------------------------------------------------------------
  Total      -0.17638    -0.34006    -0.38098     0.14175     0.05787     0.10023
  in kB      -4.30934    -8.30842    -9.30814     3.46317     1.41378     2.44878
  external pressure =       -7.31 kB  Pullay stress =        0.00 kB


 VOLUME and BASIS-vectors are now :
 -----------------------------------------------------------------------------
  energy-cutoff  :      500.00
  volume of cell :       65.58
      direct lattice vectors                 reciprocal lattice vectors
    -1.796252600  1.037116700  2.933334000    -0.278346409  0.160711128  0.113639751
     0.000008500 -2.074162400  2.933334000     0.139173204 -0.241061172  0.170454097
     3.592777500  4.148395800  2.933334000     0.139173204  0.080350044  0.056815166

  length of vectors
     3.592573285  3.592575402  6.222675167     0.340908760  0.326395877  0.170450208


 FORCES acting on ions
    electron-ion (+dipol)            ewald-force                    non-local-force                 convergence-correction
 -----------------------------------------------------------------------------------------------
   -.291E-05 0.188E-05 -.198E-05   0.283E-04 -.183E-04 0.193E-04   -.159E-21 -.212E-21 0.291E-21   -.444E-08 0.287E-08 -.302E-08
   -.291E-05 0.188E-05 -.198E-05   0.283E-04 -.183E-04 0.193E-04   -.794E-22 -.132E-21 0.106E-21   -.444E-08 0.287E-08 -.302E-08
   -.168E-03 0.109E-03 -.115E-03   -.283E-04 0.183E-04 -.193E-04   0.424E-21 0.847E-21 0.529E-21   -.890E-08 0.576E-08 -.606E-08
   -.168E-03 0.109E-03 -.115E-03   -.283E-04 0.183E-04 -.193E-04   0.212E-21 -.318E-21 0.106E-20   -.890E-08 0.576E-08 -.606E-08
 -----------------------------------------------------------------------------------------------
   -.343E-03 0.221E-03 -.233E-03   0.407E-15 0.387E-15 0.284E-13   0.397E-21 0.185E-21 0.199E-20   -.267E-07 0.172E-07 -.181E-07
 
 
 POSITION                                       TOTAL-FORCE (eV/Angst)
 -----------------------------------------------------------------------------------
      0.00000      0.00000      0.00000         0.000000     -0.000000      0.000000
      1.79639      1.03712      2.93333         0.000000      0.000000      0.000000
      1.79646      3.11131      4.40000        -0.000000     -0.000000      0.000000
      0.00007      0.00004      4.40000        -0.000000      0.000000     -0.000000
 -----------------------------------------------------------------------------------
    total drift:                               -0.000343      0.000221     -0.000233


--------------------------------------------------------------------------------------------------------



  FREE ENERGIE OF THE ION-ELECTRON SYSTEM (eV)
  ---------------------------------------------------
  free  energy   TOTEN  =       -41.60716520 eV

  energy  without entropy=      -41.61619556  energy(sigma->0) =      -41.61017532
 


--------------------------------------------------------------------------------------------------------


    POTLOK:  cpu time    0.0268: real time    0.0269


--------------------------------------------------------------------------------------------------------


     LOOP+:  cpu time   20.8906: real time   20.9788
    4ORBIT:  cpu time    0.0000: real time    0.0000
 


 total charge     
 
# of ion       s       p       d       f       tot
--------------------------------------------------
    1        2.083   5.888   0.616   6.717  15.304
    2        2.083   5.888   0.616   6.717  15.304
    3        1.557   3.407   0.000   0.000   4.965
    4        1.557   3.407   0.000   0.000   4.965
--------------------------------------------------
tot          7.281  18.591   1.233  13.434  40.538

 


 magnetization (x)
 
# of ion       s       p       d       f       tot
--------------------------------------------------
    1       -0.006  -0.010   0.102   6.612   6.698
    2        0.006   0.010  -0.102  -6.612  -6.698
    3        0.000  -0.000   0.000   0.000  -0.000
    4       -0.000  -0.000   0.000   0.000  -0.000
--------------------------------------------------
tot          0.000  -0.000   0.000  -0.000   0.000

 

 total amount of memory used by VASP MPI-rank0    42174. kBytes
=======================================================================

   base      :      30000. kBytes
   nonl-proj :       5163. kBytes
   fftplans  :        607. kBytes
   grid      :       1468. kBytes
   one-center:         98. kBytes
   wavefun   :       4838. kBytes
 
  
  
 General timing and accounting informations for this job:
 ========================================================
  
                  Total CPU time used (sec):       22.157
                            User time (sec):       21.960
                          System time (sec):        0.197
                         Elapsed time (sec):       22.986
  
                   Maximum memory used (kb):       59032.
                   Average memory used (kb):           0.
  
                          Minor page faults:        17237
                          Major page faults:            0
                 Voluntary context switches:         1416
