 vasp.5.4.4.18Apr17-6-g9f103f2a35 (build Apr 28 2018 00:24:27) complex          
  
 executed on             LinuxIFC date 2021.03.23  16:56:30
 running on    8 total cores
 distrk:  each k-point on    8 cores,    1 groups
 distr:  one band on NCORES_PER_BAND=   4 cores,    2 groups


--------------------------------------------------------------------------------------------------------


 INCAR:
 POTCAR:    PAW_PBE Eu 23Dec2003                  
 POTCAR:    PAW_PBE O 08Apr2002                   
 POTCAR:    PAW_PBE Eu 23Dec2003                  
   SHA256 =  ed303d27e7c5191953f9b15539336e6f36d9037c1d2e92e80c13d733697cb93d Eu
   COPYR  = (c) Copyright 23Dec2003 Georg Kresse                                
   COPYR  = This file is part of the software VASP. Any use, copying, and all ot
   COPYR  = If you do not have a valid VASP license, you may not use, copy or di
   VRHFIN =Eu : [core=Kr4d]                                                     
   LEXCH  = PE                                                                  
   EATOM  =  2619.8085 eV,  192.5505 Ry                                         
                                                                                
   TITEL  = PAW_PBE Eu 23Dec2003                                                
   LULTRA =        F    use ultrasoft PP ?                                      
   IUNSCR =        1    unscreen: 0-lin 1-nonlin 2-no                           
   RPACOR =    2.300    partial core radius                                     
   POMASS =  151.965; ZVAL   =   17.000    mass and valenz                      
   RCORE  =    2.800    outmost cutoff radius                                   
   RWIGS  =    2.800; RWIGS  =    1.482    wigner-seitz radius (au A)           
   ENMAX  =  249.668; ENMIN  =  187.251 eV                                      
   RCLOC  =    2.308    cutoff for local pot                                    
   LCOR   =        T    correct aug charges                                     
   LPAW   =        T    paw PP                                                  
   EAUG   =  549.628                                                            
   DEXC   =    0.000                                                            
   RMAX   =    2.870    core radius for proj-oper                               
   RAUG   =    1.300    factor for augmentation sphere                          
   RDEP   =    2.887    radius for radial grids                                 
   RDEPT  =    2.221    core radius for aug-charge                              
                                                                                
   Atomic configuration                                                         
   14 entries                                                                   
     n  l   j            E        occ.                                          
     1  0  0.50    -48354.7667   2.0000                                         
     2  0  0.50     -7939.6472   2.0000                                         
     2  1  1.50     -7072.6637   6.0000                                         
     3  0  0.50     -1747.1875   2.0000                                         
     3  1  1.50     -1477.5221   6.0000                                         
     3  2  2.50     -1117.4686  10.0000                                         
     4  0  0.50      -346.8682   2.0000                                         
     4  1  1.50      -258.1962   6.0000                                         
     4  2  2.50      -134.7724  10.0000                                         
     5  0  0.50       -44.6510   2.0000                                         
     6  0  0.50        -3.6227   2.0000                                         
     5  1  1.50       -23.7639   6.0000                                         
     5  2  2.50        -1.3130   0.0000                                         
     4  3  2.50        -2.7310   7.0000                                         
   Description                                                                  
     l       E           TYP  RCUT    TYP  RCUT                                 
     0    -44.6510453     23  2.400                                             
     0     -3.6226685     23  2.400                                             
     1    -23.7638687     23  2.400                                             
     1     27.2116520     23  2.400                                             
     2     -1.3129622     23  2.500                                             
     2     13.6058260     23  2.500                                             
     3     -2.7309948     23  2.800                                             
     3     -3.4014565     23  2.800                                             
  local pseudopotential read in
  partial core-charges read in
  partial kinetic energy density read in
  atomic valenz-charges read in
  non local Contribution for L=           0  read in
    real space projection operators read in
  non local Contribution for L=           0  read in
    real space projection operators read in
  non local Contribution for L=           1  read in
    real space projection operators read in
  non local Contribution for L=           1  read in
    real space projection operators read in
  non local Contribution for L=           2  read in
    real space projection operators read in
  non local Contribution for L=           2  read in
    real space projection operators read in
  non local Contribution for L=           3  read in
    real space projection operators read in
  non local Contribution for L=           3  read in
    real space projection operators read in
    PAW grid and wavefunctions read in
 
   number of l-projection  operators is LMAX  =           8
   number of lm-projection operators is LMMAX =          32
 
 POTCAR:    PAW_PBE O 08Apr2002                   
   SHA256 =  818f92134a0a090dccd8ba1447fa70422a3b330e708bb4f08108d8ae51209ddf O/
   COPYR  = (c) Copyright 08Apr2002 Georg Kresse                                
   COPYR  = This file is part of the software VASP. Any use, copying, and all ot
   COPYR  = If you do not have a valid VASP license, you may not use, copy or di
   VRHFIN =O: s2p4                                                              
   LEXCH  = PE                                                                  
   EATOM  =   432.3788 eV,   31.7789 Ry                                         
                                                                                
   TITEL  = PAW_PBE O 08Apr2002                                                 
   LULTRA =        F    use ultrasoft PP ?                                      
   IUNSCR =        1    unscreen: 0-lin 1-nonlin 2-no                           
   RPACOR =    1.200    partial core radius                                     
   POMASS =   16.000; ZVAL   =    6.000    mass and valenz                      
   RCORE  =    1.520    outmost cutoff radius                                   
   RWIGS  =    1.550; RWIGS  =    0.820    wigner-seitz radius (au A)           
   ENMAX  =  400.000; ENMIN  =  300.000 eV                                      
   ICORE  =        2    local potential                                         
   LCOR   =        T    correct aug charges                                     
   LPAW   =        T    paw PP                                                  
   EAUG   =  605.392                                                            
   DEXC   =    0.000                                                            
   RMAX   =    1.553    core radius for proj-oper                               
   RAUG   =    1.300    factor for augmentation sphere                          
   RDEP   =    1.550    radius for radial grids                                 
   RDEPT  =    1.329    core radius for aug-charge                              
                                                                                
   Atomic configuration                                                         
    4 entries                                                                   
     n  l   j            E        occ.                                          
     1  0  0.50      -514.6923   2.0000                                         
     2  0  0.50       -23.9615   2.0000                                         
     2  1  0.50        -9.0305   4.0000                                         
     3  2  1.50        -9.5241   0.0000                                         
   Description                                                                  
     l       E           TYP  RCUT    TYP  RCUT                                 
     0    -23.9615318     23  1.200                                             
     0     -9.5240782     23  1.200                                             
     1     -9.0304911     23  1.520                                             
     1      8.1634956     23  1.520                                             
     2     -9.5240782      7  1.500                                             
  local pseudopotential read in
  partial core-charges read in
  partial kinetic energy density read in
  kinetic energy density of atom read in
  atomic valenz-charges read in
  non local Contribution for L=           0  read in
    real space projection operators read in
  non local Contribution for L=           0  read in
    real space projection operators read in
  non local Contribution for L=           1  read in
    real space projection operators read in
  non local Contribution for L=           1  read in
    real space projection operators read in
    PAW grid and wavefunctions read in
 
   number of l-projection  operators is LMAX  =           4
   number of lm-projection operators is LMMAX =           8
 
  PAW_PBE Eu 23Dec2003                  :
 energy of atom  1       EATOM=-2619.8085
 kinetic energy error for atom=    0.0019 (will be added to EATOM!!)
  PAW_PBE O 08Apr2002                   :
 energy of atom  2       EATOM= -432.3788
 kinetic energy error for atom=    0.0224 (will be added to EATOM!!)
 
 
 POSCAR: Eu1 O1 str #: 4                         
  positions in direct lattice
  No initial velocities read in
 exchange correlation table for  LEXCH =        8
   RHO(1)=    0.500       N(1)  =     2000
   RHO(2)=  100.500       N(2)  =     4000
 


--------------------------------------------------------------------------------------------------------


 ion  position               nearest neighbor table
   1  0.000  0.000  0.000-   4 2.54   3 2.54   3 2.54   4 2.54   3 2.54   4 2.54
   2  0.000  0.500  0.500-   3 2.54   4 2.54   4 2.54   3 2.54   4 2.54   3 2.54
   3  0.500  0.250  0.750-   2 2.54   1 2.54   1 2.54   2 2.54   1 2.54   2 2.54
   4  0.500  0.750  0.250-   1 2.54   2 2.54   2 2.54   1 2.54   2 2.54   1 2.54
 
  LATTYP: Found a trigonal (rhomboedric) cell.
 ALAT       =     6.2226765187
 COS(alpha) =     0.8333417511
  
  Lattice vectors:
  
 A1 = (  -5.3890301000,  -3.1112791000,   0.0000000000)
 A2 = (  -5.3890386000,  -1.0371167000,  -2.9333340000)
 A3 = (  -3.5927775000,  -4.1483958000,  -2.9333340000)


Analysis of symmetry for initial positions (statically):
=====================================================================
 Subroutine PRICEL returns following result:
 
  LATTYP: Found a trigonal (rhomboedric) cell.
 ALAT       =     3.5926389896
 COS(alpha) =     0.5000183251
  
  Lattice vectors:
  
 A1 = (   1.7963845000,   3.1112791000,   0.0000000000)
 A2 = (   1.7963930000,   1.0371167000,   2.9333340000)
 A3 = (   3.5926456000,   0.0000000000,   0.0000000000)
 
   2 primitive cells build up your supercell.
 

 Routine SETGRP: Setting up the symmetry group for a 
 trigonal (rhombohedral) supercell.


 Subroutine GETGRP returns: Found 12 space group operations
 (whereof 12 operations were pure point group operations)
 out of a pool of 12 trial point group operations.


The static configuration has the point symmetry D_3d.


Analysis of symmetry for dynamics (positions and initial velocities):
=====================================================================
 Subroutine PRICEL returns following result:
 
  LATTYP: Found a trigonal (rhomboedric) cell.
 ALAT       =     3.5926389896
 COS(alpha) =     0.5000183251
  
  Lattice vectors:
  
 A1 = (   1.7963845000,   3.1112791000,   0.0000000000)
 A2 = (   1.7963930000,   1.0371167000,   2.9333340000)
 A3 = (   3.5926456000,   0.0000000000,   0.0000000000)
 
   2 primitive cells build up your supercell.
 

 Routine SETGRP: Setting up the symmetry group for a 
 trigonal (rhombohedral) supercell.


 Subroutine GETGRP returns: Found 12 space group operations
 (whereof 12 operations were pure point group operations)
 out of a pool of 12 trial point group operations.


The dynamic configuration has the point symmetry D_3d.


Analysis of structural, dynamic, and magnetic symmetry:
=====================================================================
 Subroutine PRICEL returns following result:
 
  LATTYP: Found a trigonal (rhomboedric) cell.
 ALAT       =     3.5926389896
 COS(alpha) =     0.5000183251
  
  Lattice vectors:
  
 A1 = (   1.7963845000,   3.1112791000,   0.0000000000)
 A2 = (   1.7963930000,   1.0371167000,   2.9333340000)
 A3 = (   3.5926456000,   0.0000000000,   0.0000000000)
 
   2 primitive cells build up your supercell.
 

 Routine SETGRP: Setting up the symmetry group for a 
 trigonal (rhombohedral) supercell.


 Subroutine GETGRP returns: Found 12 space group operations
 (whereof 12 operations were pure point group operations)
 out of a pool of 12 trial point group operations.


The magnetic configuration has the point symmetry D_3d.


 Subroutine INISYM returns: Found 12 space group operations
 (whereof 12 operations are pure point group operations),
 and found     2 'primitive' translations

 
 
 KPOINTS: pymatgen v2020.8.13 with grid density = 

Automatic generation of k-mesh.
Space group operators:
 irot       det(A)        alpha          n_x          n_y          n_z        tau_x        tau_y        tau_z
    1     1.000000     0.000000     1.000000     0.000000     0.000000     0.000000     0.000000     0.000000
    2    -1.000000     0.000000     1.000000     0.000000     0.000000     0.000000     0.000000     0.000000
    3     1.000000   180.000000    -0.499990     0.866031     0.000001     0.000000     0.000000     0.000000
    4    -1.000000   180.000000    -0.499990     0.866031     0.000001     0.000000     0.000000     0.000000
    5     1.000000   120.000000     0.816503     0.471398     0.333327     0.000000     0.000000     0.000000
    6    -1.000000   120.000000     0.816503     0.471398     0.333327     0.000000     0.000000     0.000000
    7     1.000000   180.000000    -0.000000     0.577347    -0.816499     0.000000     0.000000     0.000000
    8    -1.000000   180.000000    -0.000000     0.577347    -0.816499     0.000000     0.000000     0.000000
    9     1.000000   120.000000    -0.816505    -0.471397    -0.333322     0.000000     0.000000     0.000000
   10    -1.000000   120.000000    -0.816505    -0.471397    -0.333322     0.000000     0.000000     0.000000
   11     1.000000   180.000000    -0.499990     0.288683     0.816500     0.000000     0.000000     0.000000
   12    -1.000000   180.000000    -0.499990     0.288683     0.816500     0.000000     0.000000     0.000000
 
 Subroutine IBZKPT returns following result:
 ===========================================
 
 Found     22 irreducible k-points:
 
 Following reciprocal coordinates:
            Coordinates               Weight
  0.125000  0.125000  0.125000     24.000000
  0.375000  0.125000  0.125000     48.000000
 -0.375000  0.125000  0.125000     48.000000
 -0.125000  0.125000  0.125000     48.000000
  0.125000  0.375000  0.125000     48.000000
  0.375000  0.375000  0.125000     24.000000
 -0.375000  0.375000  0.125000     24.000000
 -0.125000  0.375000  0.125000     48.000000
  0.125000 -0.375000  0.125000     48.000000
  0.375000 -0.375000  0.125000     48.000000
 -0.375000 -0.375000  0.125000     24.000000
  0.125000 -0.125000  0.125000     24.000000
  0.375000 -0.125000  0.125000     48.000000
 -0.375000 -0.125000  0.125000     48.000000
 -0.125000 -0.125000  0.125000     24.000000
  0.125000  0.125000  0.375000     24.000000
 -0.125000  0.125000  0.375000     24.000000
  0.125000  0.375000  0.375000     48.000000
  0.375000  0.375000  0.375000     24.000000
  0.375000 -0.375000  0.375000     24.000000
 -0.375000 -0.375000  0.375000     24.000000
 -0.125000 -0.125000  0.375000     24.000000
 
 Following cartesian coordinates:
            Coordinates               Weight
  0.000000  0.000000  0.042614     24.000000
 -0.069587  0.040178  0.071024     48.000000
  0.139173 -0.080356 -0.014206     48.000000
  0.069587 -0.040178  0.014204     48.000000
  0.034793 -0.060265  0.085227     48.000000
 -0.034793 -0.020088  0.113637     24.000000
  0.173967 -0.140621  0.028407     24.000000
  0.104380 -0.100443  0.056817     48.000000
 -0.069587  0.120531 -0.042613     48.000000
 -0.139173  0.160708 -0.014203     48.000000
  0.069587  0.040175 -0.099433     24.000000
 -0.034793  0.060265  0.000000     24.000000
 -0.104380  0.100443  0.028410     48.000000
  0.104380 -0.020090 -0.056820     48.000000
  0.034793  0.020088 -0.028410     24.000000
  0.034793  0.020088  0.056817     24.000000
  0.104380 -0.020090  0.028407     24.000000
  0.069587 -0.040178  0.099431     48.000000
  0.000000  0.000000  0.127841     24.000000
 -0.104380  0.180796  0.000000     24.000000
  0.104380  0.060263 -0.085230     24.000000
  0.069587  0.040175 -0.014206     24.000000
 


--------------------------------------------------------------------------------------------------------




 Dimension of arrays:
   k-points           NKPTS =     22   k-points in BZ     NKDIM =     22   number of bands    NBANDS=     28
   number of dos      NEDOS =    301   number of ions     NIONS =      4
   non local maximal  LDIM  =      8   non local SUM 2l+1 LMDIM =     32
   total plane-waves  NPLWV =  14400
   max r-space proj   IRMAX =      1   max aug-charges    IRDMAX=  12752
   dimension x,y,z NGX =    20 NGY =   20 NGZ =   36
   dimension x,y,z NGXF=    40 NGYF=   40 NGZF=   72
   support grid    NGXF=    40 NGYF=   40 NGZF=   72
   ions per type =               2   2
   NGX,Y,Z   is equivalent  to a cutoff of   9.25,  9.25,  9.62 a.u.
   NGXF,Y,Z  is equivalent  to a cutoff of  18.51, 18.51, 19.24 a.u.

 SYSTEM =  "EuO"                                   
 POSCAR =  Eu1 O1 str #: 4                         

 Startparameter for this run:
   NWRITE =      2    write-flag & timer
   PREC   = normal    normal or accurate (medium, high low for compatibility)
   ISTART =      0    job   : 0-new  1-cont  2-samecut
   ICHARG =      2    charge: 1-file 2-atom 10-const
   ISPIN  =      2    spin polarized calculation?
   LNONCOLLINEAR =      F non collinear calculations
   LSORBIT =      F    spin-orbit coupling
   INIWAV =      1    electr: 0-lowe 1-rand  2-diag
   LASPH  =      F    aspherical Exc in radial PAW
   METAGGA=      F    non-selfconsistent MetaGGA calc.

 Electronic Relaxation 1
   ENCUT  =  500.0 eV  36.75 Ry    6.06 a.u.   6.55  6.55 11.35*2*pi/ulx,y,z
   ENINI  =  500.0     initial cutoff
   ENAUG  =  605.4 eV  augmentation charge cutoff
   NELM   =     60;   NELMIN=  2; NELMDL= -5     # of ELM steps 
   EDIFF  = 0.1E-05   stopping-criterion for ELM
   LREAL  =      F    real-space projection
   NLSPLINE    = F    spline interpolate recip. space projectors
   LCOMPAT=      F    compatible to vasp.4.4
   GGA_COMPAT  = T    GGA compatible to vasp.4.4-vasp.4.6
   LMAXPAW     = -100 max onsite density
   LMAXMIX     =    2 max onsite mixed and CHGCAR
   VOSKOWN=      0    Vosko Wilk Nusair interpolation
   ROPT   =    0.00000   0.00000
 Ionic relaxation
   EDIFFG = 0.1E-04   stopping-criterion for IOM
   NSW    =      0    number of steps for IOM
   NBLOCK =      1;   KBLOCK =      1    inner block; outer block 
   IBRION =     -1    ionic relax: 0-MD 1-quasi-New 2-CG
   NFREE  =      1    steps in history (QN), initial steepest desc. (CG)
   ISIF   =      2    stress and relaxation
   IWAVPR =     10    prediction:  0-non 1-charg 2-wave 3-comb
   ISYM   =      2    0-nonsym 1-usesym 2-fastsym
   LCORR  =      T    Harris-Foulkes like correction to forces

   POTIM  = 0.5000    time-step for ionic-motion
   TEIN   =    0.0    initial temperature
   TEBEG  =    0.0;   TEEND  =   0.0 temperature during run
   SMASS  =  -3.00    Nose mass-parameter (am)
   estimated Nose-frequenzy (Omega)   =  0.10E-29 period in steps =****** mass=  -0.295E-27a.u.
   SCALEE = 1.0000    scale energy and forces
   NPACO  =    256;   APACO  = 16.0  distance and # of slots for P.C.
   PSTRESS=    0.0 pullay stress

  Mass of Ions in am
   POMASS = 151.97 16.00
  Ionic Valenz
   ZVAL   =  17.00  6.00
  Atomic Wigner-Seitz radii
   RWIGS  =  -1.00 -1.00
  virtual crystal weights 
   VCA    =   1.00  1.00
   NELECT =      46.0000    total number of electrons
   NUPDOWN=      -1.0000    fix difference up-down

 DOS related values:
   EMIN   =  10.00;   EMAX   =-10.00  energy-range for DOS
   EFERMI =   0.00
   ISMEAR =     1;   SIGMA  =   0.10  broadening in eV -4-tet -1-fermi 0-gaus

 Electronic relaxation 2 (details)
   IALGO  =     38    algorithm
   LDIAG  =      T    sub-space diagonalisation (order eigenvalues)
   LSUBROT=      F    optimize rotation matrix (better conditioning)
   TURBO    =      0    0=normal 1=particle mesh
   IRESTART =      0    0=no restart 2=restart with 2 vectors
   NREBOOT  =      0    no. of reboots
   NMIN     =      0    reboot dimension
   EREF     =   0.00    reference energy to select bands
   IMIX   =      4    mixing-type and parameters
     AMIX     =   0.40;   BMIX     =  1.00
     AMIX_MAG =   1.60;   BMIX_MAG =  1.00
     AMIN     =   0.10
     WC   =   100.;   INIMIX=   1;  MIXPRE=   1;  MAXMIX= -45

 Intra band minimization:
   WEIMIN = 0.0000     energy-eigenvalue tresh-hold
   EBREAK =  0.89E-08  absolut break condition
   DEPER  =   0.30     relativ break condition  

   TIME   =   0.40     timestep for ELM

  volume/ion in A,a.u.               =      16.39       110.63
  Fermi-wavevector in a.u.,A,eV,Ry     =   1.454607  2.748810 28.788335  2.115883
  Thomas-Fermi vector in A             =   2.571738
 
 Write flags
   LWAVE        =      F    write WAVECAR
   LDOWNSAMPLE  =      F    k-point downsampling of WAVECAR
   LCHARG       =      F    write CHGCAR
   LVTOT        =      F    write LOCPOT, total local potential
   LVHAR        =      F    write LOCPOT, Hartree potential only
   LELF         =      F    write electronic localiz. function (ELF)
   LORBIT       =     11    0 simple, 1 ext, 2 COOP (PROOUT), +10 PAW based schemes


 Dipole corrections
   LMONO  =      F    monopole corrections only (constant potential shift)
   LDIPOL =      F    correct potential (dipole corrections)
   IDIPOL =      0    1-x, 2-y, 3-z, 4-all directions 
   EPSILON=  1.0000000 bulk dielectric constant

 Exchange correlation treatment:
   GGA     =    --    GGA type
   LEXCH   =     8    internal setting for exchange type
   VOSKOWN=      0    Vosko Wilk Nusair interpolation
   LHFCALC =     F    Hartree Fock is set to
   LHFONE  =     F    Hartree Fock one center treatment
   AEXX    =    0.0000 exact exchange contribution

 Linear response parameters
   LEPSILON=     F    determine dielectric tensor
   LRPA    =     F    only Hartree local field effects (RPA)
   LNABLA  =     F    use nabla operator in PAW spheres
   LVEL    =     F    velocity operator in full k-point grid
   LINTERFAST=   F  fast interpolation
   KINTER  =     0    interpolate to denser k-point grid
   CSHIFT  =0.1000    complex shift for real part using Kramers Kronig
   OMEGAMAX=  -1.0    maximum frequency
   DEG_THRESHOLD= 0.2000000E-02 threshold for treating states as degnerate
   RTIME   =   -0.100 relaxation time in fs
  (WPLASMAI=    0.000 imaginary part of plasma frequency in eV, 0.658/RTIME)
   DFIELD  = 0.0000000 0.0000000 0.0000000 field for delta impulse in time
 
 Orbital magnetization related:
   ORBITALMAG=     F  switch on orbital magnetization
   LCHIMAG   =     F  perturbation theory with respect to B field
   DQ        =  0.001000  dq finite difference perturbation B field
   LLRAUG    =     F  two centre corrections for induced B field



--------------------------------------------------------------------------------------------------------


 Static calculation
 charge density and potential will be updated during run
 spin polarized calculation
 Variant of blocked Davidson
 Davidson routine will perform the subspace rotation
 perform sub-space diagonalisation
    after iterative eigenvector-optimisation
 modified Broyden-mixing scheme, WC =      100.0
 initial mixing is a Kerker type mixing with AMIX =  0.4000 and BMIX =      1.0000
 Hartree-type preconditioning will be used
 using additional bands            5
 reciprocal scheme for non local part
 use partial core corrections
 calculate Harris-corrections to forces 
   (improved forces if not selfconsistent)
 use gradient corrections 
 use of overlap-Matrix (Vanderbilt PP)
 Methfessel and Paxton  Order N= 1 SIGMA  =   0.10


--------------------------------------------------------------------------------------------------------


  energy-cutoff  :      500.00
  volume of cell :       65.58
      direct lattice vectors                 reciprocal lattice vectors
    -1.796252600  1.037116700  2.933334000    -0.278346409  0.160711128  0.113639751
     0.000008500 -2.074162400  2.933334000     0.139173204 -0.241061172  0.170454097
     3.592777500  4.148395800  2.933334000     0.139173204  0.080350044  0.056815166

  length of vectors
     3.592573285  3.592575402  6.222675167     0.340908760  0.326395877  0.170450208


 
 k-points in units of 2pi/SCALE and weight: pymatgen v2020.8.13 with grid density = 
   0.00000000  0.00000000  0.04261363       0.031
  -0.06958660  0.04017778  0.07102356       0.062
   0.13917320 -0.08035556 -0.01420625       0.062
   0.06958660 -0.04017778  0.01420369       0.062
   0.03479330 -0.06026529  0.08522715       0.062
  -0.03479330 -0.02008751  0.11363709       0.031
   0.17396651 -0.14062086  0.02840728       0.031
   0.10437990 -0.10044308  0.05681721       0.062
  -0.06958660  0.12053059 -0.04261342       0.062
  -0.13917320  0.16070837 -0.01420348       0.062
   0.06958660  0.04017502 -0.09943330       0.031
  -0.03479330  0.06026529  0.00000010       0.031
  -0.10437990  0.10044308  0.02841004       0.062
   0.10437990 -0.02009027 -0.05681977       0.062
   0.03479330  0.02008751 -0.02840984       0.031
   0.03479330  0.02008751  0.05681742       0.031
   0.10437990 -0.02009027  0.02840748       0.031
   0.06958660 -0.04017778  0.09943094       0.062
   0.00000000  0.00000000  0.12784088       0.031
  -0.10437990  0.18079588  0.00000031       0.031
   0.10437990  0.06026253 -0.08522951       0.031
   0.06958660  0.04017502 -0.01420604       0.031
 
 k-points in reciprocal lattice and weights: pymatgen v2020.8.13 with grid density = 
   0.12500000  0.12500000  0.12500000       0.031
   0.37500000  0.12500000  0.12500000       0.062
  -0.37500000  0.12500000  0.12500000       0.062
  -0.12500000  0.12500000  0.12500000       0.062
   0.12500000  0.37500000  0.12500000       0.062
   0.37500000  0.37500000  0.12500000       0.031
  -0.37500000  0.37500000  0.12500000       0.031
  -0.12500000  0.37500000  0.12500000       0.062
   0.12500000 -0.37500000  0.12500000       0.062
   0.37500000 -0.37500000  0.12500000       0.062
  -0.37500000 -0.37500000  0.12500000       0.031
   0.12500000 -0.12500000  0.12500000       0.031
   0.37500000 -0.12500000  0.12500000       0.062
  -0.37500000 -0.12500000  0.12500000       0.062
  -0.12500000 -0.12500000  0.12500000       0.031
   0.12500000  0.12500000  0.37500000       0.031
  -0.12500000  0.12500000  0.37500000       0.031
   0.12500000  0.37500000  0.37500000       0.062
   0.37500000  0.37500000  0.37500000       0.031
   0.37500000 -0.37500000  0.37500000       0.031
  -0.37500000 -0.37500000  0.37500000       0.031
  -0.12500000 -0.12500000  0.37500000       0.031
 
 position of ions in fractional coordinates (direct lattice) 
   0.00000000  0.00000000  0.00000000
   0.00000000  0.50000000  0.50000000
   0.49999995  0.25000006  0.75000002
   0.49999995  0.75000006  0.25000002
 
 position of ions in cartesian coordinates  (Angst):
   0.00000000  0.00000000  0.00000000
   1.79639300  1.03711670  2.93333400
   1.79645910  3.11131450  4.40000110
   0.00007460  0.00003540  4.40000110
 


--------------------------------------------------------------------------------------------------------


 k-point  1 :   0.1250 0.1250 0.1250  plane waves:    1680
 k-point  2 :   0.3750 0.1250 0.1250  plane waves:    1666
 k-point  3 :  -0.3750 0.1250 0.1250  plane waves:    1651
 k-point  4 :  -0.1250 0.1250 0.1250  plane waves:    1675
 k-point  5 :   0.1250 0.3750 0.1250  plane waves:    1663
 k-point  6 :   0.3750 0.3750 0.1250  plane waves:    1657
 k-point  7 :  -0.3750 0.3750 0.1250  plane waves:    1650
 k-point  8 :  -0.1250 0.3750 0.1250  plane waves:    1660
 k-point  9 :   0.1250-0.3750 0.1250  plane waves:    1663
 k-point 10 :   0.3750-0.3750 0.1250  plane waves:    1667
 k-point 11 :  -0.3750-0.3750 0.1250  plane waves:    1670
 k-point 12 :   0.1250-0.1250 0.1250  plane waves:    1661
 k-point 13 :   0.3750-0.1250 0.1250  plane waves:    1656
 k-point 14 :  -0.3750-0.1250 0.1250  plane waves:    1669
 k-point 15 :  -0.1250-0.1250 0.1250  plane waves:    1677
 k-point 16 :   0.1250 0.1250 0.3750  plane waves:    1670
 k-point 17 :  -0.1250 0.1250 0.3750  plane waves:    1676
 k-point 18 :   0.1250 0.3750 0.3750  plane waves:    1666
 k-point 19 :   0.3750 0.3750 0.3750  plane waves:    1657
 k-point 20 :   0.3750-0.3750 0.3750  plane waves:    1648
 k-point 21 :  -0.3750-0.3750 0.3750  plane waves:    1654
 k-point 22 :  -0.1250-0.1250 0.3750  plane waves:    1678

 maximum and minimum number of plane-waves per node :       427      405

 maximum number of plane-waves:      1680
 maximum index in each direction: 
   IXMAX=    6   IYMAX=    6   IZMAX=   11
   IXMIN=   -6   IYMIN=   -6   IZMIN=  -11


 parallel 3D FFT for wavefunctions:
    minimum data exchange during FFTs selected (reduces bandwidth)
 parallel 3D FFT for charge:
    minimum data exchange during FFTs selected (reduces bandwidth)


 total amount of memory used by VASP MPI-rank0    41555. kBytes
=======================================================================

   base      :      30000. kBytes
   nonl-proj :       4848. kBytes
   fftplans  :        608. kBytes
   grid      :       1468. kBytes
   one-center:         98. kBytes
   wavefun   :       4533. kBytes
 
     INWAV:  cpu time    0.0000: real time    0.0001
 Broyden mixing: mesh for mixing (old mesh)
   NGX = 13   NGY = 13   NGZ = 23
  (NGX  = 40   NGY  = 40   NGZ  = 72)
  gives a total of   3887 points

 initial charge density was supplied:
 charge density of overlapping atoms calculated
 number of electron      46.0000000 magnetization       0.0000000
 keeping initial charge density in first step


--------------------------------------------------------------------------------------------------------


 Maximum index for augmentation-charges         1439 (set IRDMAX)


--------------------------------------------------------------------------------------------------------


 First call to EWALD:  gamma=   0.440
 Maximum number of real-space cells 4x 3x 2
 Maximum number of reciprocal cells 3x 3x 4

    FEWALD:  cpu time    0.0013: real time    0.0013


--------------------------------------- Iteration      1(   1)  ---------------------------------------


    POTLOK:  cpu time    0.0252: real time    0.0277
    SETDIJ:  cpu time    0.0101: real time    0.0101
     EDDAV:  cpu time    0.8150: real time    0.8223
       DOS:  cpu time    0.0016: real time    0.0016
    --------------------------------------------
      LOOP:  cpu time    0.8519: real time    0.8617

 eigenvalue-minimisations  :  2968
 total energy-change (2. order) : 0.4317071E+03  (-0.1813251E+04)
 number of electron      46.0000000 magnetization       0.0000000
 augmentation part       46.0000000 magnetization       0.0000000

 Free energy of the ion-electron system (eV)
  ---------------------------------------------------
  alpha Z        PSCENC =       453.10565554
  Ewald energy   TEWEN  =     -4853.25068260
  -Hartree energ DENC   =     -1394.95400397
  -exchange      EXHF   =         0.00000000
  -V(xc)+E(xc)   XCENC  =       227.31531201
  PAW double counting   =      5122.54265185    -5413.80328534
  entropy T*S    EENTRO =        -0.00106622
  eigenvalues    EBANDS =       186.42637590
  atomic energy  EATOM  =      6104.32616516
  Solvation  Ediel_sol  =         0.00000000
  ---------------------------------------------------
  free energy    TOTEN  =       431.70712234 eV

  energy without entropy =      431.70818856  energy(sigma->0) =      431.70747775


--------------------------------------------------------------------------------------------------------




--------------------------------------- Iteration      1(   2)  ---------------------------------------


     EDDAV:  cpu time    0.8423: real time    0.8461
       DOS:  cpu time    0.0017: real time    0.0017
    --------------------------------------------
      LOOP:  cpu time    0.8440: real time    0.8479

 eigenvalue-minimisations  :  3328
 total energy-change (2. order) :-0.3771270E+03  (-0.3550392E+03)
 number of electron      46.0000000 magnetization       0.0000000
 augmentation part       46.0000000 magnetization       0.0000000

 Free energy of the ion-electron system (eV)
  ---------------------------------------------------
  alpha Z        PSCENC =       453.10565554
  Ewald energy   TEWEN  =     -4853.25068260
  -Hartree energ DENC   =     -1394.95400397
  -exchange      EXHF   =         0.00000000
  -V(xc)+E(xc)   XCENC  =       227.31531201
  PAW double counting   =      5122.54265185    -5413.80328534
  entropy T*S    EENTRO =         0.00241958
  eigenvalues    EBANDS =      -190.70414586
  atomic energy  EATOM  =      6104.32616516
  Solvation  Ediel_sol  =         0.00000000
  ---------------------------------------------------
  free energy    TOTEN  =        54.58008638 eV

  energy without entropy =       54.57766680  energy(sigma->0) =       54.57927985


--------------------------------------------------------------------------------------------------------




--------------------------------------- Iteration      1(   3)  ---------------------------------------


     EDDAV:  cpu time    1.0020: real time    1.0045
       DOS:  cpu time    0.0019: real time    0.0019
    --------------------------------------------
      LOOP:  cpu time    1.0039: real time    1.0172

 eigenvalue-minimisations  :  4240
 total energy-change (2. order) :-0.9102881E+02  (-0.8927278E+02)
 number of electron      46.0000000 magnetization       0.0000000
 augmentation part       46.0000000 magnetization       0.0000000

 Free energy of the ion-electron system (eV)
  ---------------------------------------------------
  alpha Z        PSCENC =       453.10565554
  Ewald energy   TEWEN  =     -4853.25068260
  -Hartree energ DENC   =     -1394.95400397
  -exchange      EXHF   =         0.00000000
  -V(xc)+E(xc)   XCENC  =       227.31531201
  PAW double counting   =      5122.54265185    -5413.80328534
  entropy T*S    EENTRO =         0.00597156
  eigenvalues    EBANDS =      -281.73650389
  atomic energy  EATOM  =      6104.32616516
  Solvation  Ediel_sol  =         0.00000000
  ---------------------------------------------------
  free energy    TOTEN  =       -36.44871967 eV

  energy without entropy =      -36.45469123  energy(sigma->0) =      -36.45071019


--------------------------------------------------------------------------------------------------------




--------------------------------------- Iteration      1(   4)  ---------------------------------------


     EDDAV:  cpu time    0.9702: real time    0.9835
       DOS:  cpu time    0.0020: real time    0.0020
    --------------------------------------------
      LOOP:  cpu time    0.9722: real time    0.9747

 eigenvalue-minimisations  :  4284
 total energy-change (2. order) :-0.7698069E+01  (-0.7339168E+01)
 number of electron      46.0000000 magnetization       0.0000000
 augmentation part       46.0000000 magnetization       0.0000000

 Free energy of the ion-electron system (eV)
  ---------------------------------------------------
  alpha Z        PSCENC =       453.10565554
  Ewald energy   TEWEN  =     -4853.25068260
  -Hartree energ DENC   =     -1394.95400397
  -exchange      EXHF   =         0.00000000
  -V(xc)+E(xc)   XCENC  =       227.31531201
  PAW double counting   =      5122.54265185    -5413.80328534
  entropy T*S    EENTRO =        -0.00925246
  eigenvalues    EBANDS =      -289.41934865
  atomic energy  EATOM  =      6104.32616516
  Solvation  Ediel_sol  =         0.00000000
  ---------------------------------------------------
  free energy    TOTEN  =       -44.14678845 eV

  energy without entropy =      -44.13753599  energy(sigma->0) =      -44.14370430


--------------------------------------------------------------------------------------------------------




--------------------------------------- Iteration      1(   5)  ---------------------------------------


     EDDAV:  cpu time    0.9987: real time    1.0012
       DOS:  cpu time    0.0020: real time    0.0020
    CHARGE:  cpu time    0.0448: real time    0.0449
    MIXING:  cpu time    0.0006: real time    0.0006
    --------------------------------------------
      LOOP:  cpu time    1.0461: real time    1.0487

 eigenvalue-minimisations  :  4460
 total energy-change (2. order) :-0.8679301E+00  (-0.8102948E+00)
 number of electron      45.9999973 magnetization       0.0000000
 augmentation part        8.7085363 magnetization       0.0000000

 Broyden mixing:
  rms(total) = 0.26844E+01    rms(broyden)= 0.26842E+01
  rms(prec ) = 0.49438E+01
  weight for this iteration     100.00

 Free energy of the ion-electron system (eV)
  ---------------------------------------------------
  alpha Z        PSCENC =       453.10565554
  Ewald energy   TEWEN  =     -4853.25068260
  -Hartree energ DENC   =     -1394.95400397
  -exchange      EXHF   =         0.00000000
  -V(xc)+E(xc)   XCENC  =       227.31531201
  PAW double counting   =      5122.54265185    -5413.80328534
  entropy T*S    EENTRO =        -0.00928709
  eigenvalues    EBANDS =      -290.28724417
  atomic energy  EATOM  =      6104.32616516
  Solvation  Ediel_sol  =         0.00000000
  ---------------------------------------------------
  free energy    TOTEN  =       -45.01471860 eV

  energy without entropy =      -45.00543151  energy(sigma->0) =      -45.01162290


--------------------------------------------------------------------------------------------------------




--------------------------------------- Iteration      1(   6)  ---------------------------------------


    POTLOK:  cpu time    0.0162: real time    0.0163
    SETDIJ:  cpu time    0.0085: real time    0.0085
     EDDAV:  cpu time    0.9489: real time    0.9511
       DOS:  cpu time    0.0018: real time    0.0018
    CHARGE:  cpu time    0.0448: real time    0.0449
    MIXING:  cpu time    0.0010: real time    0.0010
    --------------------------------------------
      LOOP:  cpu time    1.0212: real time    1.0237

 eigenvalue-minimisations  :  4120
 total energy-change (2. order) :-0.4068247E+02  (-0.6668108E+02)
 number of electron      46.0000038 magnetization       0.0000000
 augmentation part       22.4646821 magnetization       0.0000000

 Broyden mixing:
  rms(total) = 0.10801E+02    rms(broyden)= 0.10801E+02
  rms(prec ) = 0.17656E+02
  weight for this iteration     100.00

 eigenvalues of (default mixing * dielectric matrix)
  average eigenvalue GAMMA=   0.1460
  0.1460

 Free energy of the ion-electron system (eV)
  ---------------------------------------------------
  alpha Z        PSCENC =       453.10565554
  Ewald energy   TEWEN  =     -4853.25068260
  -Hartree energ DENC   =     -1268.87226704
  -exchange      EXHF   =         0.00000000
  -V(xc)+E(xc)   XCENC  =       223.76974580
  PAW double counting   =      4939.13089377    -5174.77625018
  entropy T*S    EENTRO =        -0.00184552
  eigenvalues    EBANDS =      -509.12860550
  atomic energy  EATOM  =      6104.32616516
  Solvation  Ediel_sol  =         0.00000000
  ---------------------------------------------------
  free energy    TOTEN  =       -85.69719058 eV

  energy without entropy =      -85.69534505  energy(sigma->0) =      -85.69657540


--------------------------------------------------------------------------------------------------------




--------------------------------------- Iteration      1(   7)  ---------------------------------------


    POTLOK:  cpu time    0.0195: real time    0.0196
    SETDIJ:  cpu time    0.0098: real time    0.0098
     EDDAV:  cpu time    0.9058: real time    0.9079
       DOS:  cpu time    0.0021: real time    0.0021
    CHARGE:  cpu time    0.0451: real time    0.0453
    MIXING:  cpu time    0.0008: real time    0.0008
    --------------------------------------------
      LOOP:  cpu time    0.9831: real time    0.9855

 eigenvalue-minimisations  :  3864
 total energy-change (2. order) : 0.5933181E+02  (-0.4445046E+02)
 number of electron      45.9999998 magnetization       0.0000000
 augmentation part       10.6057688 magnetization       0.0000000

 Broyden mixing:
  rms(total) = 0.23592E+01    rms(broyden)= 0.23587E+01
  rms(prec ) = 0.24543E+01
  weight for this iteration     100.00

 eigenvalues of (default mixing * dielectric matrix)
  average eigenvalue GAMMA=   0.2285
  0.2285  0.2285

 Free energy of the ion-electron system (eV)
  ---------------------------------------------------
  alpha Z        PSCENC =       453.10565554
  Ewald energy   TEWEN  =     -4853.25068260
  -Hartree energ DENC   =     -1356.27600603
  -exchange      EXHF   =         0.00000000
  -V(xc)+E(xc)   XCENC  =       224.27882338
  PAW double counting   =      5163.42146133    -5453.22217439
  entropy T*S    EENTRO =         0.00405331
  eigenvalues    EBANDS =      -308.75267485
  atomic energy  EATOM  =      6104.32616516
  Solvation  Ediel_sol  =         0.00000000
  ---------------------------------------------------
  free energy    TOTEN  =       -26.36537915 eV

  energy without entropy =      -26.36943246  energy(sigma->0) =      -26.36673025


--------------------------------------------------------------------------------------------------------




--------------------------------------- Iteration      1(   8)  ---------------------------------------


    POTLOK:  cpu time    0.0179: real time    0.0180
    SETDIJ:  cpu time    0.0102: real time    0.0102
     EDDAV:  cpu time    0.8901: real time    0.8922
       DOS:  cpu time    0.0020: real time    0.0020
    CHARGE:  cpu time    0.0635: real time    0.0637
    MIXING:  cpu time    0.0010: real time    0.0010
    --------------------------------------------
      LOOP:  cpu time    0.9847: real time    0.9872

 eigenvalue-minimisations  :  3932
 total energy-change (2. order) :-0.1433747E+02  (-0.1125958E+02)
 number of electron      45.9999987 magnetization       0.0000000
 augmentation part       12.1246650 magnetization       0.0000000

 Broyden mixing:
  rms(total) = 0.21812E+01    rms(broyden)= 0.21810E+01
  rms(prec ) = 0.24345E+01
  weight for this iteration     100.00

 eigenvalues of (default mixing * dielectric matrix)
  average eigenvalue GAMMA=   0.3130
  0.3674  0.3674  0.2042

 Free energy of the ion-electron system (eV)
  ---------------------------------------------------
  alpha Z        PSCENC =       453.10565554
  Ewald energy   TEWEN  =     -4853.25068260
  -Hartree energ DENC   =     -1349.97530324
  -exchange      EXHF   =         0.00000000
  -V(xc)+E(xc)   XCENC  =       225.20083822
  PAW double counting   =      5184.15690422    -5474.11528159
  entropy T*S    EENTRO =        -0.00161960
  eigenvalues    EBANDS =      -330.14952155
  atomic energy  EATOM  =      6104.32616516
  Solvation  Ediel_sol  =         0.00000000
  ---------------------------------------------------
  free energy    TOTEN  =       -40.70284543 eV

  energy without entropy =      -40.70122583  energy(sigma->0) =      -40.70230556


--------------------------------------------------------------------------------------------------------




--------------------------------------- Iteration      1(   9)  ---------------------------------------


    POTLOK:  cpu time    0.0198: real time    0.0200
    SETDIJ:  cpu time    0.0104: real time    0.0105
     EDDAV:  cpu time    0.9526: real time    0.9548
       DOS:  cpu time    0.0020: real time    0.0020
    CHARGE:  cpu time    0.0448: real time    0.0449
    MIXING:  cpu time    0.0007: real time    0.0007
    --------------------------------------------
      LOOP:  cpu time    1.0303: real time    1.0329

 eigenvalue-minimisations  :  3896
 total energy-change (2. order) :-0.7189573E+00  (-0.1138755E+01)
 number of electron      45.9999989 magnetization       0.0000000
 augmentation part       11.6259888 magnetization       0.0000000

 Broyden mixing:
  rms(total) = 0.13358E+01    rms(broyden)= 0.13357E+01
  rms(prec ) = 0.15920E+01
  weight for this iteration     100.00

 eigenvalues of (default mixing * dielectric matrix)
  average eigenvalue GAMMA=   0.5245
  0.8039  0.2009  0.5466  0.5466

 Free energy of the ion-electron system (eV)
  ---------------------------------------------------
  alpha Z        PSCENC =       453.10565554
  Ewald energy   TEWEN  =     -4853.25068260
  -Hartree energ DENC   =     -1369.51897652
  -exchange      EXHF   =         0.00000000
  -V(xc)+E(xc)   XCENC  =       227.50984618
  PAW double counting   =      5208.98748779    -5506.60262307
  entropy T*S    EENTRO =         0.01739812
  eigenvalues    EBANDS =      -305.99607338
  atomic energy  EATOM  =      6104.32616516
  Solvation  Ediel_sol  =         0.00000000
  ---------------------------------------------------
  free energy    TOTEN  =       -41.42180277 eV

  energy without entropy =      -41.43920089  energy(sigma->0) =      -41.42760215


--------------------------------------------------------------------------------------------------------




--------------------------------------- Iteration      1(  10)  ---------------------------------------


    POTLOK:  cpu time    0.0160: real time    0.0161
    SETDIJ:  cpu time    0.0079: real time    0.0080
     EDDAV:  cpu time    1.0873: real time    1.0899
       DOS:  cpu time    0.0020: real time    0.0020
    CHARGE:  cpu time    0.0473: real time    0.0474
    MIXING:  cpu time    0.0012: real time    0.0012
    --------------------------------------------
      LOOP:  cpu time    1.1617: real time    1.1645

 eigenvalue-minimisations  :  4504
 total energy-change (2. order) :-0.1838522E+00  (-0.2312200E+00)
 number of electron      45.9999990 magnetization       0.0000000
 augmentation part       11.2275622 magnetization       0.0000000

 Broyden mixing:
  rms(total) = 0.87314E+00    rms(broyden)= 0.87313E+00
  rms(prec ) = 0.11470E+01
  weight for this iteration     100.00

 eigenvalues of (default mixing * dielectric matrix)
  average eigenvalue GAMMA=   0.5844
  0.8466  0.8466  0.2013  0.5138  0.5138

 Free energy of the ion-electron system (eV)
  ---------------------------------------------------
  alpha Z        PSCENC =       453.10565554
  Ewald energy   TEWEN  =     -4853.25068260
  -Hartree energ DENC   =     -1380.23094381
  -exchange      EXHF   =         0.00000000
  -V(xc)+E(xc)   XCENC  =       229.46472687
  PAW double counting   =      5227.25416785    -5532.90001792
  entropy T*S    EENTRO =         0.01191089
  eigenvalues    EBANDS =      -289.38663700
  atomic energy  EATOM  =      6104.32616516
  Solvation  Ediel_sol  =         0.00000000
  ---------------------------------------------------
  free energy    TOTEN  =       -41.60565502 eV

  energy without entropy =      -41.61756590  energy(sigma->0) =      -41.60962531


--------------------------------------------------------------------------------------------------------




--------------------------------------- Iteration      1(  11)  ---------------------------------------


    POTLOK:  cpu time    0.0202: real time    0.0204
    SETDIJ:  cpu time    0.0101: real time    0.0101
     EDDAV:  cpu time    1.0873: real time    1.0899
       DOS:  cpu time    0.0019: real time    0.0019
    CHARGE:  cpu time    0.0446: real time    0.0447
    MIXING:  cpu time    0.0010: real time    0.0010
    --------------------------------------------
      LOOP:  cpu time    1.1651: real time    1.1680

 eigenvalue-minimisations  :  4612
 total energy-change (2. order) :-0.1511626E+00  (-0.5589375E-01)
 number of electron      45.9999991 magnetization      -0.0000000
 augmentation part       11.1498454 magnetization      -0.0000000

 Broyden mixing:
  rms(total) = 0.56795E+00    rms(broyden)= 0.56794E+00
  rms(prec ) = 0.83933E+00
  weight for this iteration     100.00

 eigenvalues of (default mixing * dielectric matrix)
  average eigenvalue GAMMA=   0.8899
  2.4417  1.0036  0.2011  0.5168  0.5168  0.6595

 Free energy of the ion-electron system (eV)
  ---------------------------------------------------
  alpha Z        PSCENC =       453.10565554
  Ewald energy   TEWEN  =     -4853.25068260
  -Hartree energ DENC   =     -1384.61088249
  -exchange      EXHF   =         0.00000000
  -V(xc)+E(xc)   XCENC  =       230.69766261
  PAW double counting   =      5239.32416722    -5548.72886977
  entropy T*S    EENTRO =         0.00935743
  eigenvalues    EBANDS =      -282.62939077
  atomic energy  EATOM  =      6104.32616516
  Solvation  Ediel_sol  =         0.00000000
  ---------------------------------------------------
  free energy    TOTEN  =       -41.75681765 eV

  energy without entropy =      -41.76617509  energy(sigma->0) =      -41.75993680


--------------------------------------------------------------------------------------------------------




--------------------------------------- Iteration      1(  12)  ---------------------------------------


    POTLOK:  cpu time    0.0200: real time    0.0201
    SETDIJ:  cpu time    0.0098: real time    0.0098
     EDDAV:  cpu time    1.0767: real time    1.0792
       DOS:  cpu time    0.0019: real time    0.0019
    CHARGE:  cpu time    0.0452: real time    0.0453
    MIXING:  cpu time    0.0014: real time    0.0014
    --------------------------------------------
      LOOP:  cpu time    1.1550: real time    1.1578

 eigenvalue-minimisations  :  4328
 total energy-change (2. order) : 0.6145306E-01  (-0.1409811E+00)
 number of electron      45.9999994 magnetization       0.0000000
 augmentation part       11.4641569 magnetization       0.0000000

 Broyden mixing:
  rms(total) = 0.31975E+00    rms(broyden)= 0.31972E+00
  rms(prec ) = 0.44010E+00
  weight for this iteration     100.00

 eigenvalues of (default mixing * dielectric matrix)
  average eigenvalue GAMMA=   0.9434
  3.0159  1.0070  0.2011  0.5217  0.5217  0.6683  0.6683

 Free energy of the ion-electron system (eV)
  ---------------------------------------------------
  alpha Z        PSCENC =       453.10565554
  Ewald energy   TEWEN  =     -4853.25068260
  -Hartree energ DENC   =     -1382.74303734
  -exchange      EXHF   =         0.00000000
  -V(xc)+E(xc)   XCENC  =       232.99290882
  PAW double counting   =      5265.10238026    -5578.43666620
  entropy T*S    EENTRO =         0.01353464
  eigenvalues    EBANDS =      -282.80562289
  atomic energy  EATOM  =      6104.32616516
  Solvation  Ediel_sol  =         0.00000000
  ---------------------------------------------------
  free energy    TOTEN  =       -41.69536459 eV

  energy without entropy =      -41.70889923  energy(sigma->0) =      -41.69987614


--------------------------------------------------------------------------------------------------------




--------------------------------------- Iteration      1(  13)  ---------------------------------------


    POTLOK:  cpu time    0.0210: real time    0.0211
    SETDIJ:  cpu time    0.0104: real time    0.0104
     EDDAV:  cpu time    0.9860: real time    0.9884
       DOS:  cpu time    0.0020: real time    0.0020
    CHARGE:  cpu time    0.0552: real time    0.0553
    MIXING:  cpu time    0.0016: real time    0.0016
    --------------------------------------------
      LOOP:  cpu time    1.0761: real time    1.0789

 eigenvalue-minimisations  :  4336
 total energy-change (2. order) : 0.7071739E-01  (-0.3306519E-01)
 number of electron      45.9999993 magnetization       0.0000000
 augmentation part       11.6274370 magnetization       0.0000000

 Broyden mixing:
  rms(total) = 0.23292E+00    rms(broyden)= 0.23292E+00
  rms(prec ) = 0.30533E+00
  weight for this iteration     100.00

 eigenvalues of (default mixing * dielectric matrix)
  average eigenvalue GAMMA=   0.9873
  2.9253  1.4580  0.2011  0.5183  0.5183  0.8157  0.8157  0.6456

 Free energy of the ion-electron system (eV)
  ---------------------------------------------------
  alpha Z        PSCENC =       453.10565554
  Ewald energy   TEWEN  =     -4853.25068260
  -Hartree energ DENC   =     -1378.97701947
  -exchange      EXHF   =         0.00000000
  -V(xc)+E(xc)   XCENC  =       232.92330397
  PAW double counting   =      5266.03139517    -5577.11628916
  entropy T*S    EENTRO =         0.01455467
  eigenvalues    EBANDS =      -288.68173048
  atomic energy  EATOM  =      6104.32616516
  Solvation  Ediel_sol  =         0.00000000
  ---------------------------------------------------
  free energy    TOTEN  =       -41.62464720 eV

  energy without entropy =      -41.63920187  energy(sigma->0) =      -41.62949876


--------------------------------------------------------------------------------------------------------




--------------------------------------- Iteration      1(  14)  ---------------------------------------


    POTLOK:  cpu time    0.0219: real time    0.0220
    SETDIJ:  cpu time    0.0104: real time    0.0104
     EDDAV:  cpu time    1.0603: real time    1.0628
       DOS:  cpu time    0.0019: real time    0.0019
    CHARGE:  cpu time    0.0494: real time    0.0496
    MIXING:  cpu time    0.0014: real time    0.0014
    --------------------------------------------
      LOOP:  cpu time    1.1453: real time    1.1481

 eigenvalue-minimisations  :  4168
 total energy-change (2. order) : 0.6757457E-02  (-0.4052246E-02)
 number of electron      45.9999993 magnetization      -0.0000000
 augmentation part       11.6758111 magnetization      -0.0000000

 Broyden mixing:
  rms(total) = 0.19822E+00    rms(broyden)= 0.19822E+00
  rms(prec ) = 0.25691E+00
  weight for this iteration     100.00

 eigenvalues of (default mixing * dielectric matrix)
  average eigenvalue GAMMA=   1.0114
  2.6715  1.7255  1.2879  0.2011  0.5184  0.5184  0.7569  0.7114  0.7114

 Free energy of the ion-electron system (eV)
  ---------------------------------------------------
  alpha Z        PSCENC =       453.10565554
  Ewald energy   TEWEN  =     -4853.25068260
  -Hartree energ DENC   =     -1377.93118291
  -exchange      EXHF   =         0.00000000
  -V(xc)+E(xc)   XCENC  =       232.87421689
  PAW double counting   =      5271.23970787    -5581.20751721
  entropy T*S    EENTRO =         0.01455816
  eigenvalues    EBANDS =      -290.78881066
  atomic energy  EATOM  =      6104.32616516
  Solvation  Ediel_sol  =         0.00000000
  ---------------------------------------------------
  free energy    TOTEN  =       -41.61788975 eV

  energy without entropy =      -41.63244791  energy(sigma->0) =      -41.62274247


--------------------------------------------------------------------------------------------------------




--------------------------------------- Iteration      1(  15)  ---------------------------------------


    POTLOK:  cpu time    0.0210: real time    0.0212
    SETDIJ:  cpu time    0.0107: real time    0.0107
     EDDAV:  cpu time    1.0307: real time    1.0331
       DOS:  cpu time    0.0020: real time    0.0020
    CHARGE:  cpu time    0.0476: real time    0.0477
    MIXING:  cpu time    0.0016: real time    0.0016
    --------------------------------------------
      LOOP:  cpu time    1.1136: real time    1.1163

 eigenvalue-minimisations  :  4296
 total energy-change (2. order) : 0.6305477E-02  (-0.3975051E-02)
 number of electron      45.9999992 magnetization      -0.0000000
 augmentation part       11.7057436 magnetization      -0.0000000

 Broyden mixing:
  rms(total) = 0.10166E+00    rms(broyden)= 0.10165E+00
  rms(prec ) = 0.13759E+00
  weight for this iteration     100.00

 eigenvalues of (default mixing * dielectric matrix)
  average eigenvalue GAMMA=   1.1101
  2.4800  2.2207  2.2207  0.2011  0.5186  0.5186  0.7620  0.7620  0.7884  0.6288

 Free energy of the ion-electron system (eV)
  ---------------------------------------------------
  alpha Z        PSCENC =       453.10565554
  Ewald energy   TEWEN  =     -4853.25068260
  -Hartree energ DENC   =     -1378.00971040
  -exchange      EXHF   =         0.00000000
  -V(xc)+E(xc)   XCENC  =       232.61739766
  PAW double counting   =      5283.71577119    -5591.52900494
  entropy T*S    EENTRO =         0.01497079
  eigenvalues    EBANDS =      -292.60214665
  atomic energy  EATOM  =      6104.32616516
  Solvation  Ediel_sol  =         0.00000000
  ---------------------------------------------------
  free energy    TOTEN  =       -41.61158427 eV

  energy without entropy =      -41.62655505  energy(sigma->0) =      -41.61657453


--------------------------------------------------------------------------------------------------------




--------------------------------------- Iteration      1(  16)  ---------------------------------------


    POTLOK:  cpu time    0.0212: real time    0.0214
    SETDIJ:  cpu time    0.0110: real time    0.0110
     EDDAV:  cpu time    1.0555: real time    1.0580
       DOS:  cpu time    0.0020: real time    0.0020
    CHARGE:  cpu time    0.0549: real time    0.0551
    MIXING:  cpu time    0.0014: real time    0.0014
    --------------------------------------------
      LOOP:  cpu time    1.1460: real time    1.1488

 eigenvalue-minimisations  :  4528
 total energy-change (2. order) :-0.3989402E-03  (-0.1691116E-02)
 number of electron      45.9999992 magnetization       0.0000000
 augmentation part       11.6835640 magnetization       0.0000000

 Broyden mixing:
  rms(total) = 0.57876E-01    rms(broyden)= 0.57872E-01
  rms(prec ) = 0.69616E-01
  weight for this iteration     100.00

 eigenvalues of (default mixing * dielectric matrix)
  average eigenvalue GAMMA=   1.1157
  2.6117  2.3381  2.3381  0.2011  0.5185  0.5185  0.8815  0.8815  0.6865  0.6865
  0.6106

 Free energy of the ion-electron system (eV)
  ---------------------------------------------------
  alpha Z        PSCENC =       453.10565554
  Ewald energy   TEWEN  =     -4853.25068260
  -Hartree energ DENC   =     -1378.46631480
  -exchange      EXHF   =         0.00000000
  -V(xc)+E(xc)   XCENC  =       232.47563428
  PAW double counting   =      5288.03483763    -5595.51066951
  entropy T*S    EENTRO =         0.01537048
  eigenvalues    EBANDS =      -292.34197938
  atomic energy  EATOM  =      6104.32616516
  Solvation  Ediel_sol  =         0.00000000
  ---------------------------------------------------
  free energy    TOTEN  =       -41.61198321 eV

  energy without entropy =      -41.62735369  energy(sigma->0) =      -41.61710670


--------------------------------------------------------------------------------------------------------




--------------------------------------- Iteration      1(  17)  ---------------------------------------


    POTLOK:  cpu time    0.0198: real time    0.0199
    SETDIJ:  cpu time    0.0087: real time    0.0087
     EDDAV:  cpu time    1.0769: real time    1.0794
       DOS:  cpu time    0.0019: real time    0.0019
    CHARGE:  cpu time    0.0532: real time    0.0534
    MIXING:  cpu time    0.0017: real time    0.0017
    --------------------------------------------
      LOOP:  cpu time    1.1622: real time    1.1650

 eigenvalue-minimisations  :  4464
 total energy-change (2. order) :-0.8943612E-04  (-0.2750116E-03)
 number of electron      45.9999992 magnetization       0.0000000
 augmentation part       11.6849900 magnetization       0.0000000

 Broyden mixing:
  rms(total) = 0.39446E-01    rms(broyden)= 0.39444E-01
  rms(prec ) = 0.45694E-01
  weight for this iteration     100.00

 eigenvalues of (default mixing * dielectric matrix)
  average eigenvalue GAMMA=   1.1363
  2.7418  2.4671  2.4671  0.2011  0.5185  0.5185  1.0262  1.0262  0.7033  0.7033
  0.6311  0.6311

 Free energy of the ion-electron system (eV)
  ---------------------------------------------------
  alpha Z        PSCENC =       453.10565554
  Ewald energy   TEWEN  =     -4853.25068260
  -Hartree energ DENC   =     -1378.24297710
  -exchange      EXHF   =         0.00000000
  -V(xc)+E(xc)   XCENC  =       232.39580331
  PAW double counting   =      5287.87273294    -5595.34587039
  entropy T*S    EENTRO =         0.01549625
  eigenvalues    EBANDS =      -292.48839576
  atomic energy  EATOM  =      6104.32616516
  Solvation  Ediel_sol  =         0.00000000
  ---------------------------------------------------
  free energy    TOTEN  =       -41.61207265 eV

  energy without entropy =      -41.62756890  energy(sigma->0) =      -41.61723806


--------------------------------------------------------------------------------------------------------




--------------------------------------- Iteration      1(  18)  ---------------------------------------


    POTLOK:  cpu time    0.0199: real time    0.0200
    SETDIJ:  cpu time    0.0100: real time    0.0100
     EDDAV:  cpu time    0.9320: real time    0.9343
       DOS:  cpu time    0.0019: real time    0.0019
    CHARGE:  cpu time    0.0509: real time    0.0510
    MIXING:  cpu time    0.0016: real time    0.0016
    --------------------------------------------
      LOOP:  cpu time    1.0164: real time    1.0190

 eigenvalue-minimisations  :  3952
 total energy-change (2. order) :-0.4462266E-04  (-0.2241992E-03)
 number of electron      45.9999992 magnetization       0.0000000
 augmentation part       11.6702707 magnetization       0.0000000

 Broyden mixing:
  rms(total) = 0.17673E-01    rms(broyden)= 0.17673E-01
  rms(prec ) = 0.19140E-01
  weight for this iteration     100.00

 eigenvalues of (default mixing * dielectric matrix)
  average eigenvalue GAMMA=   1.1836
  2.8824  2.8824  2.3492  1.2863  1.2863  0.2011  0.5185  0.5185  0.7817  0.7817
  0.7058  0.6082  0.5849

 Free energy of the ion-electron system (eV)
  ---------------------------------------------------
  alpha Z        PSCENC =       453.10565554
  Ewald energy   TEWEN  =     -4853.25068260
  -Hartree energ DENC   =     -1378.13578427
  -exchange      EXHF   =         0.00000000
  -V(xc)+E(xc)   XCENC  =       232.30696965
  PAW double counting   =      5285.73616033    -5593.57781171
  entropy T*S    EENTRO =         0.01565552
  eigenvalues    EBANDS =      -292.13844489
  atomic energy  EATOM  =      6104.32616516
  Solvation  Ediel_sol  =         0.00000000
  ---------------------------------------------------
  free energy    TOTEN  =       -41.61211727 eV

  energy without entropy =      -41.62777278  energy(sigma->0) =      -41.61733577


--------------------------------------------------------------------------------------------------------




--------------------------------------- Iteration      1(  19)  ---------------------------------------


    POTLOK:  cpu time    0.0194: real time    0.0196
    SETDIJ:  cpu time    0.0099: real time    0.0099
     EDDAV:  cpu time    1.0598: real time    1.0623
       DOS:  cpu time    0.0021: real time    0.0021
    CHARGE:  cpu time    0.0499: real time    0.0501
    MIXING:  cpu time    0.0013: real time    0.0013
    --------------------------------------------
      LOOP:  cpu time    1.1424: real time    1.1453

 eigenvalue-minimisations  :  4744
 total energy-change (2. order) :-0.6870099E-04  (-0.1327534E-03)
 number of electron      45.9999992 magnetization      -0.0000000
 augmentation part       11.6658516 magnetization      -0.0000000

 Broyden mixing:
  rms(total) = 0.12831E-01    rms(broyden)= 0.12830E-01
  rms(prec ) = 0.15093E-01
  weight for this iteration     100.00

 eigenvalues of (default mixing * dielectric matrix)
  average eigenvalue GAMMA=   1.1624
  2.9903  2.9903  2.1046  1.5388  0.2011  0.5185  0.5185  1.0492  1.0492  0.7261
  0.7261  0.6788  0.5911  0.5911

 Free energy of the ion-electron system (eV)
  ---------------------------------------------------
  alpha Z        PSCENC =       453.10565554
  Ewald energy   TEWEN  =     -4853.25068260
  -Hartree energ DENC   =     -1377.98576210
  -exchange      EXHF   =         0.00000000
  -V(xc)+E(xc)   XCENC  =       232.20634174
  PAW double counting   =      5284.67562696    -5592.51331110
  entropy T*S    EENTRO =         0.01573874
  eigenvalues    EBANDS =      -292.19195832
  atomic energy  EATOM  =      6104.32616516
  Solvation  Ediel_sol  =         0.00000000
  ---------------------------------------------------
  free energy    TOTEN  =       -41.61218597 eV

  energy without entropy =      -41.62792471  energy(sigma->0) =      -41.61743222


--------------------------------------------------------------------------------------------------------




--------------------------------------- Iteration      1(  20)  ---------------------------------------


    POTLOK:  cpu time    0.0161: real time    0.0163
    SETDIJ:  cpu time    0.0085: real time    0.0085
     EDDAV:  cpu time    0.9295: real time    0.9317
       DOS:  cpu time    0.0020: real time    0.0020
    CHARGE:  cpu time    0.0509: real time    0.0510
    MIXING:  cpu time    0.0021: real time    0.0021
    --------------------------------------------
      LOOP:  cpu time    1.0091: real time    1.0115

 eigenvalue-minimisations  :  3960
 total energy-change (2. order) : 0.5751867E-05  (-0.1604966E-04)
 number of electron      45.9999992 magnetization      -0.0000000
 augmentation part       11.6669272 magnetization      -0.0000000

 Broyden mixing:
  rms(total) = 0.92536E-02    rms(broyden)= 0.92533E-02
  rms(prec ) = 0.10556E-01
  weight for this iteration     100.00

 eigenvalues of (default mixing * dielectric matrix)
  average eigenvalue GAMMA=   1.2185
  3.0355  3.0355  2.2838  2.2838  1.1660  1.1660  0.2011  0.5185  0.5185  0.7718
  0.7718  0.6517  0.6517  0.6349  0.5861

 Free energy of the ion-electron system (eV)
  ---------------------------------------------------
  alpha Z        PSCENC =       453.10565554
  Ewald energy   TEWEN  =     -4853.25068260
  -Hartree energ DENC   =     -1378.05246727
  -exchange      EXHF   =         0.00000000
  -V(xc)+E(xc)   XCENC  =       232.21996885
  PAW double counting   =      5284.75414252    -5592.55060336
  entropy T*S    EENTRO =         0.01569558
  eigenvalues    EBANDS =      -292.18005464
  atomic energy  EATOM  =      6104.32616516
  Solvation  Ediel_sol  =         0.00000000
  ---------------------------------------------------
  free energy    TOTEN  =       -41.61218022 eV

  energy without entropy =      -41.62787580  energy(sigma->0) =      -41.61741208


--------------------------------------------------------------------------------------------------------




--------------------------------------- Iteration      1(  21)  ---------------------------------------


    POTLOK:  cpu time    0.0192: real time    0.0193
    SETDIJ:  cpu time    0.0092: real time    0.0092
     EDDAV:  cpu time    1.0427: real time    1.0452
       DOS:  cpu time    0.0019: real time    0.0019
    CHARGE:  cpu time    0.0500: real time    0.0501
    MIXING:  cpu time    0.0022: real time    0.0022
    --------------------------------------------
      LOOP:  cpu time    1.1252: real time    1.1279

 eigenvalue-minimisations  :  4608
 total energy-change (2. order) : 0.2179161E-05  (-0.4201570E-05)
 number of electron      45.9999992 magnetization       0.0000000
 augmentation part       11.6669526 magnetization       0.0000000

 Broyden mixing:
  rms(total) = 0.70576E-02    rms(broyden)= 0.70572E-02
  rms(prec ) = 0.75274E-02
  weight for this iteration     100.00

 eigenvalues of (default mixing * dielectric matrix)
  average eigenvalue GAMMA=   1.2619
  2.9194  2.9194  2.8089  2.6742  1.2448  1.2448  0.2011  0.5185  0.5185  0.9186
  0.9186  0.7163  0.7163  0.6367  0.6367  0.5967

 Free energy of the ion-electron system (eV)
  ---------------------------------------------------
  alpha Z        PSCENC =       453.10565554
  Ewald energy   TEWEN  =     -4853.25068260
  -Hartree energ DENC   =     -1378.11696306
  -exchange      EXHF   =         0.00000000
  -V(xc)+E(xc)   XCENC  =       232.22998069
  PAW double counting   =      5284.49974102    -5592.27343939
  entropy T*S    EENTRO =         0.01568203
  eigenvalues    EBANDS =      -292.14831743
  atomic energy  EATOM  =      6104.32616516
  Solvation  Ediel_sol  =         0.00000000
  ---------------------------------------------------
  free energy    TOTEN  =       -41.61217804 eV

  energy without entropy =      -41.62786007  energy(sigma->0) =      -41.61740538


--------------------------------------------------------------------------------------------------------




--------------------------------------- Iteration      1(  22)  ---------------------------------------


    POTLOK:  cpu time    0.0183: real time    0.0184
    SETDIJ:  cpu time    0.0090: real time    0.0090
     EDDAV:  cpu time    1.0986: real time    1.1013
       DOS:  cpu time    0.0018: real time    0.0018
    CHARGE:  cpu time    0.0518: real time    0.0520
    MIXING:  cpu time    0.0027: real time    0.0027
    --------------------------------------------
      LOOP:  cpu time    1.1822: real time    1.1851

 eigenvalue-minimisations  :  4444
 total energy-change (2. order) :-0.1478531E-04  (-0.4388789E-05)
 number of electron      45.9999992 magnetization      -0.0000000
 augmentation part       11.6667167 magnetization      -0.0000000

 Broyden mixing:
  rms(total) = 0.10438E-02    rms(broyden)= 0.10413E-02
  rms(prec ) = 0.11059E-02
  weight for this iteration     100.00

 eigenvalues of (default mixing * dielectric matrix)
  average eigenvalue GAMMA=   1.2156
  2.8812  2.8812  2.8229  2.1978  1.4184  1.4184  0.2011  0.5185  0.5185  0.9457
  0.9457  0.7340  0.7340  0.6363  0.6363  0.5875  0.5875

 Free energy of the ion-electron system (eV)
  ---------------------------------------------------
  alpha Z        PSCENC =       453.10565554
  Ewald energy   TEWEN  =     -4853.25068260
  -Hartree energ DENC   =     -1378.20304379
  -exchange      EXHF   =         0.00000000
  -V(xc)+E(xc)   XCENC  =       232.25560621
  PAW double counting   =      5284.45676830    -5592.24461434
  entropy T*S    EENTRO =         0.01567043
  eigenvalues    EBANDS =      -292.07371774
  atomic energy  EATOM  =      6104.32616516
  Solvation  Ediel_sol  =         0.00000000
  ---------------------------------------------------
  free energy    TOTEN  =       -41.61219282 eV

  energy without entropy =      -41.62786326  energy(sigma->0) =      -41.61741630


--------------------------------------------------------------------------------------------------------




--------------------------------------- Iteration      1(  23)  ---------------------------------------


    POTLOK:  cpu time    0.0204: real time    0.0206
    SETDIJ:  cpu time    0.0114: real time    0.0115
     EDDAV:  cpu time    0.6085: real time    0.6099
       DOS:  cpu time    0.0019: real time    0.0019
    --------------------------------------------
      LOOP:  cpu time    0.6422: real time    0.6438

 eigenvalue-minimisations  :  2448
 total energy-change (2. order) :-0.4295598E-06  (-0.3625530E-06)
 number of electron      45.9999992 magnetization      -0.0000000
 augmentation part       11.6667167 magnetization      -0.0000000

 Free energy of the ion-electron system (eV)
  ---------------------------------------------------
  alpha Z        PSCENC =       453.10565554
  Ewald energy   TEWEN  =     -4853.25068260
  -Hartree energ DENC   =     -1378.19891144
  -exchange      EXHF   =         0.00000000
  -V(xc)+E(xc)   XCENC  =       232.25367152
  PAW double counting   =      5284.44519806    -5592.24129058
  entropy T*S    EENTRO =         0.01567848
  eigenvalues    EBANDS =      -292.06767739
  atomic energy  EATOM  =      6104.32616516
  Solvation  Ediel_sol  =         0.00000000
  ---------------------------------------------------
  free energy    TOTEN  =       -41.61219325 eV

  energy without entropy =      -41.62787173  energy(sigma->0) =      -41.61741941


--------------------------------------------------------------------------------------------------------




 average (electrostatic) potential at core
  the test charge radii are     1.1829  0.7215
  (the norm of the test charge is              1.0000)
       1 -37.4127       2 -37.4127       3 -71.1809       4 -71.1809
 
 
 
 E-fermi :   4.8379     XC(G=0): -11.0338     alpha+bet :-12.2018


 spin component 1

 k-point     1 :       0.1250    0.1250    0.1250
  band No.  band energies     occupation 
      1     -36.2821      1.00000
      2     -33.2231      1.00000
      3     -16.1598      1.00000
      4     -15.1064      1.00000
      5     -14.7926      1.00000
      6     -13.9480      1.00000
      7     -13.5158      1.00000
      8     -12.4946      1.00000
      9     -12.3314      1.00000
     10     -11.6288      1.00000
     11      -0.7146      1.00000
     12       0.1693      1.00000
     13       0.1858      1.00000
     14       0.6749      1.00000
     15       0.9288      1.00000
     16       0.9315      1.00000
     17       4.4157      1.00000
     18       4.5733      1.00059
     19       4.5926      1.00142
     20       4.7081      1.03471
     21       4.7344      1.02840
     22       4.7727      0.94207
     23       4.8158      0.68263
     24       6.1103     -0.00000
     25       7.0383     -0.00000
     26       7.1457     -0.00000
     27       7.5029     -0.00000
     28       7.9183      0.00000

 k-point     2 :       0.3750    0.1250    0.1250
  band No.  band energies     occupation 
      1     -36.2386      1.00000
      2     -33.1673      1.00000
      3     -15.9168      1.00000
      4     -15.6159      1.00000
      5     -14.9967      1.00000
      6     -14.1886      1.00000
      7     -13.7100      1.00000
      8     -12.7330      1.00000
      9     -12.1740      1.00000
     10     -11.8394      1.00000
     11      -0.4429      1.00000
     12       0.0833      1.00000
     13       0.2189      1.00000
     14       0.7538      1.00000
     15       0.8021      1.00000
     16       0.8578      1.00000
     17       4.4796      1.00000
     18       4.5200      1.00003
     19       4.5650      1.00039
     20       4.6151      1.00357
     21       4.6348      1.00721
     22       4.6470      1.01061
     23       4.7429      1.01924
     24       6.1970     -0.00000
     25       7.0471     -0.00000
     26       8.1534      0.00000
     27       8.1795      0.00000
     28       8.5541      0.00000

 k-point     3 :      -0.3750    0.1250    0.1250
  band No.  band energies     occupation 
      1     -36.2203      1.00000
      2     -33.1440      1.00000
      3     -16.2248      1.00000
      4     -15.3582      1.00000
      5     -15.1110      1.00000
      6     -14.1312      1.00000
      7     -13.6927      1.00000
      8     -12.8824      1.00000
      9     -12.5531      1.00000
     10     -11.7077      1.00000
     11      -0.7141      1.00000
     12       0.1694      1.00000
     13       0.1873      1.00000
     14       0.8229      1.00000
     15       0.9454      1.00000
     16       1.0129      1.00000
     17       4.3653      1.00000
     18       4.5142      1.00002
     19       4.5321      1.00007
     20       4.6010      1.00203
     21       4.6268      1.00550
     22       4.6305      1.00624
     23       4.7257      1.03359
     24       5.0316     -0.00976
     25       7.4625     -0.00000
     26       8.5585      0.00000
     27       9.0218      0.00000
     28       9.0986      0.00000

 k-point     4 :      -0.1250    0.1250    0.1250
  band No.  band energies     occupation 
      1     -36.2639      1.00000
      2     -33.2006      1.00000
      3     -15.9157      1.00000
      4     -15.5311      1.00000
      5     -14.8671      1.00000
      6     -14.0106      1.00000
      7     -13.6197      1.00000
      8     -12.5907      1.00000
      9     -12.1039      1.00000
     10     -11.8429      1.00000
     11      -0.3367      1.00000
     12      -0.1146      1.00000
     13       0.2559      1.00000
     14       0.7610      1.00000
     15       0.7827      1.00000
     16       0.8884      1.00000
     17       4.3969      1.00000
     18       4.5561      1.00025
     19       4.5884      1.00118
     20       4.6502      1.01163
     21       4.6837      1.02572
     22       4.7300      1.03150
     23       4.7692      0.95541
     24       6.2787     -0.00000
     25       6.6198     -0.00000
     26       7.2334     -0.00000
     27       8.4582      0.00000
     28       8.5150      0.00000

 k-point     5 :       0.1250    0.3750    0.1250
  band No.  band energies     occupation 
      1     -36.2385      1.00000
      2     -33.1675      1.00000
      3     -15.9003      1.00000
      4     -15.6269      1.00000
      5     -14.9965      1.00000
      6     -14.2133      1.00000
      7     -13.6698      1.00000
      8     -12.7438      1.00000
      9     -12.1149      1.00000
     10     -11.9231      1.00000
     11      -0.2875      1.00000
     12      -0.1650      1.00000
     13       0.4623      1.00000
     14       0.4840      1.00000
     15       0.9271      1.00000
     16       0.9745      1.00000
     17       4.4439      1.00000
     18       4.5345      1.00008
     19       4.5738      1.00060
     20       4.6130      1.00329
     21       4.6251      1.00517
     22       4.6778      1.02301
     23       4.7442      1.01737
     24       6.0871     -0.00000
     25       7.2131     -0.00000
     26       7.6273      0.00000
     27       8.0032      0.00000
     28       8.8701      0.00000

 k-point     6 :       0.3750    0.3750    0.1250
  band No.  band energies     occupation 
      1     -36.2310      1.00000
      2     -33.1577      1.00000
      3     -16.0750      1.00000
      4     -15.4289      1.00000
      5     -14.9308      1.00000
      6     -14.5772      1.00000
      7     -13.4330      1.00000
      8     -12.6658      1.00000
      9     -12.4793      1.00000
     10     -11.7931      1.00000
     11      -0.4711      1.00000
     12       0.2836      1.00000
     13       0.3267      1.00000
     14       0.5073      1.00000
     15       0.6606      1.00000
     16       0.9898      1.00000
     17       4.4639      1.00000
     18       4.5189      1.00003
     19       4.5325      1.00007
     20       4.6177      1.00394
[...]
 -4.020  -0.357  -0.000   0.000   0.000   0.000  -0.000  -0.000
  0.000  -0.000 -15.665  -0.000  -0.001   7.372   0.000   0.001
 -0.000   0.000  -0.000 -15.665  -0.001   0.000   7.372   0.001
 -0.000   0.000  -0.001  -0.001 -15.666   0.001   0.001   7.373
  0.000   0.000   7.372   0.000   0.001   4.941  -0.000  -0.001
 -0.000  -0.000   0.000   7.372   0.001  -0.000   4.941  -0.001
 -0.000  -0.000   0.001   0.001   7.373  -0.001  -0.001   4.940
 -0.001  -0.000  -0.000   0.000   0.000  -0.000   0.000   0.000
 -0.000  -0.000  -0.000   0.000   0.000  -0.000   0.000   0.000
  0.000   0.000  -0.000  -0.000   0.000  -0.000  -0.000   0.000
 -0.001  -0.000   0.000  -0.000  -0.000   0.000  -0.000  -0.000
 -0.000  -0.000  -0.000  -0.000  -0.000  -0.000  -0.000  -0.000
  0.001   0.000  -0.000   0.000   0.000   0.000  -0.000  -0.000
  0.001   0.000  -0.000   0.000   0.000   0.000  -0.000  -0.000
 -0.001  -0.000   0.000   0.000  -0.000   0.000   0.000  -0.000
  0.001   0.000   0.000  -0.000  -0.000  -0.000   0.000   0.000
  0.001   0.000   0.000  -0.000  -0.000   0.000   0.000   0.000
 -0.000   0.000  -0.000  -0.003  -0.001   0.000  -0.001   0.001
 -0.000   0.000  -0.000  -0.001  -0.004   0.000   0.001  -0.001
 -0.000   0.000   0.002  -0.000   0.000   0.000   0.000  -0.000
 -0.000   0.000   0.000  -0.002   0.000  -0.000  -0.001  -0.000
  0.000  -0.000   0.000  -0.001   0.002  -0.000   0.001   0.000
  0.000  -0.000  -0.003  -0.000  -0.000  -0.002   0.000   0.000
  0.000  -0.000   0.001   0.000  -0.000  -0.001  -0.000   0.000
 -0.000   0.000  -0.000  -0.003  -0.001   0.000  -0.001   0.001
 -0.000   0.000  -0.000  -0.001  -0.004   0.000   0.001  -0.001
 -0.000   0.000   0.002  -0.000   0.000   0.000   0.000  -0.000
 -0.000   0.000   0.000  -0.002   0.000  -0.000  -0.001  -0.000
  0.000  -0.000   0.000  -0.001   0.002  -0.000   0.000   0.000
  0.000  -0.000  -0.003  -0.000  -0.000  -0.002   0.000   0.000
  0.000  -0.000   0.001   0.000  -0.000  -0.001  -0.000   0.000
 pseudopotential strength for first ion, spin component:           2
-15.730   0.730   0.000  -0.000  -0.000   0.000  -0.000  -0.000
  0.730  -3.409  -0.000   0.000   0.000   0.000  -0.000  -0.000
  0.000  -0.000 -17.545  -0.000  -0.001   7.753   0.001   0.002
 -0.000   0.000  -0.000 -17.545  -0.001   0.001   7.753   0.001
 -0.000   0.000  -0.001  -0.001 -17.546   0.002   0.001   7.755
  0.000   0.000   7.753   0.001   0.002   5.172  -0.001  -0.001
 -0.000  -0.000   0.001   7.753   0.001  -0.001   5.172  -0.001
 -0.000  -0.000   0.002   0.001   7.755  -0.001  -0.001   5.170
 -0.001  -0.000  -0.000   0.000   0.000  -0.000   0.000   0.000
 -0.000  -0.000  -0.000   0.000   0.000  -0.000   0.000   0.000
  0.000   0.000  -0.000  -0.000   0.000  -0.000  -0.000   0.000
 -0.000  -0.000   0.000  -0.000  -0.000   0.000  -0.000  -0.000
 -0.000  -0.000  -0.000  -0.000  -0.000  -0.000  -0.000  -0.000
  0.001   0.000  -0.000   0.000   0.000   0.000  -0.000  -0.000
  0.000   0.000  -0.000   0.000   0.000   0.000  -0.000  -0.000
 -0.001  -0.000   0.000   0.000  -0.000   0.000   0.000  -0.000
  0.001   0.000   0.000  -0.000  -0.000  -0.000   0.000   0.000
  0.001   0.000   0.000  -0.000  -0.000   0.000   0.000   0.000
 -0.000   0.000  -0.000  -0.021  -0.000   0.000   0.012   0.000
 -0.000   0.000  -0.000  -0.001  -0.026   0.000   0.001   0.014
 -0.000   0.000   0.012  -0.001   0.000  -0.007   0.001  -0.000
 -0.000   0.000  -0.000  -0.019  -0.000   0.000   0.010   0.000
  0.000  -0.000   0.000  -0.002   0.013  -0.000   0.001  -0.007
  0.000  -0.000  -0.026  -0.001  -0.000   0.014   0.000   0.000
  0.000  -0.000   0.002  -0.000  -0.001  -0.001   0.000   0.001
 -0.000   0.000  -0.000  -0.020  -0.000   0.000   0.011   0.000
 -0.000   0.000  -0.000  -0.001  -0.025   0.000   0.001   0.014
 -0.000   0.000   0.012  -0.001   0.000  -0.007   0.001  -0.000
 -0.000   0.000  -0.000  -0.018  -0.000   0.000   0.010   0.000
  0.000  -0.000   0.000  -0.001   0.012  -0.000   0.001  -0.007
  0.000  -0.000  -0.025  -0.001  -0.000   0.014   0.000   0.000
  0.000  -0.000   0.002  -0.000  -0.001  -0.001   0.000   0.001
 total augmentation occupancy for first ion, spin component:           1
  1.992  -0.037  -0.000  -0.000   0.000  -0.000   0.000   0.000  -0.000  -0.000   0.000  -0.000  -0.000  -0.000  -0.000   0.000
 -0.037   0.605  -0.000   0.000   0.000  -0.000   0.000   0.000  -0.001  -0.000   0.000  -0.000  -0.000  -0.000  -0.000   0.000
  0.000  -0.000   2.012   0.000   0.000  -0.019  -0.000  -0.000  -0.000  -0.000   0.000  -0.000   0.000   0.000  -0.000   0.000
 -0.000   0.000   0.000   2.012   0.000  -0.000  -0.019  -0.000   0.000   0.000   0.000  -0.000   0.000   0.000   0.000   0.000
  0.000   0.000   0.000   0.000   2.013  -0.000  -0.000  -0.019  -0.000  -0.000   0.000   0.000   0.000   0.000   0.000   0.000
  0.000   0.000  -0.019  -0.000  -0.000   0.020  -0.000  -0.000   0.000   0.000   0.000   0.000   0.000  -0.000  -0.000  -0.000
  0.000   0.000  -0.000  -0.019  -0.000  -0.000   0.020  -0.000  -0.000  -0.000   0.000  -0.000   0.000  -0.000  -0.000   0.000
  0.000   0.000  -0.000  -0.000  -0.019  -0.000  -0.000   0.020  -0.000  -0.000  -0.000  -0.000   0.000   0.000   0.000   0.000
 -0.000  -0.001   0.000   0.000   0.000   0.000  -0.000   0.000   0.228  -0.000   0.000  -0.083  -0.000   0.062  -0.000   0.000
 -0.000  -0.000   0.000  -0.000   0.000   0.000  -0.000   0.000  -0.000   0.287   0.000  -0.000  -0.083  -0.000   0.084   0.000
  0.000   0.000   0.000   0.000   0.000  -0.000  -0.000   0.000   0.000   0.000   0.170   0.000   0.000   0.000   0.000   0.041
 -0.000  -0.000  -0.000   0.000   0.000   0.000  -0.000   0.000  -0.083  -0.000   0.000   0.287  -0.000  -0.031  -0.000   0.000
 -0.000  -0.000   0.000   0.000   0.000  -0.000   0.000   0.000  -0.000  -0.083   0.000  -0.000   0.229  -0.000  -0.031   0.000
 -0.000  -0.000   0.000  -0.000   0.000  -0.000  -0.000   0.000   0.062  -0.000   0.000  -0.031  -0.000   0.018  -0.000   0.000
 -0.000  -0.000   0.000   0.000   0.000  -0.000   0.000  -0.000  -0.000   0.084   0.000  -0.000  -0.031  -0.000   0.026  -0.000
  0.000   0.000   0.000   0.000   0.000   0.000   0.000   0.000   0.000   0.000   0.041   0.000   0.000   0.000  -0.000   0.010
 -0.000  -0.000  -0.000   0.000   0.000  -0.000  -0.000   0.000  -0.031  -0.000   0.000   0.084  -0.000  -0.011  -0.000  -0.000
 -0.000  -0.000   0.000   0.000   0.000  -0.000  -0.000   0.000  -0.000  -0.031   0.000  -0.000   0.063  -0.000  -0.011   0.000
  0.000  -0.000  -0.001  -0.120  -0.001   0.000   0.082   0.000   0.000  -0.000   0.000  -0.000   0.000  -0.000   0.000   0.000
  0.000   0.000  -0.001  -0.001  -0.147   0.000   0.000   0.101   0.000   0.000   0.000   0.000   0.000   0.000   0.000   0.000
  0.000   0.000   0.066  -0.000   0.000  -0.045   0.000  -0.000   0.000   0.000   0.000   0.000   0.000  -0.000   0.000   0.000
  0.000  -0.000   0.000  -0.107   0.000  -0.000   0.073  -0.000   0.000  -0.000   0.000   0.000   0.000  -0.000   0.000  -0.000
 -0.000  -0.000   0.000  -0.001   0.066  -0.000   0.000  -0.045   0.000   0.000   0.000   0.000   0.000   0.000   0.000   0.000
 -0.000  -0.000  -0.146  -0.001  -0.001   0.101   0.000   0.000   0.000   0.000   0.000   0.000   0.000  -0.000   0.000   0.000
  0.000  -0.000   0.001  -0.000  -0.001  -0.000   0.000   0.000   0.000  -0.000   0.000   0.000   0.000   0.000  -0.000   0.000
  0.000  -0.000   0.000   0.121   0.001  -0.000  -0.075  -0.000   0.000   0.000   0.000   0.000   0.000   0.000  -0.000   0.000
 -0.000   0.000   0.001   0.001   0.149  -0.000  -0.000  -0.093   0.000   0.000   0.000   0.000  -0.000   0.000   0.000   0.000
  0.000  -0.000  -0.067   0.001  -0.000   0.041  -0.000   0.000   0.000   0.000   0.000   0.000   0.000   0.000  -0.000   0.000
 -0.000   0.000  -0.000   0.108  -0.000  -0.000  -0.067  -0.000   0.000  -0.000   0.000   0.000   0.000   0.000   0.000   0.000
 -0.000   0.000  -0.000   0.001  -0.067   0.000  -0.000   0.042   0.000   0.000   0.000  -0.000  -0.000   0.000  -0.000   0.000
  0.000  -0.000   0.148   0.001   0.001  -0.092  -0.000  -0.000  -0.000   0.000   0.000   0.000   0.000   0.000   0.000   0.000
  0.000   0.000  -0.001   0.000   0.001   0.000  -0.000  -0.000   0.000  -0.000  -0.000  -0.000  -0.000   0.000  -0.000   0.000
 total augmentation occupancy for first ion, spin component:           2
 -0.042  -0.160   0.000   0.000  -0.000  -0.000   0.000   0.000   0.000   0.000  -0.000   0.000   0.000   0.000   0.000  -0.000
 -0.160   0.130   0.000   0.000   0.000   0.000   0.000   0.000  -0.005  -0.002   0.003  -0.004  -0.003  -0.001  -0.001   0.001
  0.000  -0.000  -0.007  -0.000  -0.000  -0.044   0.000   0.000   0.000   0.000   0.000   0.000   0.000   0.000   0.000   0.000
  0.000   0.000  -0.000  -0.007  -0.000   0.000  -0.044   0.000  -0.000   0.000   0.000  -0.000   0.000  -0.000   0.000   0.000
  0.000   0.000  -0.000  -0.000  -0.008   0.000   0.000  -0.044   0.000  -0.000   0.000   0.000   0.000   0.000   0.000   0.000
  0.000   0.000  -0.044   0.000   0.000   0.003  -0.000  -0.000   0.000   0.000   0.000   0.000   0.000   0.000   0.000  -0.000
  0.000   0.000   0.000  -0.044   0.000  -0.000   0.003  -0.000  -0.000   0.000  -0.000  -0.000   0.000   0.000   0.000   0.000
 -0.000  -0.000   0.000   0.000  -0.044  -0.000  -0.000   0.003   0.000  -0.000   0.000   0.000  -0.000   0.000   0.000   0.000
  0.000  -0.005   0.000   0.000   0.000   0.000   0.000   0.000   0.036  -0.002   0.003  -0.007  -0.001   0.010  -0.000   0.001
  0.000  -0.002   0.000   0.000   0.000  -0.000   0.000  -0.000  -0.002   0.044  -0.000  -0.002  -0.005  -0.000   0.012  -0.000
 -0.000   0.003  -0.000  -0.000   0.000   0.000  -0.000  -0.000   0.003  -0.000   0.036  -0.000   0.002   0.001  -0.000   0.008
  0.000  -0.004   0.000   0.000  -0.000   0.000  -0.000   0.000  -0.007  -0.002  -0.000   0.041  -0.002  -0.003  -0.001  -0.000
  0.000  -0.003   0.000  -0.000   0.000   0.000  -0.000   0.000  -0.001  -0.005   0.002  -0.002   0.038  -0.000  -0.002   0.000
  0.000  -0.001   0.000   0.000  -0.000  -0.000   0.000   0.000   0.010  -0.000   0.001  -0.003  -0.000   0.003  -0.000   0.000
  0.000  -0.001   0.000   0.000   0.000  -0.000   0.000   0.000  -0.000   0.012  -0.000  -0.001  -0.002  -0.000   0.003  -0.000
 -0.000   0.001   0.000   0.000  -0.000   0.000   0.000   0.000   0.001  -0.000   0.008  -0.000   0.000   0.000  -0.000   0.002
  0.000  -0.001   0.000   0.000   0.000   0.000   0.000   0.000  -0.003  -0.001  -0.000   0.012  -0.000  -0.001  -0.000  -0.000
  0.000  -0.001   0.000   0.000   0.000   0.000   0.000   0.000  -0.000  -0.002   0.000  -0.000   0.010  -0.000  -0.001   0.000
  0.000   0.000  -0.000  -0.013  -0.001   0.001   0.025   0.002   0.000   0.000   0.000   0.000   0.000   0.000  -0.000   0.000
  0.000   0.000  -0.001  -0.001  -0.016   0.002   0.002   0.032   0.000   0.000  -0.000   0.000  -0.000   0.000   0.000  -0.000
  0.000   0.000   0.007  -0.000   0.000  -0.014   0.001  -0.001   0.000   0.000   0.000   0.000   0.000   0.000   0.000   0.000
 -0.000   0.000  -0.000  -0.011  -0.000  -0.000   0.021  -0.000   0.000   0.000   0.000   0.000   0.000   0.000   0.000   0.000
 -0.000   0.000   0.000  -0.001   0.008  -0.001   0.001  -0.015   0.000  -0.000   0.000   0.000   0.000   0.000  -0.000   0.000
 -0.000  -0.000  -0.015  -0.001  -0.001   0.030   0.001   0.002   0.000   0.000   0.000   0.000   0.000  -0.000  -0.000   0.000
  0.000  -0.000   0.001  -0.000  -0.000  -0.002   0.000   0.001   0.000   0.000   0.000   0.000   0.000   0.000  -0.000   0.000
  0.000   0.000   0.000  -0.002   0.001  -0.001  -0.011  -0.002   0.000  -0.000   0.000   0.000   0.000   0.000   0.000   0.000
  0.000   0.000   0.001   0.001  -0.001  -0.002  -0.002  -0.015   0.000   0.000   0.000  -0.000   0.000   0.000   0.000  -0.000
  0.000   0.000   0.001   0.000  -0.000   0.007  -0.001   0.001   0.000  -0.000   0.000   0.000   0.000   0.000   0.000   0.000
 -0.000   0.000   0.000  -0.002   0.000   0.000  -0.009   0.000  -0.000  -0.000   0.000   0.000  -0.000   0.000   0.000   0.000
 -0.000   0.000  -0.000   0.001   0.000   0.001  -0.001   0.008   0.000   0.000   0.000   0.000   0.000  -0.000  -0.000   0.000
 -0.000  -0.000  -0.002   0.001   0.001  -0.013  -0.001  -0.002  -0.000  -0.000   0.000   0.000   0.000  -0.000   0.000   0.000
  0.000   0.000  -0.001  -0.000   0.001   0.002  -0.000  -0.001   0.000  -0.000   0.000  -0.000   0.000   0.000   0.000   0.000


------------------------ aborting loop because EDIFF is reached ----------------------------------------


 


 total charge     
 
# of ion       s       p       d       f       tot
--------------------------------------------------
    1        2.083   5.888   0.613   6.722  15.306
    2        2.083   5.888   0.613   6.722  15.306
    3        1.558   3.407   0.000   0.000   4.965
    4        1.558   3.407   0.000   0.000   4.965
--------------------------------------------------
tot          7.282  18.591   1.225  13.444  40.542

 


 magnetization (x)
 
# of ion       s       p       d       f       tot
--------------------------------------------------
    1       -0.006  -0.010   0.102   6.617   6.703
    2        0.006   0.010  -0.102  -6.617  -6.703
    3       -0.000   0.000   0.000   0.000  -0.000
    4       -0.000   0.000   0.000   0.000  -0.000
--------------------------------------------------
tot         -0.000   0.000  -0.000  -0.000  -0.000

 
    CHARGE:  cpu time    0.0496: real time    0.0497
    FORLOC:  cpu time    0.0008: real time    0.0008
    FORNL :  cpu time    0.1734: real time    0.1739
    STRESS:  cpu time    0.2925: real time    0.2932
    FORCOR:  cpu time    0.0209: real time    0.0209
    FORHAR:  cpu time    0.0030: real time    0.0030
    MIXING:  cpu time    0.0023: real time    0.0023
    OFIELD:  cpu time    0.0001: real time    0.0000

  FORCE on cell =-STRESS in cart. coord.  units (eV):
  Direction    XX          YY          ZZ          XY          YZ          ZX
  --------------------------------------------------------------------------------------
  Alpha Z   453.10566   453.10566   453.10566
  Ewald   -1617.75261 -1617.75125 -1617.75302     0.00351     0.00252    -0.00245
  Hartree   459.30499   459.39038   459.41144    -0.07360    -0.02966    -0.05308
  E(xc)    -244.17666  -244.16941  -244.16758    -0.00628    -0.00256    -0.00444
  Local     422.78521   422.62382   422.58507     0.13766     0.05467     0.10124
  n-local  -226.53460  -226.65512  -226.51815    -0.06298     0.03904     0.02798
  augment    96.40307    96.45052    96.46306    -0.04038    -0.01768    -0.02816
  Kinetic   656.72094   656.65729   656.41659     0.12250    -0.16025     0.18735
  Fock        0.00000     0.00000     0.00000     0.00000     0.00000     0.00000
  -------------------------------------------------------------------------------------
  Total      -0.19501    -0.35680    -0.39724     0.14011     0.05720     0.09907
  in kB      -4.76449    -8.71743    -9.70562     3.42321     1.39747     2.42052
  external pressure =       -7.73 kB  Pullay stress =        0.00 kB


 VOLUME and BASIS-vectors are now :
 -----------------------------------------------------------------------------
  energy-cutoff  :      500.00
  volume of cell :       65.58
      direct lattice vectors                 reciprocal lattice vectors
    -1.796252600  1.037116700  2.933334000    -0.278346409  0.160711128  0.113639751
     0.000008500 -2.074162400  2.933334000     0.139173204 -0.241061172  0.170454097
     3.592777500  4.148395800  2.933334000     0.139173204  0.080350044  0.056815166

  length of vectors
     3.592573285  3.592575402  6.222675167     0.340908760  0.326395877  0.170450208


 FORCES acting on ions
    electron-ion (+dipol)            ewald-force                    non-local-force                 convergence-correction
 -----------------------------------------------------------------------------------------------
   -.291E-05 0.188E-05 -.198E-05   0.283E-04 -.183E-04 0.193E-04   -.212E-21 -.106E-21 0.529E-21   -.454E-08 0.293E-08 -.309E-08
   -.291E-05 0.188E-05 -.198E-05   0.283E-04 -.183E-04 0.193E-04   0.794E-22 0.265E-21 -.371E-21   -.454E-08 0.293E-08 -.309E-08
   -.168E-03 0.109E-03 -.115E-03   -.283E-04 0.183E-04 -.193E-04   0.529E-21 -.529E-21 0.212E-21   -.142E-08 0.956E-09 -.973E-09
   -.168E-03 0.109E-03 -.115E-03   -.283E-04 0.183E-04 -.193E-04   -.212E-21 -.635E-21 0.000E+00   -.142E-08 0.956E-09 -.973E-09
 -----------------------------------------------------------------------------------------------
   -.343E-03 0.221E-03 -.233E-03   0.407E-15 0.387E-15 0.284E-13   0.185E-21 -.101E-20 0.371E-21   -.119E-07 0.778E-08 -.812E-08
 
 
 POSITION                                       TOTAL-FORCE (eV/Angst)
 -----------------------------------------------------------------------------------
      0.00000      0.00000      0.00000        -0.000000     -0.000000     -0.000000
      1.79639      1.03712      2.93333         0.000000     -0.000000     -0.000000
      1.79646      3.11131      4.40000         0.000000      0.000000      0.000000
      0.00007      0.00004      4.40000        -0.000000     -0.000000      0.000000
 -----------------------------------------------------------------------------------
    total drift:                               -0.000343      0.000222     -0.000233


--------------------------------------------------------------------------------------------------------



  FREE ENERGIE OF THE ION-ELECTRON SYSTEM (eV)
  ---------------------------------------------------
  free  energy   TOTEN  =       -41.61219325 eV

  energy  without entropy=      -41.62787173  energy(sigma->0) =      -41.61741941
 


--------------------------------------------------------------------------------------------------------


    POTLOK:  cpu time    0.0313: real time    0.0313


--------------------------------------------------------------------------------------------------------


     LOOP+:  cpu time   24.5724: real time   24.6564
    4ORBIT:  cpu time    0.0000: real time    0.0000
 


 total charge     
 
# of ion       s       p       d       f       tot
--------------------------------------------------
    1        2.083   5.888   0.613   6.722  15.306
    2        2.083   5.888   0.613   6.722  15.306
    3        1.558   3.407   0.000   0.000   4.965
    4        1.558   3.407   0.000   0.000   4.965
--------------------------------------------------
tot          7.282  18.591   1.225  13.444  40.542

 


 magnetization (x)
 
# of ion       s       p       d       f       tot
--------------------------------------------------
    1       -0.006  -0.010   0.102   6.617   6.703
    2        0.006   0.010  -0.102  -6.617  -6.703
    3       -0.000   0.000   0.000   0.000  -0.000
    4       -0.000   0.000   0.000   0.000  -0.000
--------------------------------------------------
tot         -0.000   0.000  -0.000  -0.000  -0.000

 

 total amount of memory used by VASP MPI-rank0    41555. kBytes
=======================================================================

   base      :      30000. kBytes
   nonl-proj :       4848. kBytes
   fftplans  :        608. kBytes
   grid      :       1468. kBytes
   one-center:         98. kBytes
   wavefun   :       4533. kBytes
 
  
  
 General timing and accounting informations for this job:
 ========================================================
  
                  Total CPU time used (sec):       25.976
                            User time (sec):       25.667
                          System time (sec):        0.309
                         Elapsed time (sec):       26.813
  
                   Maximum memory used (kb):       47880.
                   Average memory used (kb):           0.
  
                          Minor page faults:        82963
                          Major page faults:            0
                 Voluntary context switches:         1380
