 vasp.5.4.4.18Apr17-6-g9f103f2a35 (build Apr 28 2018 00:24:27) complex          
  
 executed on             LinuxIFC date 2021.04.17  17:40:29
 running on    8 total cores
 distrk:  each k-point on    8 cores,    1 groups
 distr:  one band on NCORES_PER_BAND=   4 cores,    2 groups


--------------------------------------------------------------------------------------------------------


 INCAR:
 POTCAR:    PAW_PBE Eu 23Dec2003                  
 POTCAR:    PAW_PBE S 06Sep2000                   
 POTCAR:    PAW_PBE Eu 23Dec2003                  
   VRHFIN =Eu : [core=Kr4d]                                                     
   LEXCH  = PE                                                                  
   EATOM  =  2619.8085 eV,  192.5505 Ry                                         
                                                                                
   TITEL  = PAW_PBE Eu 23Dec2003                                                
   LULTRA =        F    use ultrasoft PP ?                                      
   IUNSCR =        1    unscreen: 0-lin 1-nonlin 2-no                           
   RPACOR =    2.300    partial core radius                                     
   POMASS =  151.965; ZVAL   =   17.000    mass and valenz                      
   RCORE  =    2.800    outmost cutoff radius                                   
   RWIGS  =    2.800; RWIGS  =    1.482    wigner-seitz radius (au A)           
   ENMAX  =  249.668; ENMIN  =  187.251 eV                                      
   RCLOC  =    2.308    cutoff for local pot                                    
   LCOR   =        T    correct aug charges                                     
   LPAW   =        T    paw PP                                                  
   EAUG   =  549.628                                                            
   DEXC   =    0.000                                                            
   RMAX   =    2.870    core radius for proj-oper                               
   RAUG   =    1.300    factor for augmentation sphere                          
   RDEP   =    2.887    radius for radial grids                                 
   RDEPT  =    2.221    core radius for aug-charge                              
                                                                                
   Atomic configuration                                                         
   14 entries                                                                   
     n  l   j            E        occ.                                          
     1  0  0.50    -48354.7667   2.0000                                         
     2  0  0.50     -7939.6472   2.0000                                         
     2  1  1.50     -7072.6637   6.0000                                         
     3  0  0.50     -1747.1875   2.0000                                         
     3  1  1.50     -1477.5221   6.0000                                         
     3  2  2.50     -1117.4686  10.0000                                         
     4  0  0.50      -346.8682   2.0000                                         
     4  1  1.50      -258.1962   6.0000                                         
     4  2  2.50      -134.7724  10.0000                                         
     5  0  0.50       -44.6510   2.0000                                         
     6  0  0.50        -3.6227   2.0000                                         
     5  1  1.50       -23.7639   6.0000                                         
     5  2  2.50        -1.3130   0.0000                                         
     4  3  2.50        -2.7310   7.0000                                         
   Description                                                                  
     l       E           TYP  RCUT    TYP  RCUT                                 
     0    -44.6510453     23  2.400                                             
     0     -3.6226685     23  2.400                                             
     1    -23.7638687     23  2.400                                             
     1     27.2116520     23  2.400                                             
     2     -1.3129622     23  2.500                                             
     2     13.6058260     23  2.500                                             
     3     -2.7309948     23  2.800                                             
     3     -3.4014565     23  2.800                                             
  local pseudopotential read in
  partial core-charges read in
  partial kinetic energy density read in
  atomic valenz-charges read in
  non local Contribution for L=           0  read in
    real space projection operators read in
  non local Contribution for L=           0  read in
    real space projection operators read in
  non local Contribution for L=           1  read in
    real space projection operators read in
  non local Contribution for L=           1  read in
    real space projection operators read in
  non local Contribution for L=           2  read in
    real space projection operators read in
  non local Contribution for L=           2  read in
    real space projection operators read in
  non local Contribution for L=           3  read in
    real space projection operators read in
  non local Contribution for L=           3  read in
    real space projection operators read in
    PAW grid and wavefunctions read in
 
   number of l-projection  operators is LMAX  =           8
   number of lm-projection operators is LMMAX =          32
 
 POTCAR:    PAW_PBE S 06Sep2000                   
   VRHFIN =S : s2p4                                                             
   LEXCH  = PE                                                                  
   EATOM  =   276.8230 eV,   20.3459 Ry                                         
                                                                                
   TITEL  = PAW_PBE S 06Sep2000                                                 
   LULTRA =        F    use ultrasoft PP ?                                      
   IUNSCR =        1    unscreen: 0-lin 1-nonlin 2-no                           
   RPACOR =    1.500    partial core radius                                     
   POMASS =   32.066; ZVAL   =    6.000    mass and valenz                      
   RCORE  =    1.900    outmost cutoff radius                                   
   RWIGS  =    2.200; RWIGS  =    1.164    wigner-seitz radius (au A)           
   ENMAX  =  258.689; ENMIN  =  194.016 eV                                      
   ICORE  =        2    local potential                                         
   LCOR   =        T    correct aug charges                                     
   LPAW   =        T    paw PP                                                  
   EAUG   =  335.092                                                            
   DEXC   =    0.000                                                            
   RMAX   =    1.942    core radius for proj-oper                               
   RAUG   =    1.300    factor for augmentation sphere                          
   RDEP   =    1.954    radius for radial grids                                 
   RDEPT  =    1.744    core radius for aug-charge                              
                                                                                
   Atomic configuration                                                         
    6 entries                                                                   
     n  l   j            E        occ.                                          
     1  0  0.50     -2405.8406   2.0000                                         
     2  0  0.50      -211.7007   2.0000                                         
     2  1  1.50      -156.4958   6.0000                                         
     3  0  0.50       -17.2562   2.0000                                         
     3  1  0.50        -7.0085   4.0000                                         
     3  2  1.50        -6.8029   0.0000                                         
   Description                                                                  
     l       E           TYP  RCUT    TYP  RCUT                                 
     0    -17.2561641     23  1.900                                             
     0    -15.8743224     23  1.900                                             
     1     -7.0085400     23  1.900                                             
     1     -2.7779785     23  1.900                                             
     2     -6.8029130     23  1.900                                             
  local pseudopotential read in
  partial core-charges read in
  partial kinetic energy density read in
  atomic valenz-charges read in
  non local Contribution for L=           0  read in
    real space projection operators read in
  non local Contribution for L=           0  read in
    real space projection operators read in
  non local Contribution for L=           1  read in
    real space projection operators read in
  non local Contribution for L=           1  read in
    real space projection operators read in
    PAW grid and wavefunctions read in
 
   number of l-projection  operators is LMAX  =           4
   number of lm-projection operators is LMMAX =           8
 

 ----------------------------------------------------------------------------- 
|                                                                             |
|  ADVICE TO THIS USER RUNNING 'VASP/VAMP'   (HEAR YOUR MASTER'S VOICE ...):  |
|                                                                             |
|      You have a (more or less) 'small supercell' and for smaller cells      |
|      it is recommended  to use the reciprocal-space projection scheme!      |
|      The real space optimization is not  efficient for small cells and it   |
|      is also less accurate ...                                              |
|      Therefore set LREAL=.FALSE. in the  INCAR file                         |
|                                                                             |
 ----------------------------------------------------------------------------- 

 Optimization of the real space projectors (new method)

 maximal supplied QI-value         = 13.42
 optimisation between [QCUT,QGAM] = [ 11.67, 23.35] = [ 38.16,152.62] Ry 
 Optimized for a Real-space Cutoff    1.63 Angstroem

   l    n(q)    QCUT    max X(q) W(low)/X(q) W(high)/X(q)  e(spline) 
   0     11    11.673    10.400    0.14E-04    0.18E-05    0.24E-07
   0     11    11.673    10.768    0.21E-04    0.32E-05    0.49E-07
   1     11    11.673     4.094    0.40E-05    0.13E-04    0.93E-07
   1     11    11.673     4.009    0.11E-04    0.46E-04    0.33E-06
   2     10    11.673    29.030    0.79E-04    0.60E-04    0.70E-06
   2     10    11.673    19.941    0.80E-04    0.60E-04    0.71E-06
   3     10    11.673    88.889    0.23E-03    0.29E-03    0.30E-06
   3     10    11.673    76.102    0.23E-03    0.30E-03    0.30E-06
 Optimization of the real space projectors (new method)

 maximal supplied QI-value         = 19.84
 optimisation between [QCUT,QGAM] = [ 11.51, 23.22] = [ 37.09,150.92] Ry 
 Optimized for a Real-space Cutoff    1.21 Angstroem

   l    n(q)    QCUT    max X(q) W(low)/X(q) W(high)/X(q)  e(spline) 
   0      8    11.508   187.594    0.96E-04    0.18E-03    0.54E-07
   0      8    11.508   164.243    0.96E-04    0.18E-03    0.54E-07
   1      8    11.508    67.533    0.18E-03    0.65E-04    0.94E-07
   1      8    11.508    50.729    0.18E-03    0.63E-04    0.92E-07
  PAW_PBE Eu 23Dec2003                  :
 energy of atom  1       EATOM=-2619.8085
 kinetic energy error for atom=    0.0015 (will be added to EATOM!!)
  PAW_PBE S 06Sep2000                   :
 energy of atom  2       EATOM= -276.8230
 kinetic energy error for atom=    0.0016 (will be added to EATOM!!)
 
 
 POSCAR: Eu4 S4                                  
  positions in direct lattice
  velocities in cartesian coordinates
 exchange correlation table for  LEXCH =        8
   RHO(1)=    0.500       N(1)  =     2000
   RHO(2)=  100.500       N(2)  =     4000
 


--------------------------------------------------------------------------------------------------------


 ion  position               nearest neighbor table
   1  0.500  0.500  0.500-   7 2.92   7 2.92   7 2.92   6 2.93   6 2.93   6 2.93
   2  0.750  0.750  0.750-   7 2.92   7 2.92   7 2.92   8 2.93   8 2.93   8 2.93
   3  1.000  0.000  1.000-   5 2.92   5 2.92   5 2.92   8 2.93   8 2.93   8 2.93
   4  0.250  0.250  0.250-   5 2.92   5 2.92   5 2.92   6 2.93   6 2.93   6 2.93
   5  0.625  0.125  0.625-   4 2.92   3 2.92   4 2.92   3 2.92   4 2.92   3 2.92
   6  0.875  0.375  0.875-   4 2.93   4 2.93   4 2.93   1 2.93   1 2.93   1 2.93
   7  0.125  0.625  0.125-   1 2.92   2 2.92   2 2.92   1 2.92   2 2.92   1 2.92
   8  0.375  0.875  0.375-   3 2.93   3 2.93   3 2.93   2 2.93   2 2.93   2 2.93
 
  LATTYP: Found a base centered monoclinic cell.
 ALAT       =     7.1506324277
 B/A-ratio  =     0.5773601542
 C/A-ratio  =     2.5212470908
 COS(beta)  =    -0.5724929859
  
  Lattice vectors:
  
 A1 = (  -2.0642451204,   3.5753162137,   0.0000293193)
 A2 = (   2.0642451204,   3.5753162137,   0.0000293193)
 A3 = (   0.0000000000, -11.9178309027, -13.5274728926)


Analysis of symmetry for initial positions (statically):
=====================================================================
 Subroutine PRICEL returns:
 Original cell was already a primitive cell.
 

 Routine SETGRP: Setting up the symmetry group for a 
 base centered monoclinic supercell.


 Subroutine GETGRP returns: Found  4 space group operations
 (whereof  2 operations were pure point group operations)
 out of a pool of  4 trial point group operations.


The static configuration has the point symmetry C_1h.
 The point group associated with its full space group is C_2h.


Analysis of symmetry for dynamics (positions and initial velocities):
=====================================================================
 Subroutine PRICEL returns:
 Original cell was already a primitive cell.
 

 Routine SETGRP: Setting up the symmetry group for a 
 base centered monoclinic supercell.


 Subroutine GETGRP returns: Found  4 space group operations
 (whereof  2 operations were pure point group operations)
 out of a pool of  4 trial point group operations.


The dynamic configuration has the point symmetry C_1h.
 The point group associated with its full space group is C_2h.


Analysis of structural, dynamic, and magnetic symmetry:
=====================================================================
 Subroutine PRICEL returns:
 Original cell was already a primitive cell.
 

 Routine SETGRP: Setting up the symmetry group for a 
 base centered monoclinic supercell.


 Subroutine GETGRP returns: Found  4 space group operations
 (whereof  2 operations were pure point group operations)
 out of a pool of  4 trial point group operations.


The magnetic configuration has the point symmetry C_1h.
 The point group associated with its full space group is C_2h.


 Subroutine INISYM returns: Found  4 space group operations
 (whereof  2 operations are pure point group operations),
 and found     1 'primitive' translations

 
 
 KPOINTS: pymatgen v2019.10.16 with grid density =

Automatic generation of k-mesh.
Space group operators:
 irot       det(A)        alpha          n_x          n_y          n_z        tau_x        tau_y        tau_z
    1     1.000000     0.000000     1.000000     0.000000     0.000000     0.000000     0.000000     0.000000
    2    -1.000000   180.000000     1.000000    -0.000000     0.000000     0.000000     0.000000     0.000000
    3    -1.000000     0.000000     1.000000     0.000000     0.000000    -1.750000    -0.750000     1.250000
    4     1.000000   180.000000     1.000000    -0.000000     0.000000    -1.750000    -0.750000     1.250000
 
 Subroutine IBZKPT returns following result:
 ===========================================
 
 Found    152 irreducible k-points:
 
 Following reciprocal coordinates:
            Coordinates               Weight
  0.000000  0.000000  0.000000      1.000000
  0.100000 -0.000000  0.000000      2.000000
  0.200000 -0.000000  0.000000      2.000000
  0.300000 -0.000000  0.000000      2.000000
  0.400000 -0.000000  0.000000      2.000000
  0.500000 -0.000000  0.000000      1.000000
  0.000000  0.333333  0.000000      2.000000
  0.100000  0.333333  0.000000      2.000000
  0.200000  0.333333  0.000000      2.000000
  0.300000  0.333333  0.000000      2.000000
  0.400000  0.333333  0.000000      2.000000
  0.500000  0.333333  0.000000      2.000000
 -0.400000  0.333333  0.000000      2.000000
 -0.300000  0.333333  0.000000      2.000000
 -0.200000  0.333333  0.000000      2.000000
 -0.100000  0.333333  0.000000      2.000000
  0.000000  0.000000  0.100000      2.000000
  0.100000 -0.000000  0.100000      2.000000
  0.200000 -0.000000  0.100000      2.000000
  0.300000  0.000000  0.100000      2.000000
  0.400000 -0.000000  0.100000      2.000000
  0.500000 -0.000000  0.100000      2.000000
 -0.400000  0.000000  0.100000      2.000000
 -0.300000  0.000000  0.100000      2.000000
 -0.200000  0.000000  0.100000      2.000000
 -0.100000  0.000000  0.100000      2.000000
  0.000000  0.333333  0.100000      2.000000
  0.100000  0.333333  0.100000      2.000000
  0.200000  0.333333  0.100000      2.000000
  0.300000  0.333333  0.100000      2.000000
  0.400000  0.333333  0.100000      2.000000
  0.500000  0.333333  0.100000      2.000000
 -0.400000  0.333333  0.100000      2.000000
 -0.300000  0.333333  0.100000      2.000000
 -0.200000  0.333333  0.100000      2.000000
 -0.100000  0.333333  0.100000      2.000000
  0.000000 -0.333333  0.100000      2.000000
  0.100000 -0.333333  0.100000      2.000000
  0.200000 -0.333333  0.100000      2.000000
  0.300000 -0.333333  0.100000      2.000000
  0.400000 -0.333333  0.100000      2.000000
  0.500000 -0.333333  0.100000      2.000000
 -0.400000 -0.333333  0.100000      2.000000
 -0.300000 -0.333333  0.100000      2.000000
 -0.200000 -0.333333  0.100000      2.000000
 -0.100000 -0.333333  0.100000      2.000000
  0.000000  0.000000  0.200000      2.000000
  0.100000 -0.000000  0.200000      2.000000
  0.200000  0.000000  0.200000      2.000000
  0.300000 -0.000000  0.200000      2.000000
  0.400000 -0.000000  0.200000      2.000000
  0.500000 -0.000000  0.200000      2.000000
 -0.400000  0.000000  0.200000      2.000000
 -0.300000  0.000000  0.200000      2.000000
 -0.200000  0.000000  0.200000      2.000000
 -0.100000  0.000000  0.200000      2.000000
  0.000000  0.333333  0.200000      2.000000
  0.100000  0.333333  0.200000      2.000000
  0.200000  0.333333  0.200000      2.000000
  0.300000  0.333333  0.200000      2.000000
  0.400000  0.333333  0.200000      2.000000
  0.500000  0.333333  0.200000      2.000000
 -0.400000  0.333333  0.200000      2.000000
 -0.300000  0.333333  0.200000      2.000000
 -0.200000  0.333333  0.200000      2.000000
 -0.100000  0.333333  0.200000      2.000000
  0.000000 -0.333333  0.200000      2.000000
  0.100000 -0.333333  0.200000      2.000000
  0.200000 -0.333333  0.200000      2.000000
  0.300000 -0.333333  0.200000      2.000000
  0.400000 -0.333333  0.200000      2.000000
  0.500000 -0.333333  0.200000      2.000000
 -0.400000 -0.333333  0.200000      2.000000
 -0.300000 -0.333333  0.200000      2.000000
 -0.200000 -0.333333  0.200000      2.000000
 -0.100000 -0.333333  0.200000      2.000000
 -0.000000 -0.000000  0.300000      2.000000
  0.100000 -0.000000  0.300000      2.000000
  0.200000 -0.000000  0.300000      2.000000
  0.300000 -0.000000  0.300000      2.000000
  0.400000 -0.000000  0.300000      2.000000
  0.500000  0.000000  0.300000      2.000000
 -0.400000 -0.000000  0.300000      2.000000
 -0.300000  0.000000  0.300000      2.000000
 -0.200000  0.000000  0.300000      2.000000
 -0.100000  0.000000  0.300000      2.000000
  0.000000  0.333333  0.300000      2.000000
  0.100000  0.333333  0.300000      2.000000
  0.200000  0.333333  0.300000      2.000000
  0.300000  0.333333  0.300000      2.000000
  0.400000  0.333333  0.300000      2.000000
  0.500000  0.333333  0.300000      2.000000
 -0.400000  0.333333  0.300000      2.000000
 -0.300000  0.333333  0.300000      2.000000
 -0.200000  0.333333  0.300000      2.000000
 -0.100000  0.333333  0.300000      2.000000
  0.000000 -0.333333  0.300000      2.000000
  0.100000 -0.333333  0.300000      2.000000
  0.200000 -0.333333  0.300000      2.000000
  0.300000 -0.333333  0.300000      2.000000
  0.400000 -0.333333  0.300000      2.000000
  0.500000 -0.333333  0.300000      2.000000
 -0.400000 -0.333333  0.300000      2.000000
 -0.300000 -0.333333  0.300000      2.000000
 -0.200000 -0.333333  0.300000      2.000000
 -0.100000 -0.333333  0.300000      2.000000
  0.000000  0.000000  0.400000      2.000000
  0.100000  0.000000  0.400000      2.000000
  0.200000  0.000000  0.400000      2.000000
  0.300000  0.000000  0.400000      2.000000
  0.400000  0.000000  0.400000      2.000000
  0.500000  0.000000  0.400000      2.000000
 -0.400000  0.000000  0.400000      2.000000
 -0.300000  0.000000  0.400000      2.000000
 -0.200000  0.000000  0.400000      2.000000
 -0.100000  0.000000  0.400000      2.000000
  0.000000  0.333333  0.400000      2.000000
  0.100000  0.333333  0.400000      2.000000
  0.200000  0.333333  0.400000      2.000000
  0.300000  0.333333  0.400000      2.000000
  0.400000  0.333333  0.400000      2.000000
  0.500000  0.333333  0.400000      2.000000
 -0.400000  0.333333  0.400000      2.000000
 -0.300000  0.333333  0.400000      2.000000
 -0.200000  0.333333  0.400000      2.000000
 -0.100000  0.333333  0.400000      2.000000
  0.000000 -0.333333  0.400000      2.000000
  0.100000 -0.333333  0.400000      2.000000
  0.200000 -0.333333  0.400000      2.000000
  0.300000 -0.333333  0.400000      2.000000
  0.400000 -0.333333  0.400000      2.000000
  0.500000 -0.333333  0.400000      2.000000
 -0.400000 -0.333333  0.400000      2.000000
 -0.300000 -0.333333  0.400000      2.000000
 -0.200000 -0.333333  0.400000      2.000000
 -0.100000 -0.333333  0.400000      2.000000
  0.000000  0.000000  0.500000      1.000000
  0.100000 -0.000000  0.500000      2.000000
  0.200000 -0.000000  0.500000      2.000000
  0.300000 -0.000000  0.500000      2.000000
  0.400000 -0.000000  0.500000      2.000000
  0.500000 -0.000000  0.500000      1.000000
  0.000000  0.333333  0.500000      2.000000
  0.100000  0.333333  0.500000      2.000000
  0.200000  0.333333  0.500000      2.000000
  0.300000  0.333333  0.500000      2.000000
  0.400000  0.333333  0.500000      2.000000
  0.500000  0.333333  0.500000      2.000000
 -0.400000  0.333333  0.500000      2.000000
 -0.300000  0.333333  0.500000      2.000000
 -0.200000  0.333333  0.500000      2.000000
 -0.100000  0.333333  0.500000      2.000000
 
 Following cartesian coordinates:
            Coordinates               Weight
  0.000000  0.000000  0.000000      1.000000
  0.000000  0.027970 -0.002464      2.000000
  0.000000  0.055939 -0.004929      2.000000
  0.000000  0.083909 -0.007393      2.000000
  0.000000  0.111878 -0.009857      2.000000
  0.000000  0.139848 -0.012322      1.000000
  0.000000 -0.000000  0.024641      2.000000
  0.000000  0.027969  0.022177      2.000000
  0.000000  0.055939  0.019713      2.000000
  0.000000  0.083909  0.017248      2.000000
  0.000000  0.111878  0.014784      2.000000
  0.000000  0.139848  0.012320      2.000000
  0.000000 -0.111878  0.034499      2.000000
  0.000000 -0.083909  0.032034      2.000000
  0.000000 -0.055939  0.029570      2.000000
  0.000000 -0.027970  0.027106      2.000000
  0.024222 -0.013985 -0.002464      2.000000
  0.024222  0.013985 -0.004928      2.000000
  0.024222  0.041954 -0.007393      2.000000
  0.024222  0.069924 -0.009857      2.000000
  0.024222  0.097894 -0.012321      2.000000
  0.024222  0.125863 -0.014786      2.000000
  0.024222 -0.125863  0.007393      2.000000
  0.024222 -0.097893  0.004929      2.000000
  0.024222 -0.069924  0.002465      2.000000
  0.024222 -0.041954  0.000000      2.000000
  0.024222 -0.013985  0.022177      2.000000
  0.024222  0.013985  0.019713      2.000000
  0.024222  0.041954  0.017249      2.000000
  0.024222  0.069924  0.014784      2.000000
  0.024222  0.097893  0.012320      2.000000
  0.024222  0.125863  0.009856      2.000000
  0.024222 -0.125863  0.032035      2.000000
  0.024222 -0.097894  0.029570      2.000000
  0.024222 -0.069924  0.027106      2.000000
  0.024222 -0.041955  0.024642      2.000000
  0.024222 -0.013985 -0.027105      2.000000
  0.024222  0.013985 -0.029570      2.000000
  0.024222  0.041955 -0.032034      2.000000
  0.024222  0.069924 -0.034499      2.000000
  0.024222  0.097894 -0.036963      2.000000
  0.024222  0.125863 -0.039427      2.000000
  0.024222 -0.125863 -0.017248      2.000000
  0.024222 -0.097893 -0.019712      2.000000
  0.024222 -0.069924 -0.022177      2.000000
  0.024222 -0.041954 -0.024641      2.000000
  0.048444 -0.027970 -0.004928      2.000000
  0.048444  0.000000 -0.007392      2.000000
  0.048444  0.027970 -0.009857      2.000000
  0.048444  0.055939 -0.012321      2.000000
  0.048444  0.083909 -0.014786      2.000000
  0.048444  0.111878 -0.017250      2.000000
  0.048444 -0.139848  0.004929      2.000000
  0.048444 -0.111878  0.002465      2.000000
  0.048444 -0.083909  0.000001      2.000000
  0.048444 -0.055939 -0.002464      2.000000
  0.048444 -0.027970  0.019713      2.000000
  0.048444 -0.000000  0.017249      2.000000
  0.048444  0.027969  0.014785      2.000000
  0.048444  0.055939  0.012320      2.000000
  0.048444  0.083909  0.009856      2.000000
  0.048444  0.111878  0.007392      2.000000
  0.048444 -0.139848  0.029571      2.000000
  0.048444 -0.111878  0.027106      2.000000
  0.048444 -0.083909  0.024642      2.000000
  0.048444 -0.055939  0.022178      2.000000
  0.048444 -0.027969 -0.029569      2.000000
  0.048444  0.000000 -0.032034      2.000000
  0.048444  0.027970 -0.034498      2.000000
  0.048444  0.055939 -0.036963      2.000000
  0.048444  0.083909 -0.039427      2.000000
  0.048444  0.111879 -0.041891      2.000000
  0.048444 -0.139848 -0.019712      2.000000
  0.048444 -0.111878 -0.022176      2.000000
  0.048444 -0.083908 -0.024641      2.000000
  0.048444 -0.055939 -0.027105      2.000000
  0.072666 -0.041954 -0.007392      2.000000
  0.072666 -0.013985 -0.009856      2.000000
  0.072666  0.013985 -0.012321      2.000000
  0.072666  0.041954 -0.014785      2.000000
  0.072666  0.069924 -0.017250      2.000000
  0.072666  0.097894 -0.019714      2.000000
  0.072666 -0.153833  0.002465      2.000000
  0.072666 -0.125863  0.000001      2.000000
  0.072666 -0.097893 -0.002463      2.000000
  0.072666 -0.069924 -0.004928      2.000000
  0.072666 -0.041954  0.017249      2.000000
  0.072666 -0.013985  0.014785      2.000000
  0.072666  0.013985  0.012321      2.000000
  0.072666  0.041954  0.009856      2.000000
  0.072666  0.069924  0.007392      2.000000
  0.072666  0.097893  0.004927      2.000000
  0.072666 -0.153833  0.027107      2.000000
  0.072666 -0.125863  0.024642      2.000000
  0.072666 -0.097894  0.022178      2.000000
  0.072666 -0.069924  0.019714      2.000000
  0.072666 -0.041954 -0.032033      2.000000
  0.072666 -0.013984 -0.034498      2.000000
  0.072666  0.013985 -0.036962      2.000000
  0.072666  0.041955 -0.039427      2.000000
  0.072666  0.069924 -0.041891      2.000000
  0.072666  0.097894 -0.044355      2.000000
  0.072666 -0.153832 -0.022176      2.000000
  0.072666 -0.125863 -0.024640      2.000000
  0.072666 -0.097893 -0.027105      2.000000
  0.072666 -0.069924 -0.029569      2.000000
  0.096888 -0.055939 -0.009856      2.000000
  0.096888 -0.027969 -0.012320      2.000000
  0.096888  0.000000 -0.014785      2.000000
  0.096888  0.027970 -0.017249      2.000000
  0.096888  0.055939 -0.019714      2.000000
  0.096888  0.083909 -0.022178      2.000000
  0.096888 -0.167817  0.000001      2.000000
  0.096888 -0.139848 -0.002463      2.000000
  0.096888 -0.111878 -0.004927      2.000000
  0.096888 -0.083909 -0.007392      2.000000
  0.096888 -0.055939  0.014785      2.000000
  0.096888 -0.027970  0.012321      2.000000
  0.096888 -0.000000  0.009857      2.000000
  0.096888  0.027969  0.007392      2.000000
  0.096888  0.055939  0.004928      2.000000
  0.096888  0.083909  0.002463      2.000000
  0.096888 -0.167818  0.024643      2.000000
  0.096888 -0.139848  0.022178      2.000000
  0.096888 -0.111878  0.019714      2.000000
  0.096888 -0.083909  0.017250      2.000000
  0.096888 -0.055939 -0.034497      2.000000
  0.096888 -0.027969 -0.036962      2.000000
  0.096888  0.000000 -0.039426      2.000000
  0.096888  0.027970 -0.041891      2.000000
  0.096888  0.055939 -0.044355      2.000000
  0.096888  0.083909 -0.046819      2.000000
  0.096888 -0.167817 -0.024640      2.000000
  0.096888 -0.139848 -0.027104      2.000000
  0.096888 -0.111878 -0.029569      2.000000
  0.096888 -0.083908 -0.032033      2.000000
  0.121110 -0.069924 -0.012320      1.000000
  0.121110 -0.041954 -0.014784      2.000000
  0.121110 -0.013985 -0.017249      2.000000
  0.121110  0.013985 -0.019713      2.000000
  0.121110  0.041955 -0.022178      2.000000
  0.121110  0.069924 -0.024642      1.000000
  0.121110 -0.069924  0.012321      2.000000
  0.121110 -0.041954  0.009857      2.000000
  0.121110 -0.013985  0.007393      2.000000
  0.121110  0.013985  0.004928      2.000000
  0.121110  0.041954  0.002464      2.000000
  0.121110  0.069924 -0.000001      2.000000
  0.121110 -0.181802  0.022179      2.000000
  0.121110 -0.153833  0.019714      2.000000
  0.121110 -0.125863  0.017250      2.000000
  0.121110 -0.097894  0.014786      2.000000
 
 TETIRR: Found    900 inequivalent tetrahedra from     1800


--------------------------------------------------------------------------------------------------------




 Dimension of arrays:
   k-points           NKPTS =    152   k-points in BZ     NKDIM =    152   number of bands    NBANDS=     56
   number of dos      NEDOS =    301   number of ions     NIONS =      8
   non local maximal  LDIM  =      8   non local SUM 2l+1 LMDIM =     32
   total plane-waves  NPLWV = 110592
   max r-space proj   IRMAX =  10046   max aug-charges    IRDMAX=  31859
   dimension x,y,z NGX =    32 NGY =  108 NGZ =   32
   dimension x,y,z NGXF=    64 NGYF=  216 NGZF=   64
   support grid    NGXF=    64 NGYF=  216 NGZF=   64
   ions per type =               4   4
   NGX,Y,Z   is equivalent  to a cutoff of  12.89, 13.07, 12.89 a.u.
   NGXF,Y,Z  is equivalent  to a cutoff of  25.77, 26.14, 25.77 a.u.

 SYSTEM =  unknown system                          
 POSCAR =  Eu4 S4                                  

 Startparameter for this run:
   NWRITE =      2    write-flag & timer
   PREC   = accura    normal or accurate (medium, high low for compatibility)
   ISTART =      0    job   : 0-new  1-cont  2-samecut
   ICHARG =      2    charge: 1-file 2-atom 10-const
   ISPIN  =      2    spin polarized calculation?
   LNONCOLLINEAR =      F non collinear calculations
   LSORBIT =      F    spin-orbit coupling
   INIWAV =      1    electr: 0-lowe 1-rand  2-diag
   LASPH  =      T    aspherical Exc in radial PAW
   METAGGA=      F    non-selfconsistent MetaGGA calc.

 Electronic Relaxation 1
   ENCUT  =  520.0 eV  38.22 Ry    6.18 a.u.   7.68 25.54  7.68*2*pi/ulx,y,z
   ENINI  =  520.0     initial cutoff
   ENAUG  =  549.6 eV  augmentation charge cutoff
   NELM   =    120;   NELMIN=  2; NELMDL=  0     # of ELM steps 
   EDIFF  = 0.1E-05   stopping-criterion for ELM
   LREAL  =      T    real-space projection
   NLSPLINE    = F    spline interpolate recip. space projectors
   LCOMPAT=      F    compatible to vasp.4.4
   GGA_COMPAT  = T    GGA compatible to vasp.4.4-vasp.4.6
   LMAXPAW     = -100 max onsite density
   LMAXMIX     =    4 max onsite mixed and CHGCAR
   VOSKOWN=      0    Vosko Wilk Nusair interpolation
   ROPT   =   -0.00025  -0.00025
 Ionic relaxation
   EDIFFG = 0.1E-04   stopping-criterion for IOM
   NSW    =      0    number of steps for IOM
   NBLOCK =      1;   KBLOCK =      1    inner block; outer block 
   IBRION =     -1    ionic relax: 0-MD 1-quasi-New 2-CG
   NFREE  =      0    steps in history (QN), initial steepest desc. (CG)
   ISIF   =      3    stress and relaxation
   IWAVPR =     10    prediction:  0-non 1-charg 2-wave 3-comb
   ISYM   =      2    0-nonsym 1-usesym 2-fastsym
   LCORR  =      T    Harris-Foulkes like correction to forces

   POTIM  = 0.5000    time-step for ionic-motion
   TEIN   =    0.0    initial temperature
   TEBEG  =    0.0;   TEEND  =   0.0 temperature during run
   SMASS  =  -3.00    Nose mass-parameter (am)
   estimated Nose-frequenzy (Omega)   =  0.10E-29 period in steps =****** mass=  -0.389E-27a.u.
   SCALEE = 1.0000    scale energy and forces
   NPACO  =    256;   APACO  = 16.0  distance and # of slots for P.C.
   PSTRESS=    0.0 pullay stress

  Mass of Ions in am
   POMASS = 151.97 32.07
  Ionic Valenz
   ZVAL   =  17.00  6.00
  Atomic Wigner-Seitz radii
   RWIGS  =  -1.00 -1.00
  virtual crystal weights 
   VCA    =   1.00  1.00
   NELECT =      92.0000    total number of electrons
   NUPDOWN=      -1.0000    fix difference up-down

 DOS related values:
   EMIN   =  10.00;   EMAX   =-10.00  energy-range for DOS
   EFERMI =   0.00
   ISMEAR =    -5;   SIGMA  =   0.05  broadening in eV -4-tet -1-fermi 0-gaus

 Electronic relaxation 2 (details)
   IALGO  =     38    algorithm
   LDIAG  =      T    sub-space diagonalisation (order eigenvalues)
   LSUBROT=      F    optimize rotation matrix (better conditioning)
   TURBO    =      0    0=normal 1=particle mesh
   IRESTART =      0    0=no restart 2=restart with 2 vectors
   NREBOOT  =      0    no. of reboots
   NMIN     =      0    reboot dimension
   EREF     =   0.00    reference energy to select bands
   IMIX   =      4    mixing-type and parameters
     AMIX     =   0.40;   BMIX     =  1.00
     AMIX_MAG =   1.60;   BMIX_MAG =  1.00
     AMIN     =   0.10
     WC   =   100.;   INIMIX=   1;  MIXPRE=   1;  MAXMIX= -45

 Intra band minimization:
   WEIMIN = 0.0000     energy-eigenvalue tresh-hold
   EBREAK =  0.45E-08  absolut break condition
   DEPER  =   0.30     relativ break condition  

   TIME   =   0.40     timestep for ELM

  volume/ion in A,a.u.               =      24.96       168.43
  Fermi-wavevector in a.u.,A,eV,Ry     =   1.264438  2.389442 21.753057  1.598805
  Thomas-Fermi vector in A             =   2.397744
 
 Write flags
   LWAVE        =      F    write WAVECAR
   LDOWNSAMPLE  =      F    k-point downsampling of WAVECAR
   LCHARG       =      T    write CHGCAR
   LVTOT        =      F    write LOCPOT, total local potential
   LVHAR        =      F    write LOCPOT, Hartree potential only
   LELF         =      F    write electronic localiz. function (ELF)
   LORBIT       =     11    0 simple, 1 ext, 2 COOP (PROOUT), +10 PAW based schemes


 Dipole corrections
   LMONO  =      F    monopole corrections only (constant potential shift)
   LDIPOL =      F    correct potential (dipole corrections)
   IDIPOL =      0    1-x, 2-y, 3-z, 4-all directions 
   EPSILON=  1.0000000 bulk dielectric constant

 Exchange correlation treatment:
   GGA     =    --    GGA type
   LEXCH   =     8    internal setting for exchange type
   VOSKOWN=      0    Vosko Wilk Nusair interpolation
   LHFCALC =     F    Hartree Fock is set to
   LHFONE  =     F    Hartree Fock one center treatment
   AEXX    =    0.0000 exact exchange contribution

 Linear response parameters
   LEPSILON=     F    determine dielectric tensor
   LRPA    =     F    only Hartree local field effects (RPA)
   LNABLA  =     F    use nabla operator in PAW spheres
   LVEL    =     F    velocity operator in full k-point grid
   LINTERFAST=   F  fast interpolation
   KINTER  =     0    interpolate to denser k-point grid
   CSHIFT  =0.1000    complex shift for real part using Kramers Kronig
   OMEGAMAX=  -1.0    maximum frequency
   DEG_THRESHOLD= 0.2000000E-02 threshold for treating states as degnerate
   RTIME   =   -0.100 relaxation time in fs
  (WPLASMAI=    0.000 imaginary part of plasma frequency in eV, 0.658/RTIME)
   DFIELD  = 0.0000000 0.0000000 0.0000000 field for delta impulse in time
 
 Orbital magnetization related:
   ORBITALMAG=     F  switch on orbital magnetization
   LCHIMAG   =     F  perturbation theory with respect to B field
   DQ        =  0.001000  dq finite difference perturbation B field
   LLRAUG    =     F  two centre corrections for induced B field



--------------------------------------------------------------------------------------------------------


 Static calculation
 charge density and potential will be updated during run
 spin polarized calculation
 Variant of blocked Davidson
 Davidson routine will perform the subspace rotation
 perform sub-space diagonalisation
    after iterative eigenvector-optimisation
 modified Broyden-mixing scheme, WC =      100.0
 initial mixing is a Kerker type mixing with AMIX =  0.4000 and BMIX =      1.0000
 Hartree-type preconditioning will be used
 using additional bands           10
 real space projection scheme for non local part
 use partial core corrections
 calculate Harris-corrections to forces 
   (improved forces if not selfconsistent)
 use gradient corrections 
 use of overlap-Matrix (Vanderbilt PP)
 Fermi weights with tetrahedron method with Bloechl corrections


--------------------------------------------------------------------------------------------------------


  energy-cutoff  :      520.00
  volume of cell :      199.67
      direct lattice vectors                 reciprocal lattice vectors
     2.064245120  3.575316214  0.000029319     0.000000000  0.279695742 -0.024643669
     2.064245120  1.191882262 13.527384935     0.000000000 -0.000000606  0.073924171
     4.128490241  0.000000000  0.000000000     0.242219296 -0.139847568 -0.024640251

  length of vectors
     4.128437228 13.735786632  4.128490241     0.280779306  0.073924171  0.280775127


 
 k-points in units of 2pi/SCALE and weight: pymatgen v2019.10.16 with grid density =
   0.00000000  0.00000000  0.00000000       0.003
   0.00000000  0.02796957 -0.00246437       0.007
   0.00000000  0.05593915 -0.00492873       0.007
   0.00000000  0.08390872 -0.00739310       0.007
   0.00000000  0.11187830 -0.00985747       0.007
   0.00000000  0.13984787 -0.01232183       0.003
   0.00000000 -0.00000020  0.02464139       0.007
   0.00000000  0.02796937  0.02217702       0.007
   0.00000000  0.05593895  0.01971266       0.007
   0.00000000  0.08390852  0.01724829       0.007
   0.00000000  0.11187809  0.01478392       0.007
   0.00000000  0.13984767  0.01231956       0.007
   0.00000000 -0.11187850  0.03449886       0.007
   0.00000000 -0.08390892  0.03203449       0.007
   0.00000000 -0.05593935  0.02957012       0.007
   0.00000000 -0.02796978  0.02710576       0.007
   0.02422193 -0.01398476 -0.00246403       0.007
   0.02422193  0.01398482 -0.00492839       0.007
   0.02422193  0.04195439 -0.00739276       0.007
   0.02422193  0.06992397 -0.00985713       0.007
   0.02422193  0.09789354 -0.01232149       0.007
   0.02422193  0.12586311 -0.01478586       0.007
   0.02422193 -0.12586305  0.00739344       0.007
   0.02422193 -0.09789348  0.00492908       0.007
   0.02422193 -0.06992391  0.00246471       0.007
   0.02422193 -0.04195433  0.00000034       0.007
   0.02422193 -0.01398496  0.02217737       0.007
   0.02422193  0.01398462  0.01971300       0.007
   0.02422193  0.04195419  0.01724863       0.007
   0.02422193  0.06992376  0.01478426       0.007
   0.02422193  0.09789334  0.01231990       0.007
   0.02422193  0.12586291  0.00985553       0.007
   0.02422193 -0.12586326  0.03203483       0.007
   0.02422193 -0.09789368  0.02957047       0.007
   0.02422193 -0.06992411  0.02710610       0.007
   0.02422193 -0.04195453  0.02464173       0.007
   0.02422193 -0.01398455 -0.02710542       0.007
   0.02422193  0.01398502 -0.02956978       0.007
   0.02422193  0.04195459 -0.03203415       0.007
   0.02422193  0.06992417 -0.03449852       0.007
   0.02422193  0.09789374 -0.03696288       0.007
   0.02422193  0.12586332 -0.03942725       0.007
   0.02422193 -0.12586285 -0.01724795       0.007
   0.02422193 -0.09789328 -0.01971231       0.007
   0.02422193 -0.06992370 -0.02217668       0.007
   0.02422193 -0.04195413 -0.02464105       0.007
   0.04844386 -0.02796951 -0.00492805       0.007
   0.04844386  0.00000006 -0.00739242       0.007
   0.04844386  0.02796963 -0.00985678       0.007
   0.04844386  0.05593921 -0.01232115       0.007
   0.04844386  0.08390878 -0.01478552       0.007
   0.04844386  0.11187836 -0.01724988       0.007
   0.04844386 -0.13984781  0.00492942       0.007
   0.04844386 -0.11187824  0.00246505       0.007
   0.04844386 -0.08390866  0.00000068       0.007
   0.04844386 -0.05593909 -0.00246368       0.007
   0.04844386 -0.02796972  0.01971334       0.007
   0.04844386 -0.00000014  0.01724897       0.007
   0.04844386  0.02796943  0.01478461       0.007
   0.04844386  0.05593901  0.01232024       0.007
   0.04844386  0.08390858  0.00985587       0.007
   0.04844386  0.11187816  0.00739151       0.007
   0.04844386 -0.13984801  0.02957081       0.007
   0.04844386 -0.11187844  0.02710644       0.007
   0.04844386 -0.08390886  0.02464207       0.007
   0.04844386 -0.05593929  0.02217771       0.007
   0.04844386 -0.02796931 -0.02956944       0.007
   0.04844386  0.00000026 -0.03203381       0.007
   0.04844386  0.02796984 -0.03449817       0.007
   0.04844386  0.05593941 -0.03696254       0.007
   0.04844386  0.08390899 -0.03942691       0.007
   0.04844386  0.11187856 -0.04189128       0.007
   0.04844386 -0.13984761 -0.01971197       0.007
   0.04844386 -0.11187803 -0.02217634       0.007
   0.04844386 -0.08390846 -0.02464071       0.007
   0.04844386 -0.05593889 -0.02710507       0.007
   0.07266579 -0.04195427 -0.00739208       0.007
   0.07266579 -0.01398470 -0.00985644       0.007
   0.07266579  0.01398488 -0.01232081       0.007
   0.07266579  0.04195445 -0.01478518       0.007
   0.07266579  0.06992403 -0.01724954       0.007
   0.07266579  0.09789360 -0.01971391       0.007
   0.07266579 -0.15383257  0.00246539       0.007
   0.07266579 -0.12586299  0.00000103       0.007
   0.07266579 -0.09789342 -0.00246334       0.007
   0.07266579 -0.06992384 -0.00492771       0.007
   0.07266579 -0.04195447  0.01724932       0.007
   0.07266579 -0.01398490  0.01478495       0.007
   0.07266579  0.01398468  0.01232058       0.007
   0.07266579  0.04195425  0.00985621       0.007
   0.07266579  0.06992382  0.00739185       0.007
   0.07266579  0.09789340  0.00492748       0.007
   0.07266579 -0.15383277  0.02710678       0.007
   0.07266579 -0.12586320  0.02464242       0.007
   0.07266579 -0.09789362  0.02217805       0.007
   0.07266579 -0.06992405  0.01971368       0.007
   0.07266579 -0.04195407 -0.03203347       0.007
   0.07266579 -0.01398449 -0.03449783       0.007
   0.07266579  0.01398508 -0.03696220       0.007
   0.07266579  0.04195465 -0.03942657       0.007
   0.07266579  0.06992423 -0.04189093       0.007
   0.07266579  0.09789380 -0.04435530       0.007
   0.07266579 -0.15383237 -0.02217600       0.007
   0.07266579 -0.12586279 -0.02464037       0.007
   0.07266579 -0.09789322 -0.02710473       0.007
   0.07266579 -0.06992364 -0.02956910       0.007
   0.09688772 -0.05593903 -0.00985610       0.007
   0.09688772 -0.02796945 -0.01232047       0.007
   0.09688772  0.00000012 -0.01478483       0.007
   0.09688772  0.02796970 -0.01724920       0.007
   0.09688772  0.05593927 -0.01971357       0.007
   0.09688772  0.08390884 -0.02217793       0.007
   0.09688772 -0.16781732  0.00000137       0.007
   0.09688772 -0.13984775 -0.00246300       0.007
   0.09688772 -0.11187818 -0.00492737       0.007
   0.09688772 -0.08390860 -0.00739173       0.007
   0.09688772 -0.05593923  0.01478529       0.007
   0.09688772 -0.02796966  0.01232092       0.007
   0.09688772 -0.00000008  0.00985656       0.007
   0.09688772  0.02796949  0.00739219       0.007
   0.09688772  0.05593907  0.00492782       0.007
   0.09688772  0.08390864  0.00246346       0.007
   0.09688772 -0.16781753  0.02464276       0.007
   0.09688772 -0.13984795  0.02217839       0.007
   0.09688772 -0.11187838  0.01971402       0.007
   0.09688772 -0.08390880  0.01724966       0.007
   0.09688772 -0.05593883 -0.03449749       0.007
   0.09688772 -0.02796925 -0.03696186       0.007
   0.09688772  0.00000032 -0.03942622       0.007
   0.09688772  0.02796990 -0.04189059       0.007
   0.09688772  0.05593947 -0.04435496       0.007
   0.09688772  0.08390905 -0.04681933       0.007
   0.09688772 -0.16781712 -0.02464002       0.007
   0.09688772 -0.13984755 -0.02710439       0.007
   0.09688772 -0.11187797 -0.02956876       0.007
   0.09688772 -0.08390840 -0.03203312       0.007
   0.12110965 -0.06992378 -0.01232013       0.003
   0.12110965 -0.04195421 -0.01478449       0.007
   0.12110965 -0.01398464 -0.01724886       0.007
   0.12110965  0.01398494 -0.01971323       0.007
   0.12110965  0.04195451 -0.02217759       0.007
   0.12110965  0.06992409 -0.02464196       0.003
   0.12110965 -0.06992399  0.01232126       0.007
   0.12110965 -0.04195441  0.00985690       0.007
   0.12110965 -0.01398484  0.00739253       0.007
   0.12110965  0.01398474  0.00492816       0.007
   0.12110965  0.04195431  0.00246380       0.007
   0.12110965  0.06992389 -0.00000057       0.007
   0.12110965 -0.18180228  0.02217873       0.007
   0.12110965 -0.15383271  0.01971437       0.007
   0.12110965 -0.12586313  0.01725000       0.007
   0.12110965 -0.09789356  0.01478563       0.007
 
 k-points in reciprocal lattice and weights: pymatgen v2019.10.16 with grid density =
   0.00000000  0.00000000  0.00000000       0.003
   0.10000000 -0.00000000  0.00000000       0.007
   0.20000000 -0.00000000  0.00000000       0.007
   0.30000000 -0.00000000  0.00000000       0.007
   0.40000000 -0.00000000  0.00000000       0.007
   0.50000000 -0.00000000  0.00000000       0.003
   0.00000000  0.33333333  0.00000000       0.007
   0.10000000  0.33333333  0.00000000       0.007
   0.20000000  0.33333333  0.00000000       0.007
   0.30000000  0.33333333  0.00000000       0.007
   0.40000000  0.33333333  0.00000000       0.007
   0.50000000  0.33333333  0.00000000       0.007
  -0.40000000  0.33333333  0.00000000       0.007
  -0.30000000  0.33333333  0.00000000       0.007
  -0.20000000  0.33333333  0.00000000       0.007
  -0.10000000  0.33333333  0.00000000       0.007
   0.00000000  0.00000000  0.10000000       0.007
   0.10000000 -0.00000000  0.10000000       0.007
   0.20000000 -0.00000000  0.10000000       0.007
   0.30000000  0.00000000  0.10000000       0.007
   0.40000000 -0.00000000  0.10000000       0.007
   0.50000000 -0.00000000  0.10000000       0.007
  -0.40000000  0.00000000  0.10000000       0.007
  -0.30000000  0.00000000  0.10000000       0.007
  -0.20000000  0.00000000  0.10000000       0.007
  -0.10000000  0.00000000  0.10000000       0.007
   0.00000000  0.33333333  0.10000000       0.007
   0.10000000  0.33333333  0.10000000       0.007
   0.20000000  0.33333333  0.10000000       0.007
   0.30000000  0.33333333  0.10000000       0.007
   0.40000000  0.33333333  0.10000000       0.007
   0.50000000  0.33333333  0.10000000       0.007
  -0.40000000  0.33333333  0.10000000       0.007
  -0.30000000  0.33333333  0.10000000       0.007
  -0.20000000  0.33333333  0.10000000       0.007
  -0.10000000  0.33333333  0.10000000       0.007
   0.00000000 -0.33333333  0.10000000       0.007
   0.10000000 -0.33333333  0.10000000       0.007
   0.20000000 -0.33333333  0.10000000       0.007
   0.30000000 -0.33333333  0.10000000       0.007
   0.40000000 -0.33333333  0.10000000       0.007
   0.50000000 -0.33333333  0.10000000       0.007
  -0.40000000 -0.33333333  0.10000000       0.007
  -0.30000000 -0.33333333  0.10000000       0.007
  -0.20000000 -0.33333333  0.10000000       0.007
  -0.10000000 -0.33333333  0.10000000       0.007
   0.00000000  0.00000000  0.20000000       0.007
   0.10000000 -0.00000000  0.20000000       0.007
   0.20000000  0.00000000  0.20000000       0.007
   0.30000000 -0.00000000  0.20000000       0.007
   0.40000000 -0.00000000  0.20000000       0.007
   0.50000000 -0.00000000  0.20000000       0.007
  -0.40000000  0.00000000  0.20000000       0.007
  -0.30000000  0.00000000  0.20000000       0.007
  -0.20000000  0.00000000  0.20000000       0.007
  -0.10000000  0.00000000  0.20000000       0.007
   0.00000000  0.33333333  0.20000000       0.007
   0.10000000  0.33333333  0.20000000       0.007
   0.20000000  0.33333333  0.20000000       0.007
   0.30000000  0.33333333  0.20000000       0.007
   0.40000000  0.33333333  0.20000000       0.007
   0.50000000  0.33333333  0.20000000       0.007
  -0.40000000  0.33333333  0.20000000       0.007
  -0.30000000  0.33333333  0.20000000       0.007
  -0.20000000  0.33333333  0.20000000       0.007
  -0.10000000  0.33333333  0.20000000       0.007
   0.00000000 -0.33333333  0.20000000       0.007
   0.10000000 -0.33333333  0.20000000       0.007
   0.20000000 -0.33333333  0.20000000       0.007
   0.30000000 -0.33333333  0.20000000       0.007
   0.40000000 -0.33333333  0.20000000       0.007
   0.50000000 -0.33333333  0.20000000       0.007
  -0.40000000 -0.33333333  0.20000000       0.007
  -0.30000000 -0.33333333  0.20000000       0.007
  -0.20000000 -0.33333333  0.20000000       0.007
  -0.10000000 -0.33333333  0.20000000       0.007
  -0.00000000 -0.00000000  0.30000000       0.007
   0.10000000 -0.00000000  0.30000000       0.007
   0.20000000 -0.00000000  0.30000000       0.007
   0.30000000 -0.00000000  0.30000000       0.007
   0.40000000 -0.00000000  0.30000000       0.007
   0.50000000  0.00000000  0.30000000       0.007
  -0.40000000 -0.00000000  0.30000000       0.007
  -0.30000000  0.00000000  0.30000000       0.007
  -0.20000000  0.00000000  0.30000000       0.007
  -0.10000000  0.00000000  0.30000000       0.007
   0.00000000  0.33333333  0.30000000       0.007
   0.10000000  0.33333333  0.30000000       0.007
   0.20000000  0.33333333  0.30000000       0.007
   0.30000000  0.33333333  0.30000000       0.007
   0.40000000  0.33333333  0.30000000       0.007
   0.50000000  0.33333333  0.30000000       0.007
  -0.40000000  0.33333333  0.30000000       0.007
  -0.30000000  0.33333333  0.30000000       0.007
  -0.20000000  0.33333333  0.30000000       0.007
  -0.10000000  0.33333333  0.30000000       0.007
   0.00000000 -0.33333333  0.30000000       0.007
   0.10000000 -0.33333333  0.30000000       0.007
   0.20000000 -0.33333333  0.30000000       0.007
   0.30000000 -0.33333333  0.30000000       0.007
   0.40000000 -0.33333333  0.30000000       0.007
   0.50000000 -0.33333333  0.30000000       0.007
  -0.40000000 -0.33333333  0.30000000       0.007
  -0.30000000 -0.33333333  0.30000000       0.007
  -0.20000000 -0.33333333  0.30000000       0.007
  -0.10000000 -0.33333333  0.30000000       0.007
   0.00000000  0.00000000  0.40000000       0.007
   0.10000000  0.00000000  0.40000000       0.007
   0.20000000  0.00000000  0.40000000       0.007
   0.30000000  0.00000000  0.40000000       0.007
   0.40000000  0.00000000  0.40000000       0.007
   0.50000000  0.00000000  0.40000000       0.007
  -0.40000000  0.00000000  0.40000000       0.007
  -0.30000000  0.00000000  0.40000000       0.007
  -0.20000000  0.00000000  0.40000000       0.007
  -0.10000000  0.00000000  0.40000000       0.007
   0.00000000  0.33333333  0.40000000       0.007
   0.10000000  0.33333333  0.40000000       0.007
   0.20000000  0.33333333  0.40000000       0.007
   0.30000000  0.33333333  0.40000000       0.007
   0.40000000  0.33333333  0.40000000       0.007
   0.50000000  0.33333333  0.40000000       0.007
  -0.40000000  0.33333333  0.40000000       0.007
  -0.30000000  0.33333333  0.40000000       0.007
  -0.20000000  0.33333333  0.40000000       0.007
  -0.10000000  0.33333333  0.40000000       0.007
   0.00000000 -0.33333333  0.40000000       0.007
   0.10000000 -0.33333333  0.40000000       0.007
   0.20000000 -0.33333333  0.40000000       0.007
   0.30000000 -0.33333333  0.40000000       0.007
   0.40000000 -0.33333333  0.40000000       0.007
   0.50000000 -0.33333333  0.40000000       0.007
  -0.40000000 -0.33333333  0.40000000       0.007
  -0.30000000 -0.33333333  0.40000000       0.007
  -0.20000000 -0.33333333  0.40000000       0.007
  -0.10000000 -0.33333333  0.40000000       0.007
   0.00000000  0.00000000  0.50000000       0.003
   0.10000000 -0.00000000  0.50000000       0.007
   0.20000000 -0.00000000  0.50000000       0.007
   0.30000000 -0.00000000  0.50000000       0.007
   0.40000000 -0.00000000  0.50000000       0.007
   0.50000000 -0.00000000  0.50000000       0.003
   0.00000000  0.33333333  0.50000000       0.007
   0.10000000  0.33333333  0.50000000       0.007
   0.20000000  0.33333333  0.50000000       0.007
   0.30000000  0.33333333  0.50000000       0.007
   0.40000000  0.33333333  0.50000000       0.007
   0.50000000  0.33333333  0.50000000       0.007
  -0.40000000  0.33333333  0.50000000       0.007
  -0.30000000  0.33333333  0.50000000       0.007
  -0.20000000  0.33333333  0.50000000       0.007
  -0.10000000  0.33333333  0.50000000       0.007
 
 position of ions in fractional coordinates (direct lattice) 
   0.49986558  0.50040356  0.49986543
   0.75013442  0.74959644  0.75013457
   0.99986717  0.00039884  0.99986700
   0.25013283  0.24960116  0.25013300
   0.62500000  0.12500000  0.62500000
   0.87500153  0.37499677  0.87500085
   0.12500000  0.62500000  0.12500000
   0.37499847  0.87500323  0.37499915
 
 position of ions in cartesian coordinates  (Angst):
   4.12849024  2.38359966  6.76916630
   6.19273536  3.57539843 10.14010152
   6.19273536  3.57531666  0.00542453
   2.06424512  1.19179917  3.37645836
   4.12849024  2.38355792  1.69094144
   6.19273536  3.57535917  5.07275129
   2.06424512  1.19184094  8.45461925
   4.12849024  2.38363892 11.83651653
 


--------------------------------------------------------------------------------------------------------


 k-point  1 :   0.0000 0.0000 0.0000  plane waves:    5403
 k-point  2 :   0.1000-0.0000 0.0000  plane waves:    5399
 k-point  3 :   0.2000-0.0000 0.0000  plane waves:    5382
 k-point  4 :   0.3000-0.0000 0.0000  plane waves:    5365
 k-point  5 :   0.4000-0.0000 0.0000  plane waves:    5368
 k-point  6 :   0.5000-0.0000 0.0000  plane waves:    5390
 k-point  7 :   0.0000 0.3333 0.0000  plane waves:    5411
 k-point  8 :   0.1000 0.3333 0.0000  plane waves:    5392
 k-point  9 :   0.2000 0.3333 0.0000  plane waves:    5387
 k-point 10 :   0.3000 0.3333 0.0000  plane waves:    5364
 k-point 11 :   0.4000 0.3333 0.0000  plane waves:    5380
 k-point 12 :   0.5000 0.3333 0.0000  plane waves:    5395
 k-point 13 :  -0.4000 0.3333 0.0000  plane waves:    5365
 k-point 14 :  -0.3000 0.3333 0.0000  plane waves:    5377
 k-point 15 :  -0.2000 0.3333 0.0000  plane waves:    5385
 k-point 16 :  -0.1000 0.3333 0.0000  plane waves:    5384
 k-point 17 :   0.0000 0.0000 0.1000  plane waves:    5399
 k-point 18 :   0.1000-0.0000 0.1000  plane waves:    5396
 k-point 19 :   0.2000-0.0000 0.1000  plane waves:    5391
 k-point 20 :   0.3000 0.0000 0.1000  plane waves:    5376
 k-point 21 :   0.4000-0.0000 0.1000  plane waves:    5374
 k-point 22 :   0.5000-0.0000 0.1000  plane waves:    5373
 k-point 23 :  -0.4000 0.0000 0.1000  plane waves:    5371
 k-point 24 :  -0.3000 0.0000 0.1000  plane waves:    5370
 k-point 25 :  -0.2000 0.0000 0.1000  plane waves:    5382
 k-point 26 :  -0.1000 0.0000 0.1000  plane waves:    5399
 k-point 27 :   0.0000 0.3333 0.1000  plane waves:    5392
 k-point 28 :   0.1000 0.3333 0.1000  plane waves:    5390
 k-point 29 :   0.2000 0.3333 0.1000  plane waves:    5388
 k-point 30 :   0.3000 0.3333 0.1000  plane waves:    5386
 k-point 31 :   0.4000 0.3333 0.1000  plane waves:    5382
 k-point 32 :   0.5000 0.3333 0.1000  plane waves:    5374
 k-point 33 :  -0.4000 0.3333 0.1000  plane waves:    5377
 k-point 34 :  -0.3000 0.3333 0.1000  plane waves:    5368
 k-point 35 :  -0.2000 0.3333 0.1000  plane waves:    5376
 k-point 36 :  -0.1000 0.3333 0.1000  plane waves:    5381
 k-point 37 :   0.0000-0.3333 0.1000  plane waves:    5384
 k-point 38 :   0.1000-0.3333 0.1000  plane waves:    5399
 k-point 39 :   0.2000-0.3333 0.1000  plane waves:    5387
 k-point 40 :   0.3000-0.3333 0.1000  plane waves:    5370
 k-point 41 :   0.4000-0.3333 0.1000  plane waves:    5374
 k-point 42 :   0.5000-0.3333 0.1000  plane waves:    5370
 k-point 43 :  -0.4000-0.3333 0.1000  plane waves:    5375
 k-point 44 :  -0.3000-0.3333 0.1000  plane waves:    5372
 k-point 45 :  -0.2000-0.3333 0.1000  plane waves:    5384
 k-point 46 :  -0.1000-0.3333 0.1000  plane waves:    5381
 k-point 47 :   0.0000 0.0000 0.2000  plane waves:    5382
 k-point 48 :   0.1000-0.0000 0.2000  plane waves:    5391
 k-point 49 :   0.2000 0.0000 0.2000  plane waves:    5385
 k-point 50 :   0.3000-0.0000 0.2000  plane waves:    5384
 k-point 51 :   0.4000-0.0000 0.2000  plane waves:    5382
 k-point 52 :   0.5000-0.0000 0.2000  plane waves:    5370
 k-point 53 :  -0.4000 0.0000 0.2000  plane waves:    5381
 k-point 54 :  -0.3000 0.0000 0.2000  plane waves:    5374
 k-point 55 :  -0.2000 0.0000 0.2000  plane waves:    5372
 k-point 56 :  -0.1000 0.0000 0.2000  plane waves:    5382
 k-point 57 :   0.0000 0.3333 0.2000  plane waves:    5387
 k-point 58 :   0.1000 0.3333 0.2000  plane waves:    5387
 k-point 59 :   0.2000 0.3333 0.2000  plane waves:    5371
 k-point 60 :   0.3000 0.3333 0.2000  plane waves:    5381
 k-point 61 :   0.4000 0.3333 0.2000  plane waves:    5375
 k-point 62 :   0.5000 0.3333 0.2000  plane waves:    5372
 k-point 63 :  -0.4000 0.3333 0.2000  plane waves:    5374
 k-point 64 :  -0.3000 0.3333 0.2000  plane waves:    5368
 k-point 65 :  -0.2000 0.3333 0.2000  plane waves:    5376
 k-point 66 :  -0.1000 0.3333 0.2000  plane waves:    5384
 k-point 67 :   0.0000-0.3333 0.2000  plane waves:    5385
 k-point 68 :   0.1000-0.3333 0.2000  plane waves:    5387
 k-point 69 :   0.2000-0.3333 0.2000  plane waves:    5381
 k-point 70 :   0.3000-0.3333 0.2000  plane waves:    5375
 k-point 71 :   0.4000-0.3333 0.2000  plane waves:    5370
 k-point 72 :   0.5000-0.3333 0.2000  plane waves:    5362
 k-point 73 :  -0.4000-0.3333 0.2000  plane waves:    5369
 k-point 74 :  -0.3000-0.3333 0.2000  plane waves:    5367
 k-point 75 :  -0.2000-0.3333 0.2000  plane waves:    5376
 k-point 76 :  -0.1000-0.3333 0.2000  plane waves:    5376
 k-point 77 :  -0.0000-0.0000 0.3000  plane waves:    5365
 k-point 78 :   0.1000-0.0000 0.3000  plane waves:    5376
 k-point 79 :   0.2000-0.0000 0.3000  plane waves:    5384
 k-point 80 :   0.3000-0.0000 0.3000  plane waves:    5372
 k-point 81 :   0.4000-0.0000 0.3000  plane waves:    5369
 k-point 82 :   0.5000 0.0000 0.3000  plane waves:    5370
 k-point 83 :  -0.4000-0.0000 0.3000  plane waves:    5367
 k-point 84 :  -0.3000 0.0000 0.3000  plane waves:    5356
 k-point 85 :  -0.2000 0.0000 0.3000  plane waves:    5374
 k-point 86 :  -0.1000 0.0000 0.3000  plane waves:    5370
 k-point 87 :   0.0000 0.3333 0.3000  plane waves:    5364
 k-point 88 :   0.1000 0.3333 0.3000  plane waves:    5387
 k-point 89 :   0.2000 0.3333 0.3000  plane waves:    5381
 k-point 90 :   0.3000 0.3333 0.3000  plane waves:    5366
 k-point 91 :   0.4000 0.3333 0.3000  plane waves:    5371
 k-point 92 :   0.5000 0.3333 0.3000  plane waves:    5373
 k-point 93 :  -0.4000 0.3333 0.3000  plane waves:    5356
 k-point 94 :  -0.3000 0.3333 0.3000  plane waves:    5370
 k-point 95 :  -0.2000 0.3333 0.3000  plane waves:    5367
 k-point 96 :  -0.1000 0.3333 0.3000  plane waves:    5372
 k-point 97 :   0.0000-0.3333 0.3000  plane waves:    5377
 k-point 98 :   0.1000-0.3333 0.3000  plane waves:    5370
 k-point 99 :   0.2000-0.3333 0.3000  plane waves:    5375
 k-point ** :   0.3000-0.3333 0.3000  plane waves:    5373
 k-point ** :   0.4000-0.3333 0.3000  plane waves:    5371
 k-point ** :   0.5000-0.3333 0.3000  plane waves:    5370
 k-point ** :  -0.4000-0.3333 0.3000  plane waves:    5375
 k-point ** :  -0.3000-0.3333 0.3000  plane waves:    5370
 k-point ** :  -0.2000-0.3333 0.3000  plane waves:    5368
 k-point ** :  -0.1000-0.3333 0.3000  plane waves:    5368
 k-point ** :   0.0000 0.0000 0.4000  plane waves:    5367
 k-point ** :   0.1000 0.0000 0.4000  plane waves:    5374
 k-point ** :   0.2000 0.0000 0.4000  plane waves:    5382
 k-point ** :   0.3000 0.0000 0.4000  plane waves:    5369
 k-point ** :   0.4000 0.0000 0.4000  plane waves:    5377
 k-point ** :   0.5000 0.0000 0.4000  plane waves:    5373
 k-point ** :  -0.4000 0.0000 0.4000  plane waves:    5384
 k-point ** :  -0.3000 0.0000 0.4000  plane waves:    5367
 k-point ** :  -0.2000 0.0000 0.4000  plane waves:    5381
 k-point ** :  -0.1000 0.0000 0.4000  plane waves:    5371
 k-point ** :   0.0000 0.3333 0.4000  plane waves:    5380
 k-point ** :   0.1000 0.3333 0.4000  plane waves:    5382
 k-point ** :   0.2000 0.3333 0.4000  plane waves:    5375
 k-point ** :   0.3000 0.3333 0.4000  plane waves:    5371
 k-point ** :   0.4000 0.3333 0.4000  plane waves:    5379
 k-point ** :   0.5000 0.3333 0.4000  plane waves:    5367
 k-point ** :  -0.4000 0.3333 0.4000  plane waves:    5386
 k-point ** :  -0.3000 0.3333 0.4000  plane waves:    5375
 k-point ** :  -0.2000 0.3333 0.4000  plane waves:    5369
 k-point ** :  -0.1000 0.3333 0.4000  plane waves:    5375
 k-point ** :   0.0000-0.3333 0.4000  plane waves:    5365
 k-point ** :   0.1000-0.3333 0.4000  plane waves:    5374
 k-point ** :   0.2000-0.3333 0.4000  plane waves:    5371
 k-point ** :   0.3000-0.3333 0.4000  plane waves:    5371
 k-point ** :   0.4000-0.3333 0.4000  plane waves:    5376
 k-point ** :   0.5000-0.3333 0.4000  plane waves:    5374
 k-point ** :  -0.4000-0.3333 0.4000  plane waves:    5386
 k-point ** :  -0.3000-0.3333 0.4000  plane waves:    5356
 k-point ** :  -0.2000-0.3333 0.4000  plane waves:    5374
 k-point ** :  -0.1000-0.3333 0.4000  plane waves:    5377
 k-point ** :   0.0000 0.0000 0.5000  plane waves:    5390
 k-point ** :   0.1000-0.0000 0.5000  plane waves:    5373
 k-point ** :   0.2000-0.0000 0.5000  plane waves:    5370
 k-point ** :   0.3000-0.0000 0.5000  plane waves:    5370
 k-point ** :   0.4000-0.0000 0.5000  plane waves:    5373
 k-point ** :   0.5000-0.0000 0.5000  plane waves:    5390
 k-point ** :   0.0000 0.3333 0.5000  plane waves:    5395
 k-point ** :   0.1000 0.3333 0.5000  plane waves:    5374
 k-point ** :   0.2000 0.3333 0.5000  plane waves:    5372
 k-point ** :   0.3000 0.3333 0.5000  plane waves:    5373
 k-point ** :   0.4000 0.3333 0.5000  plane waves:    5367
 k-point ** :   0.5000 0.3333 0.5000  plane waves:    5372
 k-point ** :  -0.4000 0.3333 0.5000  plane waves:    5374
 k-point ** :  -0.3000 0.3333 0.5000  plane waves:    5370
 k-point ** :  -0.2000 0.3333 0.5000  plane waves:    5362
 k-point ** :  -0.1000 0.3333 0.5000  plane waves:    5370

 maximum and minimum number of plane-waves per node :      1367     1322

 maximum number of plane-waves:      5411
 maximum index in each direction: 
   IXMAX=    8   IYMAX=   25   IZMAX=    7
   IXMIN=   -8   IYMIN=  -25   IZMIN=   -8


 real space projection operators:
  total allocation   :      10708.00 KBytes
  max/ min on nodes  :       2703.00       2658.50


 parallel 3D FFT for wavefunctions:
    minimum data exchange during FFTs selected (reduces bandwidth)
 parallel 3D FFT for charge:
    minimum data exchange during FFTs selected (reduces bandwidth)


 total amount of memory used by VASP MPI-rank0   240411. kBytes
=======================================================================

   base      :      30000. kBytes
   nonlr-proj:       4687. kBytes
   fftplans  :       4641. kBytes
   grid      :      11308. kBytes
   one-center:        196. kBytes
   wavefun   :     189579. kBytes
 
     INWAV:  cpu time    0.0000: real time    0.0001
 Broyden mixing: mesh for mixing (old mesh)
   NGX = 15   NGY = 51   NGZ = 15
  (NGX  = 64   NGY  =216   NGZ  = 64)
  gives a total of  11475 points

 initial charge density was supplied:
 charge density of overlapping atoms calculated
 number of electron      92.0000000 magnetization       2.4000000
 keeping initial charge density in first step


--------------------------------------------------------------------------------------------------------


 Maximum index for non-local projection operator         2450
 Maximum index for augmentation-charges         3882 (set IRDMAX)


--------------------------------------------------------------------------------------------------------


 First call to EWALD:  gamma=   0.303
 Maximum number of real-space cells 4x 1x 4
 Maximum number of reciprocal cells 2x 6x 2

    FEWALD:  cpu time    0.0012: real time    0.0012


--------------------------------------- Iteration      1(   1)  ---------------------------------------


    POTLOK:  cpu time    0.1314: real time    0.1360
    SETDIJ:  cpu time    1.2379: real time    1.2408
     EDDAV:  cpu time   49.8210: real time   49.9563
 BZINTS: Fermi energy: 21.046127; 92.000000 electrons
         Band energy: 713.730865;  BLOECHL correction: -0.989605
       DOS:  cpu time    0.1571: real time    0.1575
    --------------------------------------------
      LOOP:  cpu time   51.3474: real time   51.4906

 eigenvalue-minimisations  : 37872
 total energy-change (2. order) : 0.1166829E+04  (-0.3149510E+04)
 number of electron      92.0000000 magnetization       2.4000000
 augmentation part       92.0000000 magnetization       2.4000000

 Free energy of the ion-electron system (eV)
  ---------------------------------------------------
  alpha Z        PSCENC =       598.91374870
  Ewald energy   TEWEN  =     -8437.45272472
  -Hartree energ DENC   =     -3135.95565290
  -exchange      EXHF   =         0.00000000
  -V(xc)+E(xc)   XCENC  =       403.54561143
  PAW double counting   =      9716.51005095   -10278.97619931
  entropy T*S    EENTRO =         0.00000000
  eigenvalues    EBANDS =       713.73086473
  atomic energy  EATOM  =     11586.51360488
  Solvation  Ediel_sol  =         0.00000000
  ---------------------------------------------------
  free energy    TOTEN  =      1166.82930377 eV

  energy without entropy =     1166.82930377  energy(sigma->0) =     1166.82930377


--------------------------------------------------------------------------------------------------------




--------------------------------------- Iteration      1(   2)  ---------------------------------------


     EDDAV:  cpu time   57.5781: real time   57.7169
 BZINTS: Fermi energy: 11.393403; 92.000000 electrons
         Band energy:-148.765918;  BLOECHL correction: -0.157062
       DOS:  cpu time    0.1636: real time    0.1640
    --------------------------------------------
      LOOP:  cpu time   57.7416: real time   57.8808

 eigenvalue-minimisations  : 45584
 total energy-change (2. order) :-0.8624968E+03  (-0.7863953E+03)
 number of electron      92.0000000 magnetization       2.4000000
 augmentation part       92.0000000 magnetization       2.4000000

 Free energy of the ion-electron system (eV)
  ---------------------------------------------------
  alpha Z        PSCENC =       598.91374870
  Ewald energy   TEWEN  =     -8437.45272472
  -Hartree energ DENC   =     -3135.95565290
  -exchange      EXHF   =         0.00000000
  -V(xc)+E(xc)   XCENC  =       403.54561143
  PAW double counting   =      9716.51005095   -10278.97619931
  entropy T*S    EENTRO =         0.00000000
  eigenvalues    EBANDS =      -148.76591832
  atomic energy  EATOM  =     11586.51360488
  Solvation  Ediel_sol  =         0.00000000
  ---------------------------------------------------
  free energy    TOTEN  =       304.33252071 eV

  energy without entropy =      304.33252071  energy(sigma->0) =      304.33252071


--------------------------------------------------------------------------------------------------------




--------------------------------------- Iteration      1(   3)  ---------------------------------------


     EDDAV:  cpu time   62.5940: real time   62.7430
 BZINTS: Fermi energy:  6.572665; 92.000000 electrons
         Band energy:-465.758470;  BLOECHL correction: -0.122098
       DOS:  cpu time    0.1618: real time    0.1622
    --------------------------------------------
      LOOP:  cpu time   62.7559: real time   62.9053

 eigenvalue-minimisations  : 50768
 total energy-change (2. order) :-0.3169926E+03  (-0.3101852E+03)
 number of electron      92.0000000 magnetization       2.4000000
 augmentation part       92.0000000 magnetization       2.4000000

 Free energy of the ion-electron system (eV)
  ---------------------------------------------------
  alpha Z        PSCENC =       598.91374870
  Ewald energy   TEWEN  =     -8437.45272472
  -Hartree energ DENC   =     -3135.95565290
  -exchange      EXHF   =         0.00000000
  -V(xc)+E(xc)   XCENC  =       403.54561143
  PAW double counting   =      9716.51005095   -10278.97619931
  entropy T*S    EENTRO =         0.00000000
  eigenvalues    EBANDS =      -465.75846975
  atomic energy  EATOM  =     11586.51360488
  Solvation  Ediel_sol  =         0.00000000
  ---------------------------------------------------
  free energy    TOTEN  =       -12.66003071 eV

  energy without entropy =      -12.66003071  energy(sigma->0) =      -12.66003071


--------------------------------------------------------------------------------------------------------




--------------------------------------- Iteration      1(   4)  ---------------------------------------


     EDDAV:  cpu time   72.6421: real time   72.8153
 BZINTS: Fermi energy:  5.683138; 92.000000 electrons
         Band energy:-512.793610;  BLOECHL correction: -0.012086
       DOS:  cpu time    0.1752: real time    0.1756
    --------------------------------------------
      LOOP:  cpu time   72.8173: real time   72.9909

 eigenvalue-minimisations  : 60784
 total energy-change (2. order) :-0.4703514E+02  (-0.4615421E+02)
 number of electron      92.0000000 magnetization       2.4000000
 augmentation part       92.0000000 magnetization       2.4000000

 Free energy of the ion-electron system (eV)
  ---------------------------------------------------
  alpha Z        PSCENC =       598.91374870
  Ewald energy   TEWEN  =     -8437.45272472
  -Hartree energ DENC   =     -3135.95565290
  -exchange      EXHF   =         0.00000000
  -V(xc)+E(xc)   XCENC  =       403.54561143
  PAW double counting   =      9716.51005095   -10278.97619931
  entropy T*S    EENTRO =         0.00000000
  eigenvalues    EBANDS =      -512.79360984
  atomic energy  EATOM  =     11586.51360488
  Solvation  Ediel_sol  =         0.00000000
  ---------------------------------------------------
  free energy    TOTEN  =       -59.69517080 eV

  energy without entropy =      -59.69517080  energy(sigma->0) =      -59.69517080


--------------------------------------------------------------------------------------------------------




--------------------------------------- Iteration      1(   5)  ---------------------------------------


     EDDAV:  cpu time   78.4201: real time   78.6069
 BZINTS: Fermi energy:  5.617049; 92.000000 electrons
         Band energy:-517.021253;  BLOECHL correction: -0.003541
       DOS:  cpu time    0.1616: real time    0.1620
    CHARGE:  cpu time    2.9543: real time    2.9614
    MIXING:  cpu time    0.0024: real time    0.0024
    --------------------------------------------
      LOOP:  cpu time   81.5384: real time   81.7327

 eigenvalue-minimisations  : 66376
 total energy-change (2. order) :-0.4227643E+01  (-0.4081061E+01)
 number of electron      92.0000002 magnetization       1.7378592
 augmentation part       15.4830791 magnetization       1.5519222

 Broyden mixing:
  rms(total) = 0.27334E+01    rms(broyden)= 0.27334E+01
  rms(prec ) = 0.30100E+01
  weight for this iteration     100.00

 Free energy of the ion-electron system (eV)
  ---------------------------------------------------
  alpha Z        PSCENC =       598.91374870
  Ewald energy   TEWEN  =     -8437.45272472
  -Hartree energ DENC   =     -3135.95565290
  -exchange      EXHF   =         0.00000000
  -V(xc)+E(xc)   XCENC  =       403.54561143
  PAW double counting   =      9716.51005095   -10278.97619931
  entropy T*S    EENTRO =         0.00000000
  eigenvalues    EBANDS =      -517.02125321
  atomic energy  EATOM  =     11586.51360488
  Solvation  Ediel_sol  =         0.00000000
  ---------------------------------------------------
  free energy    TOTEN  =       -63.92281417 eV

  energy without entropy =      -63.92281417  energy(sigma->0) =      -63.92281417


--------------------------------------------------------------------------------------------------------




--------------------------------------- Iteration      1(   6)  ---------------------------------------


    POTLOK:  cpu time    0.1285: real time    0.1289
    SETDIJ:  cpu time    1.2311: real time    1.2340
     EDDAV:  cpu time   60.8471: real time   60.9915
 BZINTS: Fermi energy:  2.657443; 92.000000 electrons
         Band energy:-730.312589;  BLOECHL correction:  0.000000
       DOS:  cpu time    0.0295: real time    0.0296
    CHARGE:  cpu time    2.9210: real time    2.9279
    MIXING:  cpu time    0.0026: real time    0.0026
    --------------------------------------------
      LOOP:  cpu time   65.1598: real time   65.3145

 eigenvalue-minimisations  : 49280
 total energy-change (2. order) :-0.7551336E+00  (-0.1043678E+02)
 number of electron      92.0000003 magnetization       1.5100729
 augmentation part       19.2536917 magnetization       1.5451745

 Broyden mixing:
  rms(total) = 0.32413E+01    rms(broyden)= 0.32413E+01
  rms(prec ) = 0.33038E+01
  weight for this iteration     100.00

 eigenvalues of (default mixing * dielectric matrix)
  average eigenvalue GAMMA=   0.3732
  0.3732

 Free energy of the ion-electron system (eV)
  ---------------------------------------------------
  alpha Z        PSCENC =       598.91374870
  Ewald energy   TEWEN  =     -8437.45272472
  -Hartree energ DENC   =     -2957.21098004
  -exchange      EXHF   =         0.00000000
  -V(xc)+E(xc)   XCENC  =       396.85205293
  PAW double counting   =      9674.89034000   -10196.87140043
  entropy T*S    EENTRO =         0.00000000
  eigenvalues    EBANDS =      -730.31258910
  atomic energy  EATOM  =     11586.51360488
  Solvation  Ediel_sol  =         0.00000000
  ---------------------------------------------------
  free energy    TOTEN  =       -64.67794777 eV

  energy without entropy =      -64.67794777  energy(sigma->0) =      -64.67794777


--------------------------------------------------------------------------------------------------------




--------------------------------------- Iteration      1(   7)  ---------------------------------------


    POTLOK:  cpu time    0.1337: real time    0.1341
    SETDIJ:  cpu time    1.1823: real time    1.1851
     EDDAV:  cpu time   58.0707: real time   58.2127
 BZINTS: Fermi energy:  2.719883; 92.000000 electrons
         Band energy:-659.048618;  BLOECHL correction:  0.000000
       DOS:  cpu time    0.0246: real time    0.0247
    CHARGE:  cpu time    2.8841: real time    2.8910
    MIXING:  cpu time    0.0026: real time    0.0026
    --------------------------------------------
      LOOP:  cpu time   62.2981: real time   62.4503

 eigenvalue-minimisations  : 47992
 total energy-change (2. order) :-0.7611340E+01  (-0.3469158E+01)
 number of electron      92.0000003 magnetization       1.2406832
 augmentation part       19.0902494 magnetization       1.2674561

 Broyden mixing:
  rms(total) = 0.15885E+01    rms(broyden)= 0.15885E+01
  rms(prec ) = 0.16707E+01
  weight for this iteration     100.00

 eigenvalues of (default mixing * dielectric matrix)
  average eigenvalue GAMMA=   0.5864
  0.5864  0.5864

 Free energy of the ion-electron system (eV)
  ---------------------------------------------------
  alpha Z        PSCENC =       598.91374870
  Ewald energy   TEWEN  =     -8437.45272472
  -Hartree energ DENC   =     -3006.05026180
  -exchange      EXHF   =         0.00000000
  -V(xc)+E(xc)   XCENC  =       398.76225939
  PAW double counting   =      9836.43248332   -10390.35977914
  entropy T*S    EENTRO =         0.00000000
  eigenvalues    EBANDS =      -659.04861846
  atomic energy  EATOM  =     11586.51360488
  Solvation  Ediel_sol  =         0.00000000
  ---------------------------------------------------
  free energy    TOTEN  =       -72.28928784 eV

  energy without entropy =      -72.28928784  energy(sigma->0) =      -72.28928784


--------------------------------------------------------------------------------------------------------




--------------------------------------- Iteration      1(   8)  ---------------------------------------


    POTLOK:  cpu time    0.1252: real time    0.1258
    SETDIJ:  cpu time    1.1243: real time    1.1269
     EDDAV:  cpu time   55.8179: real time   55.9508
 BZINTS: Fermi energy:  3.911786; 92.000000 electrons
         Band energy:-582.079052;  BLOECHL correction: -0.003043
       DOS:  cpu time    0.1466: real time    0.1470
    CHARGE:  cpu time    2.9163: real time    2.9232
    MIXING:  cpu time    0.0028: real time    0.0028
    --------------------------------------------
      LOOP:  cpu time   60.1331: real time   60.2765

 eigenvalue-minimisations  : 47576
 total energy-change (2. order) :-0.4347981E+00  (-0.1125395E+01)
 number of electron      92.0000003 magnetization       0.8487605
 augmentation part       18.2995405 magnetization       0.8300477

 Broyden mixing:
  rms(total) = 0.73135E+00    rms(broyden)= 0.73135E+00
  rms(prec ) = 0.76042E+00
  weight for this iteration     100.00

 eigenvalues of (default mixing * dielectric matrix)
  average eigenvalue GAMMA=   0.7495
  0.7928  0.7278  0.7278

 Free energy of the ion-electron system (eV)
  ---------------------------------------------------
  alpha Z        PSCENC =       598.91374870
  Ewald energy   TEWEN  =     -8437.45272472
  -Hartree energ DENC   =     -3058.48247512
  -exchange      EXHF   =         0.00000000
  -V(xc)+E(xc)   XCENC  =       401.18643076
  PAW double counting   =     10158.51658893   -10739.84020741
  entropy T*S    EENTRO =         0.00000000
  eigenvalues    EBANDS =      -582.07905195
  atomic energy  EATOM  =     11586.51360488
  Solvation  Ediel_sol  =         0.00000000
  ---------------------------------------------------
  free energy    TOTEN  =       -72.72408593 eV

  energy without entropy =      -72.72408593  energy(sigma->0) =      -72.72408593


--------------------------------------------------------------------------------------------------------




--------------------------------------- Iteration      1(   9)  ---------------------------------------


    POTLOK:  cpu time    0.1280: real time    0.1286
    SETDIJ:  cpu time    1.1274: real time    1.1300
     EDDAV:  cpu time   68.8707: real time   69.0490
 BZINTS: Fermi energy:  4.957438; 92.000000 electrons
         Band energy:-535.355065;  BLOECHL correction: -0.009143
       DOS:  cpu time    0.1625: real time    0.1628
    CHARGE:  cpu time    2.9358: real time    2.9429
    MIXING:  cpu time    0.0030: real time    0.0030
    --------------------------------------------
[...]
 -0.000   0.000  -0.000   0.000   0.005   0.000  -0.000  -0.004
  0.000   0.000  -0.012   0.000   0.000   0.008  -0.000  -0.000
 -0.000   0.000   0.000  -0.000  -0.000  -0.000   0.000  -0.000
 pseudopotential strength for first ion, spin component:           2
 -8.474  -4.192   0.000  -0.002   0.000   0.000   0.001   0.000
 -4.192  -0.248  -0.000   0.001  -0.000   0.000  -0.000   0.000
  0.000  -0.000 -15.629  -0.000  -0.000   7.415   0.000   0.000
 -0.002   0.001  -0.000 -15.628   0.000   0.000   7.414  -0.000
  0.000  -0.000  -0.000   0.000 -15.629   0.000  -0.000   7.415
  0.000   0.000   7.415   0.000   0.000   4.892  -0.000  -0.000
  0.001  -0.000   0.000   7.414  -0.000  -0.000   4.893   0.000
  0.000   0.000   0.000  -0.000   7.415  -0.000   0.000   4.892
  0.000  -0.000   0.000   0.000   0.000   0.000   0.000  -0.000
 -0.000  -0.000  -0.001  -0.000   0.000   0.000   0.000   0.000
  0.000  -0.000  -0.000  -0.000  -0.000  -0.000   0.000  -0.000
 -0.000   0.000   0.000   0.000  -0.001   0.000   0.000   0.000
  0.000  -0.000   0.000  -0.000   0.000  -0.000  -0.000   0.000
 -0.000   0.000   0.000   0.000  -0.000  -0.000  -0.000   0.000
  0.000   0.000   0.001   0.000   0.000  -0.000  -0.000  -0.000
 -0.001   0.000   0.000   0.001  -0.000   0.000  -0.000   0.000
  0.000  -0.000   0.000   0.000   0.001  -0.000  -0.000  -0.000
 -0.000   0.000  -0.000   0.000  -0.000   0.000   0.000  -0.000
  0.000  -0.000   0.000  -0.000   0.000  -0.000  -0.001  -0.000
 -0.000   0.000   0.000   0.000  -0.000  -0.000  -0.000  -0.001
  0.000  -0.000   0.000  -0.000   0.000   0.000   0.000  -0.000
  0.000  -0.000   0.000   0.000  -0.000  -0.000  -0.001   0.000
  0.000  -0.000   0.000  -0.000   0.000  -0.000   0.000   0.000
 -0.000   0.000  -0.000   0.000  -0.000  -0.001  -0.000   0.000
  0.000  -0.000   0.000  -0.000   0.000  -0.000   0.000  -0.000
  0.000  -0.000   0.000  -0.000   0.000  -0.000  -0.001  -0.000
 -0.000   0.000   0.000   0.000  -0.000  -0.000  -0.000  -0.001
  0.000  -0.000   0.000  -0.000   0.000   0.001   0.000  -0.000
  0.000  -0.000   0.000   0.000  -0.000  -0.000  -0.001   0.000
  0.000  -0.000   0.000  -0.000   0.000  -0.000   0.000   0.001
 -0.000   0.000  -0.000   0.000  -0.000  -0.002  -0.000   0.000
  0.000  -0.000   0.000  -0.000   0.000  -0.000   0.000  -0.000
 total augmentation occupancy for first ion, spin component:           1
  1.995  -0.028  -0.000   0.000   0.000   0.000  -0.000  -0.000   0.000   0.000   0.000   0.000  -0.000  -0.000  -0.000   0.000
 -0.028   0.576  -0.000  -0.000  -0.000   0.000   0.000   0.000   0.000  -0.000   0.002   0.000  -0.000   0.000  -0.000   0.000
 -0.000  -0.000   2.011   0.000   0.000  -0.016  -0.000  -0.000  -0.000  -0.000  -0.000  -0.000   0.000  -0.000  -0.000  -0.000
  0.000  -0.000   0.000   2.011   0.000  -0.000  -0.016  -0.000  -0.000  -0.000   0.000   0.000   0.000  -0.000  -0.000  -0.000
  0.000  -0.000   0.000   0.000   2.011  -0.000  -0.000  -0.016   0.000  -0.000   0.000  -0.000  -0.000  -0.000  -0.000  -0.000
  0.000   0.000  -0.016  -0.000  -0.000   0.017   0.000   0.000   0.000   0.000   0.000   0.000  -0.000   0.000   0.000   0.000
 -0.000   0.000  -0.000  -0.016  -0.000   0.000   0.017   0.000   0.000   0.000   0.000   0.000   0.000   0.000  -0.000   0.000
 -0.000   0.000  -0.000  -0.000  -0.016   0.000   0.000   0.017  -0.000   0.000  -0.000   0.000   0.000  -0.000   0.000  -0.000
  0.000   0.000  -0.000  -0.000   0.000   0.000   0.000  -0.000   0.177   0.000   0.000  -0.090  -0.000   0.046   0.000   0.000
  0.000  -0.000  -0.000  -0.000  -0.000   0.000   0.000   0.000   0.000   0.243  -0.000   0.000  -0.090   0.000   0.066  -0.000
  0.000   0.002  -0.000   0.000   0.000   0.000   0.000  -0.000   0.000  -0.000   0.114  -0.000  -0.000   0.000  -0.000   0.027
  0.000   0.000  -0.000   0.000  -0.000   0.000   0.000   0.000  -0.090   0.000  -0.000   0.243   0.000  -0.027   0.000  -0.000
 -0.000  -0.000   0.000   0.000  -0.000  -0.000   0.000   0.000  -0.000  -0.090  -0.000   0.000   0.178  -0.000  -0.027  -0.000
 -0.000   0.000  -0.000  -0.000  -0.000   0.000   0.000  -0.000   0.046   0.000   0.000  -0.027  -0.000   0.012   0.000   0.000
 -0.000  -0.000  -0.000  -0.000  -0.000   0.000  -0.000   0.000   0.000   0.066  -0.000   0.000  -0.027   0.000   0.018  -0.000
  0.000   0.000  -0.000  -0.000  -0.000   0.000   0.000  -0.000   0.000  -0.000   0.027  -0.000  -0.000   0.000  -0.000   0.007
  0.000   0.000   0.000  -0.000  -0.000   0.000   0.000   0.000  -0.027   0.000  -0.000   0.065   0.000  -0.008  -0.000  -0.000
  0.000  -0.000  -0.000   0.000  -0.000  -0.000   0.000   0.000  -0.000  -0.027  -0.000   0.000   0.046  -0.000  -0.008  -0.000
 -0.000  -0.002   0.000  -0.050  -0.000   0.000   0.056   0.000  -0.000   0.000  -0.002  -0.000   0.000  -0.000   0.000  -0.000
  0.000   0.000   0.000  -0.000  -0.061  -0.000   0.000   0.068  -0.002   0.000   0.000  -0.004  -0.000  -0.001   0.000   0.000
  0.000   0.000   0.028  -0.000   0.000  -0.030  -0.000  -0.000   0.000   0.002   0.000   0.000  -0.003   0.000   0.000   0.000
 -0.000  -0.001   0.000  -0.044  -0.000   0.000   0.050   0.000   0.000   0.000  -0.006  -0.000   0.000   0.000   0.000  -0.001
 -0.000  -0.000   0.000  -0.000   0.028  -0.000   0.000  -0.030  -0.003   0.000  -0.000   0.002   0.000  -0.000   0.000  -0.000
 -0.000   0.000  -0.061   0.000   0.000   0.068   0.000  -0.000  -0.000  -0.004   0.000   0.000  -0.002  -0.000  -0.000   0.000
 -0.000   0.000  -0.000   0.000   0.000   0.000   0.000  -0.000   0.000  -0.000   0.000  -0.000  -0.000   0.000  -0.000   0.000
  0.000  -0.001  -0.000   0.053   0.000  -0.000  -0.055  -0.000   0.000  -0.000   0.003   0.000  -0.000   0.000  -0.000   0.001
 -0.000   0.000  -0.000   0.000   0.065   0.000   0.000  -0.067   0.003   0.000  -0.000   0.001   0.000   0.001   0.000   0.000
 -0.000  -0.000  -0.030   0.000  -0.000   0.030   0.000   0.000  -0.000   0.000  -0.000  -0.000   0.002  -0.000   0.000  -0.000
  0.000  -0.001  -0.000   0.046   0.000  -0.000  -0.049  -0.000  -0.000  -0.000   0.004   0.000  -0.000  -0.000  -0.000   0.001
  0.000  -0.000  -0.000   0.000  -0.030   0.000  -0.000   0.030   0.002  -0.000   0.000   0.000  -0.000   0.000   0.000   0.000
  0.000  -0.000   0.064  -0.000  -0.000  -0.067  -0.000   0.000   0.000   0.001  -0.000   0.000   0.004   0.000  -0.000  -0.000
  0.000  -0.000   0.000  -0.000  -0.000  -0.000  -0.000   0.000  -0.000   0.000  -0.000   0.000   0.000   0.000  -0.000  -0.000
 total augmentation occupancy for first ion, spin component:           2
  0.042   0.160  -0.000  -0.000  -0.000   0.000  -0.000  -0.000   0.000   0.000  -0.000  -0.000  -0.000   0.000   0.000   0.000
  0.160  -0.126  -0.000  -0.002  -0.000  -0.000   0.001   0.000   0.000   0.000  -0.002  -0.000   0.000   0.000  -0.000  -0.000
 -0.000  -0.000   0.007   0.000   0.000   0.044  -0.000  -0.000  -0.000  -0.000  -0.000  -0.000   0.001   0.000   0.000   0.000
 -0.000  -0.002   0.000   0.007   0.000  -0.000   0.044   0.000   0.000  -0.000   0.001   0.000  -0.000   0.000   0.000   0.000
 -0.000  -0.000   0.000   0.000   0.007  -0.000   0.000   0.044   0.001  -0.000   0.000  -0.000  -0.000   0.000   0.000   0.000
  0.000  -0.000   0.044  -0.000  -0.000  -0.003  -0.000  -0.000   0.000   0.000  -0.000   0.000  -0.001   0.000   0.000  -0.000
 -0.000   0.001  -0.000   0.044   0.000  -0.000  -0.003  -0.000   0.000  -0.000  -0.001  -0.000   0.000   0.000  -0.000  -0.000
 -0.000   0.000  -0.000   0.000   0.044  -0.000  -0.000  -0.003  -0.001   0.000  -0.000   0.000   0.000  -0.000   0.000  -0.000
  0.000   0.000  -0.000   0.000   0.001   0.000   0.000  -0.001  -0.040  -0.000  -0.000   0.006   0.000  -0.010  -0.000  -0.000
  0.000   0.000  -0.000  -0.000  -0.000   0.000  -0.000   0.000  -0.000  -0.046   0.000   0.000   0.006  -0.000  -0.012   0.000
 -0.000  -0.002  -0.000   0.001   0.000  -0.000  -0.001  -0.000  -0.000   0.000  -0.036  -0.000   0.000  -0.000   0.000  -0.008
 -0.000  -0.000  -0.000   0.000  -0.000   0.000  -0.000   0.000   0.006   0.000  -0.000  -0.046  -0.000   0.003   0.000  -0.000
 -0.000   0.000   0.001  -0.000  -0.000  -0.001   0.000   0.000   0.000   0.006   0.000  -0.000  -0.040   0.000   0.003   0.000
  0.000   0.000   0.000   0.000   0.000   0.000   0.000  -0.000  -0.010  -0.000  -0.000   0.003   0.000  -0.002  -0.000  -0.000
  0.000  -0.000   0.000   0.000   0.000   0.000  -0.000   0.000  -0.000  -0.012   0.000   0.000   0.003  -0.000  -0.003   0.000
  0.000  -0.000   0.000   0.000   0.000  -0.000  -0.000  -0.000  -0.000   0.000  -0.008  -0.000   0.000  -0.000   0.000  -0.002
  0.000  -0.000   0.000   0.000   0.000   0.000  -0.000   0.000   0.003   0.000  -0.000  -0.012  -0.000   0.001   0.000  -0.000
 -0.000   0.000   0.000  -0.000   0.000  -0.000   0.000   0.000   0.000   0.003   0.000  -0.000  -0.010   0.000   0.001   0.000
 -0.000   0.011   0.000   0.008   0.000  -0.000  -0.012  -0.000   0.000  -0.000   0.006   0.000  -0.000   0.000  -0.000   0.001
  0.000   0.000  -0.000   0.000   0.008   0.000   0.000  -0.013   0.004  -0.000  -0.000   0.014   0.000   0.000  -0.000  -0.000
  0.000  -0.000  -0.003  -0.000  -0.000   0.005   0.000   0.000  -0.000  -0.001  -0.000  -0.000   0.008  -0.000  -0.000  -0.000
 -0.000   0.010  -0.000   0.008   0.000  -0.000  -0.011  -0.000  -0.000  -0.000   0.014   0.000  -0.000  -0.000  -0.000   0.002
 -0.000   0.000  -0.000   0.000  -0.002   0.000  -0.000   0.005   0.008  -0.000   0.000  -0.001  -0.000   0.001  -0.000   0.000
 -0.000  -0.000   0.008   0.000  -0.000  -0.013  -0.000   0.000   0.000   0.014  -0.000  -0.000   0.004   0.000   0.003  -0.000
 -0.000  -0.000   0.000   0.000  -0.000  -0.000  -0.000   0.000  -0.000   0.000  -0.000   0.000   0.000  -0.000   0.000  -0.000
  0.001  -0.009  -0.000  -0.001  -0.000   0.000   0.005   0.000  -0.000   0.000  -0.008  -0.000   0.000  -0.000   0.000  -0.001
 -0.000   0.000  -0.000   0.000   0.000  -0.000   0.000   0.005  -0.006  -0.000   0.000  -0.012  -0.000  -0.001  -0.000   0.000
 -0.000   0.000  -0.001   0.000   0.000  -0.002   0.000  -0.000   0.000  -0.001   0.000   0.000  -0.007   0.000  -0.000   0.000
  0.000  -0.008   0.000  -0.001  -0.000  -0.000   0.005   0.000   0.000   0.000  -0.014  -0.000   0.000   0.000   0.000  -0.002
  0.000  -0.000   0.000  -0.000  -0.001  -0.000   0.000  -0.002  -0.008   0.000  -0.000  -0.001   0.000  -0.001   0.000  -0.000
  0.000   0.000  -0.000  -0.000  -0.000   0.005   0.000  -0.000  -0.000  -0.012   0.000  -0.000  -0.006  -0.000  -0.002   0.000
  0.000   0.000  -0.000  -0.000   0.000   0.000   0.000  -0.000   0.000  -0.000   0.000  -0.000  -0.000   0.000  -0.000   0.000


------------------------ aborting loop because EDIFF is reached ----------------------------------------


 


 total charge     
 
# of ion       s       p       d       f       tot
--------------------------------------------------
    1        2.080   5.876   0.501   6.726  15.183
    2        2.080   5.876   0.501   6.726  15.183
    3        2.080   5.876   0.501   6.726  15.183
    4        2.080   5.876   0.501   6.726  15.183
    5        1.317   2.451   0.000   0.000   3.769
    6        1.317   2.450   0.000   0.000   3.767
    7        1.317   2.452   0.000   0.000   3.769
    8        1.317   2.450   0.000   0.000   3.767
--------------------------------------------------
tot         13.588  33.305   2.006  26.905  75.804

 


 magnetization (x)
 
# of ion       s       p       d       f       tot
--------------------------------------------------
    1        0.007   0.011  -0.114  -6.666  -6.762
    2        0.007   0.011  -0.114  -6.666  -6.762
    3       -0.007  -0.011   0.114   6.666   6.762
    4       -0.007  -0.011   0.114   6.666   6.762
    5       -0.007  -0.066   0.000   0.000  -0.073
    6       -0.000  -0.000   0.000   0.000  -0.000
    7        0.007   0.066   0.000   0.000   0.073
    8       -0.000  -0.000   0.000   0.000  -0.000
--------------------------------------------------
tot         -0.000  -0.000   0.000   0.000  -0.000

 
    CHARGE:  cpu time    2.9087: real time    2.9157
    FORLOC:  cpu time    0.0066: real time    0.0066
    FORNL :  cpu time   13.5731: real time   13.6053
    STRESS:  cpu time   40.6999: real time   40.7963
    FORCOR:  cpu time    0.1298: real time    0.1301
    FORHAR:  cpu time    0.0169: real time    0.0169
    MIXING:  cpu time    0.0062: real time    0.0062
    OFIELD:  cpu time    0.0000: real time    0.0000

  FORCE on cell =-STRESS in cart. coord.  units (eV):
  Direction    XX          YY          ZZ          XY          YZ          ZX
  --------------------------------------------------------------------------------------
  Alpha Z   598.91375   598.91375   598.91375
  Ewald   -2812.61824 -2812.63384 -2812.21074     0.00000    -0.00691     0.00000
  Hartree  1023.87792  1023.88116  1023.85508    -0.00001     0.02111     0.00000
  E(xc)    -452.66690  -452.66740  -452.66475     0.00000    -0.00037     0.00000
  Local     501.03673   501.02616   500.21823     0.00005    -0.04653     0.00000
  n-local   -61.14780   -61.11750   -61.17433    -0.00083     0.03814     0.00067
  augment    99.41536    99.41507    99.43457     0.00000    -0.00015    -0.00021
  Kinetic  1103.95541  1103.94163  1104.39020     0.00315    -0.01192    -0.00366
  Fock        0.00000     0.00000     0.00000     0.00000     0.00000     0.00000
  -------------------------------------------------------------------------------------
  Total       0.76622     0.75903     0.76201     0.00000    -0.00663    -0.00000
  in kB       6.14818     6.09050     6.11441     0.00000    -0.05323    -0.00000
  external pressure =        6.12 kB  Pullay stress =        0.00 kB


 VOLUME and BASIS-vectors are now :
 -----------------------------------------------------------------------------
  energy-cutoff  :      520.00
  volume of cell :      199.67
      direct lattice vectors                 reciprocal lattice vectors
     2.064245120  3.575316214  0.000029319     0.000000000  0.279695742 -0.024643669
     2.064245120  1.191882262 13.527384935     0.000000000 -0.000000606  0.073924171
     4.128490241  0.000000000  0.000000000     0.242219296 -0.139847568 -0.024640251

  length of vectors
     4.128437228 13.735786632  4.128490241     0.280779306  0.073924171  0.280775127


 FORCES acting on ions
    electron-ion (+dipol)            ewald-force                    non-local-force                 convergence-correction
 -----------------------------------------------------------------------------------------------
   0.357E-05 -.361E-02 0.590E+01   -.255E-11 0.108E-03 -.588E+01   -.108E-18 0.948E-03 -.355E-01   0.163E-06 0.223E-02 0.223E-02
   -.357E-05 0.361E-02 -.590E+01   0.253E-11 -.108E-03 0.588E+01   0.108E-18 -.948E-03 0.355E-01   -.163E-06 -.223E-02 -.223E-02
   0.353E-05 -.346E-03 0.584E+01   -.176E-11 -.979E-04 -.582E+01   -.217E-18 -.160E-02 -.337E-01   0.523E-08 0.199E-02 0.518E-03
   -.353E-05 0.346E-03 -.584E+01   0.177E-11 0.979E-04 0.582E+01   0.217E-18 0.160E-02 0.337E-01   -.523E-08 -.199E-02 -.518E-03
   -.513E-13 -.288E-11 0.748E-12   0.176E-14 0.331E-14 -.185E-12   -.265E-22 0.372E-22 0.662E-23   0.318E-15 0.153E-13 -.256E-12
   0.135E-08 0.481E-03 -.307E-02   -.181E-11 -.205E-03 0.306E-02   0.271E-19 0.456E-03 0.996E-04   0.394E-07 -.109E-02 0.667E-03
   0.317E-12 0.490E-12 -.717E-12   0.107E-13 0.162E-14 0.711E-13   0.000E+00 0.199E-22 0.265E-22   0.235E-13 -.213E-13 0.180E-12
   -.135E-08 -.481E-03 0.307E-02   0.181E-11 0.205E-03 -.306E-02   -.271E-19 -.456E-03 -.996E-04   -.394E-07 0.109E-02 -.667E-03
 -----------------------------------------------------------------------------------------------
   0.173E-12 0.493E-11 0.157E-11   0.249E-14 0.254E-14 0.139E-12   -.265E-22 0.542E-19 -.694E-17   -.124E-13 -.255E-12 -.258E-12
 
 
 POSITION                                       TOTAL-FORCE (eV/Angst)
 -----------------------------------------------------------------------------------
      4.12849      2.38360      6.76917        -0.000000     -0.000329     -0.009981
      6.19274      3.57540     10.14010        -0.000000      0.000329      0.009981
      6.19274      3.57532      0.00542        -0.000000     -0.000062     -0.010028
      2.06425      1.19180      3.37646        -0.000000      0.000062      0.010028
      4.12849      2.38356      1.69094        -0.000000      0.000000     -0.000000
      6.19274      3.57536      5.07275         0.000000     -0.000357      0.000752
      2.06425      1.19184      8.45462        -0.000000      0.000000     -0.000000
      4.12849      2.38364     11.83652        -0.000000      0.000357     -0.000752
 -----------------------------------------------------------------------------------
    total drift:                                0.000000      0.000000      0.000000


--------------------------------------------------------------------------------------------------------



  FREE ENERGIE OF THE ION-ELECTRON SYSTEM (eV)
  ---------------------------------------------------
  free  energy   TOTEN  =       -74.98247650 eV

  energy  without entropy=      -74.98247650  energy(sigma->0) =      -74.98247650
 


--------------------------------------------------------------------------------------------------------


    POTLOK:  cpu time    1.2346: real time    1.2375


--------------------------------------------------------------------------------------------------------


     LOOP+:  cpu time 1718.3854: real time 1722.6444
    4ORBIT:  cpu time    0.0000: real time    0.0000
 


 total charge     
 
# of ion       s       p       d       f       tot
--------------------------------------------------
    1        2.080   5.876   0.501   6.726  15.183
    2        2.080   5.876   0.501   6.726  15.183
    3        2.080   5.876   0.501   6.726  15.183
    4        2.080   5.876   0.501   6.726  15.183
    5        1.317   2.451   0.000   0.000   3.769
    6        1.317   2.450   0.000   0.000   3.767
    7        1.317   2.452   0.000   0.000   3.769
    8        1.317   2.450   0.000   0.000   3.767
--------------------------------------------------
tot         13.588  33.305   2.006  26.905  75.804

 


 magnetization (x)
 
# of ion       s       p       d       f       tot
--------------------------------------------------
    1        0.007   0.011  -0.114  -6.666  -6.762
    2        0.007   0.011  -0.114  -6.666  -6.762
    3       -0.007  -0.011   0.114   6.666   6.762
    4       -0.007  -0.011   0.114   6.666   6.762
    5       -0.007  -0.066   0.000   0.000  -0.073
    6       -0.000  -0.000   0.000   0.000  -0.000
    7        0.007   0.066   0.000   0.000   0.073
    8       -0.000  -0.000   0.000   0.000  -0.000
--------------------------------------------------
tot         -0.000  -0.000   0.000   0.000  -0.000

 
 BZINTS: Fermi energy:  4.537415; 92.000000 electrons
         Band energy:-551.033245;  BLOECHL correction: -0.006634

 total amount of memory used by VASP MPI-rank0   240411. kBytes
=======================================================================

   base      :      30000. kBytes
   nonlr-proj:       4687. kBytes
   fftplans  :       4641. kBytes
   grid      :      11308. kBytes
   one-center:        196. kBytes
   wavefun   :     189579. kBytes
 
  
  
 General timing and accounting informations for this job:
 ========================================================
  
                  Total CPU time used (sec):     1736.796
                            User time (sec):     1731.056
                          System time (sec):        5.739
                         Elapsed time (sec):     1741.399
  
                   Maximum memory used (kb):      303568.
                   Average memory used (kb):           0.
  
                          Minor page faults:       193802
                          Major page faults:            0
                 Voluntary context switches:          438
