=========================================
SLURM_JOB_ID = 51706442
SLURM_JOB_NODELIST = lnode34
SLURM_GPUS = 
SLURM_CPUS_ON_NODE = 24
SLURM_JOB_PARTITION = lenovo
SLURM_TASK_PID = 400225
CUDA_VISIBLE_DEVICES = 
==========================================
 running on   24 total cores
 distrk:  each k-point on   24 cores,    1 groups
 distr:  one band on    4 cores,    6 groups
 using from now: INCAR     
 vasp.5.4.4.18Apr17-6-g9f103f2a35 (build Apr 28 2018 00:24:27) complex          
  
 POSCAR found type information on POSCAR  Fe O 
 POSCAR found :  2 types and      30 ions
 scaLAPACK will be used
 LDA part: xc-table for Pade appr. of Perdew
 POSCAR, INCAR and KPOINTS ok, starting setup
 FFT: planning ...
 WAVECAR not read
 entering main loop
       N       E                     dE             d eps       ncg     rms          rms(c)
DAV:   1     0.518731259503E+04    0.51873E+04   -0.19159E+05 11472   0.269E+03
DAV:   2     0.681744914805E+03   -0.45056E+04   -0.41331E+04 11424   0.717E+02
DAV:   3    -0.219805042766E+03   -0.90155E+03   -0.77400E+03 11796   0.293E+02
DAV:   4    -0.293616490327E+03   -0.73811E+02   -0.72864E+02 12900   0.798E+01
DAV:   5    -0.294516330200E+03   -0.89984E+00   -0.89676E+00 12768   0.989E+00    0.809E+01
DAV:   6    -0.235276093456E+03    0.59240E+02   -0.25295E+02 14832   0.811E+01    0.912E+01
DAV:   7    -0.212084979343E+03    0.23191E+02   -0.11408E+02 12204   0.637E+01    0.437E+01
DAV:   8    -0.218323057820E+03   -0.62381E+01   -0.21468E+01 12120   0.173E+01    0.265E+01
DAV:   9    -0.222494666755E+03   -0.41716E+01   -0.81934E+00 12612   0.170E+01    0.270E+01
DAV:  10    -0.222169248031E+03    0.32542E+00   -0.24504E+00 12564   0.690E+00    0.186E+01
DAV:  11    -0.221606686319E+03    0.56256E+00   -0.22713E-01 14232   0.282E+00    0.122E+01
DAV:  12    -0.221404299109E+03    0.20239E+00   -0.19637E-01 15240   0.240E+00    0.842E+00
DAV:  13    -0.221403602207E+03    0.69690E-03   -0.11108E-01 13896   0.223E+00    0.469E+00
DAV:  14    -0.221448151828E+03   -0.44550E-01   -0.15188E-01 14976   0.200E+00    0.182E+00
DAV:  15    -0.221466120195E+03   -0.17968E-01   -0.63346E-02 12744   0.679E-01    0.144E+00
DAV:  16    -0.221461115987E+03    0.50042E-02   -0.89003E-03 14376   0.701E-01    0.382E-01
DAV:  17    -0.221461715076E+03   -0.59909E-03   -0.47860E-03 12492   0.182E-01    0.195E-01
DAV:  18    -0.221461949617E+03   -0.23454E-03   -0.25629E-04 14028   0.829E-02    0.861E-02
DAV:  19    -0.221462006319E+03   -0.56702E-04   -0.10286E-04 13704   0.430E-02    0.169E-02
DAV:  20    -0.221462014900E+03   -0.85810E-05   -0.22009E-05 12444   0.143E-02    0.891E-03
DAV:  21    -0.221462012755E+03    0.21451E-05   -0.23706E-06 12600   0.883E-03    0.113E-02
DAV:  22    -0.221462013817E+03   -0.10619E-05   -0.10017E-06 10740   0.531E-03    0.502E-03
DAV:  23    -0.221462013923E+03   -0.10597E-06   -0.29216E-07  9720   0.319E-03    0.662E-04
DAV:  24    -0.221462013506E+03    0.41654E-06   -0.88445E-08  6420   0.869E-04    0.468E-04
DAV:  25    -0.221462013424E+03    0.82800E-07   -0.70045E-09  6216   0.352E-04
   1 F= -.22146201E+03 E0= -.22146201E+03  d E =0.000000E+00  mag=    42.3377
