 vasp.5.4.4.18Apr17-6-g9f103f2a35 (build Apr 28 2018 00:24:27) complex          
  
 executed on             LinuxIFC date 2021.09.06  03:27:40
 running on   24 total cores
 distrk:  each k-point on   24 cores,    1 groups
 distr:  one band on NCORES_PER_BAND=   4 cores,    6 groups


--------------------------------------------------------------------------------------------------------


 INCAR:
 POTCAR:    PAW_PBE Fe_pv 02Aug2007               
 POTCAR:    PAW_PBE O 08Apr2002                   
 POTCAR:    PAW_PBE Fe_pv 02Aug2007               
   VRHFIN =Fe:  3pd7s1                                                          
   LEXCH  = PE                                                                  
   EATOM  =  2457.4239 eV,  180.6156 Ry                                         
                                                                                
   TITEL  = PAW_PBE Fe_pv 02Aug2007                                             
   LULTRA =        F    use ultrasoft PP ?                                      
   IUNSCR =        1    unscreen: 0-lin 1-nonlin 2-no                           
   RPACOR =    1.750    partial core radius                                     
   POMASS =   55.847; ZVAL   =   14.000    mass and valenz                      
   RCORE  =    2.200    outmost cutoff radius                                   
   RWIGS  =    2.200; RWIGS  =    1.164    wigner-seitz radius (au A)           
   ENMAX  =  293.238; ENMIN  =  219.928 eV                                      
   ICORE  =        3    local potential                                         
   LCOR   =        T    correct aug charges                                     
   LPAW   =        T    paw PP                                                  
   EAUG   =  578.342                                                            
   DEXC   =    0.000                                                            
   RMAX   =    2.249    core radius for proj-oper                               
   RAUG   =    1.300    factor for augmentation sphere                          
   RDEP   =    2.296    radius for radial grids                                 
   RDEPT  =    1.766    core radius for aug-charge                              
                                                                                
   Atomic configuration                                                         
    8 entries                                                                   
     n  l   j            E        occ.                                          
     1  0  0.50     -6993.8440   2.0000                                         
     2  0  0.50      -814.6047   2.0000                                         
     2  1  1.50      -693.3689   6.0000                                         
     3  0  0.50       -89.4732   2.0000                                         
     3  1  1.50       -55.6373   6.0000                                         
     3  2  2.50        -3.8151   7.0000                                         
     4  0  0.50        -4.2551   1.0000                                         
     4  3  2.50        -1.3606   0.0000                                         
   Description                                                                  
     l       E           TYP  RCUT    TYP  RCUT                                 
     1    -55.6372668     23  2.000                                             
     1     -5.4423304     23  2.000                                             
     2     -3.8151096     23  2.200                                             
     2     -5.1756922     23  2.200                                             
     0     -4.2550951     23  2.200                                             
     0     27.2116520     23  2.200                                             
     3     -1.3605826     23  2.200                                             
  local pseudopotential read in
  partial core-charges read in
  partial kinetic energy density read in
  atomic valenz-charges read in
  non local Contribution for L=           1  read in
    real space projection operators read in
  non local Contribution for L=           1  read in
    real space projection operators read in
  non local Contribution for L=           2  read in
    real space projection operators read in
  non local Contribution for L=           2  read in
    real space projection operators read in
  non local Contribution for L=           0  read in
    real space projection operators read in
  non local Contribution for L=           0  read in
    real space projection operators read in
    PAW grid and wavefunctions read in
 
   number of l-projection  operators is LMAX  =           6
   number of lm-projection operators is LMMAX =          18
 
 POTCAR:    PAW_PBE O 08Apr2002                   
   VRHFIN =O: s2p4                                                              
   LEXCH  = PE                                                                  
   EATOM  =   432.3788 eV,   31.7789 Ry                                         
                                                                                
   TITEL  = PAW_PBE O 08Apr2002                                                 
   LULTRA =        F    use ultrasoft PP ?                                      
   IUNSCR =        1    unscreen: 0-lin 1-nonlin 2-no                           
   RPACOR =    1.200    partial core radius                                     
   POMASS =   16.000; ZVAL   =    6.000    mass and valenz                      
   RCORE  =    1.520    outmost cutoff radius                                   
   RWIGS  =    1.550; RWIGS  =    0.820    wigner-seitz radius (au A)           
   ENMAX  =  400.000; ENMIN  =  300.000 eV                                      
   ICORE  =        2    local potential                                         
   LCOR   =        T    correct aug charges                                     
   LPAW   =        T    paw PP                                                  
   EAUG   =  605.392                                                            
   DEXC   =    0.000                                                            
   RMAX   =    1.553    core radius for proj-oper                               
   RAUG   =    1.300    factor for augmentation sphere                          
   RDEP   =    1.550    radius for radial grids                                 
   RDEPT  =    1.329    core radius for aug-charge                              
                                                                                
   Atomic configuration                                                         
    4 entries                                                                   
     n  l   j            E        occ.                                          
     1  0  0.50      -514.6923   2.0000                                         
     2  0  0.50       -23.9615   2.0000                                         
     2  1  0.50        -9.0305   4.0000                                         
     3  2  1.50        -9.5241   0.0000                                         
   Description                                                                  
     l       E           TYP  RCUT    TYP  RCUT                                 
     0    -23.9615318     23  1.200                                             
     0     -9.5240782     23  1.200                                             
     1     -9.0304911     23  1.520                                             
     1      8.1634956     23  1.520                                             
     2     -9.5240782      7  1.500                                             
  local pseudopotential read in
  partial core-charges read in
  partial kinetic energy density read in
  kinetic energy density of atom read in
  atomic valenz-charges read in
  non local Contribution for L=           0  read in
    real space projection operators read in
  non local Contribution for L=           0  read in
    real space projection operators read in
  non local Contribution for L=           1  read in
    real space projection operators read in
  non local Contribution for L=           1  read in
    real space projection operators read in
    PAW grid and wavefunctions read in
 
   number of l-projection  operators is LMAX  =           4
   number of lm-projection operators is LMMAX =           8
 
 Optimization of the real space projectors (new method)

 maximal supplied QI-value         = 17.01
 optimisation between [QCUT,QGAM] = [ 15.48, 30.95] = [ 67.08,268.30] Ry 
 Optimized for a Real-space Cutoff    1.26 Angstroem

   l    n(q)    QCUT    max X(q) W(low)/X(q) W(high)/X(q)  e(spline) 
   1     11    15.477     4.267    0.90E-04    0.14E-03    0.59E-06
   1     11    15.477     5.750    0.14E-03    0.21E-03    0.81E-06
   2     11    15.477    53.656    0.97E-04    0.12E-03    0.26E-06
   2     11    15.477    49.521    0.10E-03    0.12E-03    0.27E-06
   0     12    15.477    31.246    0.35E-04    0.34E-04    0.27E-06
   0     12    15.477    12.201    0.29E-04    0.28E-04    0.22E-06
 Optimization of the real space projectors (new method)

 maximal supplied QI-value         = 24.76
 optimisation between [QCUT,QGAM] = [ 15.35, 30.94] = [ 65.97,268.14] Ry 
 Optimized for a Real-space Cutoff    0.97 Angstroem

   l    n(q)    QCUT    max X(q) W(low)/X(q) W(high)/X(q)  e(spline) 
   0      9    15.348    20.381    0.22E-03    0.28E-04    0.18E-06
   0      9    15.348    15.268    0.24E-03    0.32E-04    0.20E-06
   1      8    15.348     5.964    0.20E-03    0.14E-03    0.11E-06
   1      8    15.348     5.382    0.17E-03    0.12E-03    0.89E-07
  PAW_PBE Fe_pv 02Aug2007               :
 energy of atom  1       EATOM=-2457.4239
 kinetic energy error for atom=    0.0010 (will be added to EATOM!!)
  PAW_PBE O 08Apr2002                   :
 energy of atom  2       EATOM= -432.3788
 kinetic energy error for atom=    0.0025 (will be added to EATOM!!)
 
 
 POSCAR: Fe12 O18                                
  positions in direct lattice
  No initial velocities read in
 exchange correlation table for  LEXCH =        8
   RHO(1)=    0.500       N(1)  =     2000
   RHO(2)=  100.500       N(2)  =     4000
 


--------------------------------------------------------------------------------------------------------


 ion  position               nearest neighbor table
   1  0.000  0.000  0.355-  17 1.94  23 1.94  28 1.94  25 2.12  19 2.12  13 2.12
   2  0.000  0.000  0.645-  16 1.94  22 1.94  29 1.94  26 2.12  20 2.12  14 2.12
   3  0.333  0.667  0.022-  30 1.94  24 1.94  18 1.94  27 2.12  21 2.12  15 2.12
   4  0.667  0.333  0.689-  14 1.94  20 1.94  26 1.94  22 2.12  29 2.12  16 2.12
   5  0.333  0.667  0.311-  13 1.94  19 1.94  25 1.94  23 2.12  28 2.12  17 2.12
   6  0.667  0.333  0.978-  27 1.94  21 1.94  15 1.94  30 2.12  24 2.12  18 2.12
   7  0.000  0.000  0.145-  24 1.94  18 1.94  30 1.94  25 2.12  19 2.12  13 2.12
   8  0.000  0.000  0.855-  21 1.94  15 1.94  27 1.94  26 2.12  20 2.12  14 2.12
   9  0.333  0.667  0.811-  20 1.94  14 1.94  26 1.94  27 2.12  21 2.12  15 2.12
  10  0.333  0.667  0.522-  29 1.94  16 1.94  22 1.94  23 2.12  28 2.12  17 2.12
  11  0.667  0.333  0.478-  28 1.94  17 1.94  23 1.94  22 2.12  29 2.12  16 2.12
  12  0.667  0.333  0.189-  19 1.94  13 1.94  25 1.94  30 2.12  24 2.12  18 2.12
  13  0.306  0.000  0.250-   5 1.94  12 1.94   7 2.12   1 2.12
  14  0.694  0.000  0.750-   4 1.94   9 1.94   8 2.12   2 2.12
  15  0.640  0.667  0.917-   6 1.94   8 1.94   9 2.12   3 2.12
  16  0.973  0.333  0.583-  10 1.94   2 1.94   4 2.12  11 2.12
  17  0.027  0.667  0.417-  11 1.94   1 1.94   5 2.12  10 2.12
  18  0.360  0.333  0.083-   3 1.94   7 1.94  12 2.12   6 2.12
  19  0.000  0.306  0.250-  12 1.94   5 1.94   7 2.12   1 2.12
  20  0.000  0.694  0.750-   9 1.94   4 1.94   8 2.12   2 2.12
  21  0.333  0.973  0.917-   6 1.94   8 1.94   9 2.12   3 2.12
  22  0.667  0.640  0.583-  10 1.94   2 1.94   4 2.12  11 2.12
  23  0.333  0.360  0.417-  11 1.94   1 1.94   5 2.12  10 2.12
  24  0.667  0.027  0.083-   3 1.94   7 1.94  12 2.12   6 2.12
  25  0.694  0.694  0.250-  12 1.94   5 1.94   7 2.12   1 2.12
  26  0.306  0.306  0.750-   9 1.94   4 1.94   8 2.12   2 2.12
  27  0.027  0.360  0.917-   6 1.94   8 1.94   9 2.12   3 2.12
  28  0.640  0.973  0.417-  11 1.94   1 1.94   5 2.12  10 2.12
  29  0.360  0.027  0.583-  10 1.94   2 1.94   4 2.12  11 2.12
  30  0.973  0.640  0.083-   3 1.94   7 1.94  12 2.12   6 2.12
 
  LATTYP: Found a hexagonal cell.
 ALAT       =     5.0350995578
 C/A-ratio  =     2.7324385232
  
  Lattice vectors:
  
 A1 = (   5.0351000000,   0.0000000000,   0.0000000000)
 A2 = (  -2.5175500000,   4.3605240000,   0.0000000000)
 A3 = (   0.0000000000,   0.0000000000,  13.7581000000)


Analysis of symmetry for initial positions (statically):
=====================================================================
 Subroutine PRICEL returns following result:
 
  LATTYP: Found a trigonal (rhomboedric) cell.
 ALAT       =     5.4297801492
 COS(alpha) =     0.5700456062
  
  Lattice vectors:
  
 A1 = (  -2.5175449649,  -1.4535109070,  -4.5860425054)
 A2 = (  -0.0000025175,   2.9070174535,  -4.5860287473)
 A3 = (   2.5175474825,  -1.4535065465,  -4.5860287473)
 
   3 primitive cells build up your supercell.
 

 Routine SETGRP: Setting up the symmetry group for a 
 hexagonal supercell.


 Subroutine GETGRP returns: Found 12 space group operations
 (whereof  6 operations were pure point group operations)
 out of a pool of 24 trial point group operations.


The static configuration has the point symmetry S_6 .
 The point group associated with its full space group is D_3d.


Analysis of symmetry for dynamics (positions and initial velocities):
=====================================================================
 Subroutine PRICEL returns following result:
 
  LATTYP: Found a trigonal (rhomboedric) cell.
 ALAT       =     5.4297801492
 COS(alpha) =     0.5700456062
  
  Lattice vectors:
  
 A1 = (  -2.5175449649,  -1.4535109070,  -4.5860425054)
 A2 = (  -0.0000025175,   2.9070174535,  -4.5860287473)
 A3 = (   2.5175474825,  -1.4535065465,  -4.5860287473)
 
   3 primitive cells build up your supercell.
 

 Routine SETGRP: Setting up the symmetry group for a 
 hexagonal supercell.


 Subroutine GETGRP returns: Found 12 space group operations
 (whereof  6 operations were pure point group operations)
 out of a pool of 24 trial point group operations.


The dynamic configuration has the point symmetry S_6 .
 The point group associated with its full space group is D_3d.


Analysis of structural, dynamic, and magnetic symmetry:
=====================================================================
 Subroutine PRICEL returns following result:
 
  LATTYP: Found a trigonal (rhomboedric) cell.
 ALAT       =     5.4297801492
 COS(alpha) =     0.5700456062
  
  Lattice vectors:
  
 A1 = (  -2.5175449649,  -1.4535109070,  -4.5860425054)
 A2 = (  -0.0000025175,   2.9070174535,  -4.5860287473)
 A3 = (   2.5175474825,  -1.4535065465,  -4.5860287473)
 
   3 primitive cells build up your supercell.
 

 Routine SETGRP: Setting up the symmetry group for a 
 hexagonal supercell.


 Subroutine GETGRP returns: Found 12 space group operations
 (whereof  6 operations were pure point group operations)
 out of a pool of 24 trial point group operations.


The magnetic configuration has the point symmetry S_6 .
 The point group associated with its full space group is D_3d.


 Subroutine INISYM returns: Found 12 space group operations
 (whereof  6 operations are pure point group operations),
 and found     3 'primitive' translations

 
 
 KPOINTS: pymatgen with grid density = 2464 / numb

Automatic generation of k-mesh.
Space group operators:
 irot       det(A)        alpha          n_x          n_y          n_z        tau_x        tau_y        tau_z
    1     1.000000     0.000000     1.000000     0.000000     0.000000     0.000000     0.000000     0.000000
    2    -1.000000     0.000000     1.000000     0.000000     0.000000     0.000000     0.000000     0.000000
    3     1.000000   120.000000     0.000000     0.000000    -1.000000     0.000000     0.000000     0.000000
    4    -1.000000   120.000000     0.000000     0.000000    -1.000000     0.000000     0.000000     0.000000
    5     1.000000   120.000000     0.000000     0.000000     1.000000     0.000000     0.000000     0.000000
    6    -1.000000   120.000000     0.000000     0.000000     1.000000     0.000000     0.000000     0.000000
    7     1.000000   180.000000     1.000000     0.000000     0.000000     0.000001    -0.000000    -0.500000
    8    -1.000000   180.000000     1.000000     0.000000     0.000000     0.000001    -0.000000    -0.500000
    9     1.000000   180.000000     0.500000    -0.866025     0.000000     0.000000     0.000000    -0.500000
   10    -1.000000   180.000000     0.500000    -0.866025     0.000000     0.000000     0.000000    -0.500000
   11     1.000000   180.000000    -0.500000    -0.866025     0.000000     0.000000     0.000000    -0.500000
   12    -1.000000   180.000000    -0.500000    -0.866025     0.000000     0.000000     0.000000    -0.500000
 
 Subroutine IBZKPT returns following result:
 ===========================================
 
 Found     14 irreducible k-points:
 
 Following reciprocal coordinates:
            Coordinates               Weight
  0.000000  0.000000  0.000000      1.000000
  0.166667  0.000000  0.000000      6.000000
  0.333333  0.000000  0.000000      6.000000
  0.500000  0.000000  0.000000      3.000000
  0.166667  0.166667  0.000000      6.000000
  0.333333  0.166667  0.000000     12.000000
  0.333333  0.333333  0.000000      2.000000
  0.000000  0.000000  0.500000      1.000000
  0.166667  0.000000  0.500000      6.000000
  0.333333  0.000000  0.500000      6.000000
  0.500000  0.000000  0.500000      3.000000
  0.166667  0.166667  0.500000      6.000000
  0.333333  0.166667  0.500000     12.000000
  0.333333  0.333333  0.500000      2.000000
 
 Following cartesian coordinates:
            Coordinates               Weight
  0.000000  0.000000  0.000000      1.000000
  0.033101  0.019111  0.000000      6.000000
  0.066202  0.038222  0.000000      6.000000
  0.099303  0.057333  0.000000      3.000000
  0.033101  0.057333  0.000000      6.000000
  0.066202  0.076443  0.000000     12.000000
  0.066202  0.114665  0.000000      2.000000
  0.000000  0.000000  0.036342      1.000000
  0.033101  0.019111  0.036342      6.000000
  0.066202  0.038222  0.036342      6.000000
  0.099303  0.057333  0.036342      3.000000
  0.033101  0.057333  0.036342      6.000000
  0.066202  0.076443  0.036342     12.000000
  0.066202  0.114665  0.036342      2.000000
 
 TETIRR: Found     71 inequivalent tetrahedra from      432


--------------------------------------------------------------------------------------------------------




 Dimension of arrays:
   k-points           NKPTS =     14   k-points in BZ     NKDIM =     14   number of bands    NBANDS=    204
   number of dos      NEDOS =    301   number of ions     NIONS =     30
   non local maximal  LDIM  =      6   non local SUM 2l+1 LMDIM =     18
   total plane-waves  NPLWV = 350000
   max r-space proj   IRMAX =   9760   max aug-charges    IRDMAX=  34512
   dimension x,y,z NGX =    50 NGY =   50 NGZ =  140
   dimension x,y,z NGXF=   100 NGYF=  100 NGZF=  280
   support grid    NGXF=   100 NGYF=  100 NGZF=  280
   ions per type =              12  18
   NGX,Y,Z   is equivalent  to a cutoff of  16.51, 16.51, 16.92 a.u.
   NGXF,Y,Z  is equivalent  to a cutoff of  33.02, 33.02, 33.83 a.u.

 SYSTEM =  unknown system                          
 POSCAR =  Fe12 O18                                

 Startparameter for this run:
   NWRITE =      2    write-flag & timer
   PREC   = accura    normal or accurate (medium, high low for compatibility)
   ISTART =      0    job   : 0-new  1-cont  2-samecut
   ICHARG =      2    charge: 1-file 2-atom 10-const
   ISPIN  =      2    spin polarized calculation?
   LNONCOLLINEAR =      F non collinear calculations
   LSORBIT =      F    spin-orbit coupling
   INIWAV =      1    electr: 0-lowe 1-rand  2-diag
   LASPH  =      F    aspherical Exc in radial PAW
   METAGGA=      F    non-selfconsistent MetaGGA calc.

 Electronic Relaxation 1
   ENCUT  =  920.0 eV  67.62 Ry    8.22 a.u.  12.45 12.45 34.03*2*pi/ulx,y,z
   ENINI  =  920.0     initial cutoff
   ENAUG  =  605.4 eV  augmentation charge cutoff
   NELM   =    100;   NELMIN=  2; NELMDL= -5     # of ELM steps 
   EDIFF  = 0.1E-06   stopping-criterion for ELM
   LREAL  =      T    real-space projection
   NLSPLINE    = F    spline interpolate recip. space projectors
   LCOMPAT=      F    compatible to vasp.4.4
   GGA_COMPAT  = T    GGA compatible to vasp.4.4-vasp.4.6
   LMAXPAW     = -100 max onsite density
   LMAXMIX     =    2 max onsite mixed and CHGCAR
   VOSKOWN=      0    Vosko Wilk Nusair interpolation
   ROPT   =   -0.00025  -0.00025
 Ionic relaxation
   EDIFFG = 0.1E-05   stopping-criterion for IOM
   NSW    =      0    number of steps for IOM
   NBLOCK =      1;   KBLOCK =      1    inner block; outer block 
   IBRION =     -1    ionic relax: 0-MD 1-quasi-New 2-CG
   NFREE  =      0    steps in history (QN), initial steepest desc. (CG)
   ISIF   =      3    stress and relaxation
   IWAVPR =     10    prediction:  0-non 1-charg 2-wave 3-comb
   ISYM   =      2    0-nonsym 1-usesym 2-fastsym
   LCORR  =      T    Harris-Foulkes like correction to forces

   POTIM  = 0.5000    time-step for ionic-motion
   TEIN   =    0.0    initial temperature
   TEBEG  =    0.0;   TEEND  =   0.0 temperature during run
   SMASS  =  -3.00    Nose mass-parameter (am)
   estimated Nose-frequenzy (Omega)   =  0.10E-29 period in steps =****** mass=  -0.579E-27a.u.
   SCALEE = 1.0000    scale energy and forces
   NPACO  =    256;   APACO  = 16.0  distance and # of slots for P.C.
   PSTRESS=    0.0 pullay stress

  Mass of Ions in am
   POMASS =  55.85 16.00
  Ionic Valenz
   ZVAL   =  14.00  6.00
  Atomic Wigner-Seitz radii
   RWIGS  =  -1.00 -1.00
  virtual crystal weights 
   VCA    =   1.00  1.00
   NELECT =     276.0000    total number of electrons
   NUPDOWN=      -1.0000    fix difference up-down

 DOS related values:
   EMIN   =  10.00;   EMAX   =-10.00  energy-range for DOS
   EFERMI =   0.00
   ISMEAR =    -5;   SIGMA  =   0.05  broadening in eV -4-tet -1-fermi 0-gaus

 Electronic relaxation 2 (details)
   IALGO  =     38    algorithm
   LDIAG  =      T    sub-space diagonalisation (order eigenvalues)
   LSUBROT=      F    optimize rotation matrix (better conditioning)
   TURBO    =      0    0=normal 1=particle mesh
   IRESTART =      0    0=no restart 2=restart with 2 vectors
   NREBOOT  =      0    no. of reboots
   NMIN     =      0    reboot dimension
   EREF     =   0.00    reference energy to select bands
   IMIX   =      4    mixing-type and parameters
     AMIX     =   0.40;   BMIX     =  1.00
     AMIX_MAG =   1.60;   BMIX_MAG =  1.00
     AMIN     =   0.10
     WC   =   100.;   INIMIX=   1;  MIXPRE=   1;  MAXMIX= -45

 Intra band minimization:
   WEIMIN = 0.0000     energy-eigenvalue tresh-hold
   EBREAK =  0.12E-09  absolut break condition
   DEPER  =   0.30     relativ break condition  

   TIME   =   0.40     timestep for ELM

  volume/ion in A,a.u.               =      10.07        67.95
  Fermi-wavevector in a.u.,A,eV,Ry     =   1.588581  3.001983 34.335534  2.523591
  Thomas-Fermi vector in A             =   2.687563
 
 Write flags
   LWAVE        =      F    write WAVECAR
   LDOWNSAMPLE  =      F    k-point downsampling of WAVECAR
   LCHARG       =      F    write CHGCAR
   LVTOT        =      F    write LOCPOT, total local potential
   LVHAR        =      F    write LOCPOT, Hartree potential only
   LELF         =      F    write electronic localiz. function (ELF)
   LORBIT       =     11    0 simple, 1 ext, 2 COOP (PROOUT), +10 PAW based schemes


 Dipole corrections
   LMONO  =      F    monopole corrections only (constant potential shift)
   LDIPOL =      F    correct potential (dipole corrections)
   IDIPOL =      0    1-x, 2-y, 3-z, 4-all directions 
   EPSILON=  1.0000000 bulk dielectric constant

 Exchange correlation treatment:
   GGA     =    --    GGA type
   LEXCH   =     8    internal setting for exchange type
   VOSKOWN=      0    Vosko Wilk Nusair interpolation
   LHFCALC =     F    Hartree Fock is set to
   LHFONE  =     F    Hartree Fock one center treatment
   AEXX    =    0.0000 exact exchange contribution

 Linear response parameters
   LEPSILON=     F    determine dielectric tensor
   LRPA    =     F    only Hartree local field effects (RPA)
   LNABLA  =     F    use nabla operator in PAW spheres
   LVEL    =     F    velocity operator in full k-point grid
   LINTERFAST=   F  fast interpolation
   KINTER  =     0    interpolate to denser k-point grid
   CSHIFT  =0.1000    complex shift for real part using Kramers Kronig
   OMEGAMAX=  -1.0    maximum frequency
   DEG_THRESHOLD= 0.2000000E-02 threshold for treating states as degnerate
   RTIME   =   -0.100 relaxation time in fs
  (WPLASMAI=    0.000 imaginary part of plasma frequency in eV, 0.658/RTIME)
   DFIELD  = 0.0000000 0.0000000 0.0000000 field for delta impulse in time
 
 Orbital magnetization related:
   ORBITALMAG=     F  switch on orbital magnetization
   LCHIMAG   =     F  perturbation theory with respect to B field
   DQ        =  0.001000  dq finite difference perturbation B field
   LLRAUG    =     F  two centre corrections for induced B field



--------------------------------------------------------------------------------------------------------


 Static calculation
 charge density and potential will be updated during run
 spin polarized calculation
 Variant of blocked Davidson
 Davidson routine will perform the subspace rotation
 perform sub-space diagonalisation
    after iterative eigenvector-optimisation
 modified Broyden-mixing scheme, WC =      100.0
 initial mixing is a Kerker type mixing with AMIX =  0.4000 and BMIX =      1.0000
 Hartree-type preconditioning will be used
 using additional bands           66
 real space projection scheme for non local part
 use partial core corrections
 calculate Harris-corrections to forces 
   (improved forces if not selfconsistent)
 use gradient corrections 
 use of overlap-Matrix (Vanderbilt PP)
 Fermi weights with tetrahedron method with Bloechl corrections


--------------------------------------------------------------------------------------------------------


  energy-cutoff  :      920.00
  volume of cell :      302.07
      direct lattice vectors                 reciprocal lattice vectors
     5.035100000  0.000000000  0.000000000     0.198605787  0.114665118  0.000000000
    -2.517550000  4.360524000  0.000000000     0.000000000  0.229330236  0.000000000
     0.000000000  0.000000000 13.758100000     0.000000000  0.000000000  0.072684455

  length of vectors
     5.035100000  5.035099558 13.758100000     0.229330216  0.229330236  0.072684455


 
 k-points in units of 2pi/SCALE and weight: pymatgen with grid density = 2464 / numb
   0.00000000  0.00000000  0.00000000       0.014
   0.03310096  0.01911085  0.00000000       0.083
   0.06620193  0.03822171  0.00000000       0.083
   0.09930289  0.05733256  0.00000000       0.042
   0.03310096  0.05733256  0.00000000       0.083
   0.06620193  0.07644341  0.00000000       0.167
   0.06620193  0.11466512  0.00000000       0.028
   0.00000000  0.00000000  0.03634223       0.014
   0.03310096  0.01911085  0.03634223       0.083
   0.06620193  0.03822171  0.03634223       0.083
   0.09930289  0.05733256  0.03634223       0.042
   0.03310096  0.05733256  0.03634223       0.083
   0.06620193  0.07644341  0.03634223       0.167
   0.06620193  0.11466512  0.03634223       0.028
 
 k-points in reciprocal lattice and weights: pymatgen with grid density = 2464 / numb
   0.00000000  0.00000000  0.00000000       0.014
   0.16666667  0.00000000  0.00000000       0.083
   0.33333333  0.00000000  0.00000000       0.083
   0.50000000  0.00000000  0.00000000       0.042
   0.16666667  0.16666667  0.00000000       0.083
   0.33333333  0.16666667  0.00000000       0.167
   0.33333333  0.33333333  0.00000000       0.028
   0.00000000  0.00000000  0.50000000       0.014
   0.16666667  0.00000000  0.50000000       0.083
   0.33333333  0.00000000  0.50000000       0.083
   0.50000000  0.00000000  0.50000000       0.042
   0.16666667  0.16666667  0.50000000       0.083
   0.33333333  0.16666667  0.50000000       0.167
   0.33333333  0.33333333  0.50000000       0.028
 
 position of ions in fractional coordinates (direct lattice) 
   0.00000000  0.00000000  0.35532000
   0.00000000  0.00000000  0.64468000
   0.33333300  0.66666700  0.02198700
   0.66666700  0.33333300  0.68865300
   0.33333300  0.66666700  0.31134700
   0.66666700  0.33333300  0.97801300
   0.00000000  0.00000000  0.14468000
   0.00000000  0.00000000  0.85532000
   0.33333300  0.66666700  0.81134700
   0.33333300  0.66666700  0.52198700
   0.66666700  0.33333300  0.47801300
   0.66666700  0.33333300  0.18865300
   0.30618000  0.00000000  0.25000000
   0.69382000  0.00000000  0.75000000
   0.63951300  0.66666700  0.91666700
   0.97284700  0.33333300  0.58333300
   0.02715300  0.66666700  0.41666700
   0.36048700  0.33333300  0.08333300
   0.00000000  0.30618000  0.25000000
   0.00000000  0.69382000  0.75000000
   0.33333300  0.97284700  0.91666700
   0.66666700  0.63951300  0.58333300
   0.33333300  0.36048700  0.41666700
   0.66666700  0.02715300  0.08333300
   0.69382000  0.69382000  0.25000000
   0.30618000  0.30618000  0.75000000
   0.02715300  0.36048700  0.91666700
   0.63951300  0.97284700  0.41666700
   0.36048700  0.02715300  0.58333300
   0.97284700  0.63951300  0.08333300
 
 position of ions in cartesian coordinates  (Angst):
   0.00000000  0.00000000  4.88852809
   0.00000000  0.00000000  8.86957191
  -0.00000252  2.90701745  0.30249934
   2.51755252  1.45350655  9.47455684
  -0.00000252  2.90701745  4.28354316
   2.51755252  1.45350655 13.45560066
   0.00000000  0.00000000  1.99052191
   0.00000000  0.00000000 11.76757809
  -0.00000252  2.90701745 11.16259316
  -0.00000252  2.90701745  7.18154934
   2.51755252  1.45350655  6.57655066
   2.51755252  1.45350655  2.59550684
   1.54164692  0.00000000  3.43952500
   3.49345308  0.00000000 10.31857500
   1.54164440  2.90701745 12.61159625
   4.05919944  1.45350655  8.02555375
  -1.54164944  2.90701745  5.73254625
   0.97590560  1.45350655  1.14650375
  -0.77082346  1.33510524  3.43952500
  -1.74672654  3.02541876 10.31857500
  -0.77082598  4.24212269 12.61159625
   1.74672906  2.78861178  8.02555375
   0.77082094  1.57191222  5.73254625
   3.28837598  0.11840131  1.14650375
   1.74672654  3.02541876  3.43952500
   0.77082346  1.33510524 10.31857500
  -0.77082598  1.57191222 12.61159625
   0.77082094  4.24212269  5.73254625
   1.74672906  0.11840131  8.02555375
   3.28837598  2.78861178  1.14650375
 


--------------------------------------------------------------------------------------------------------


 k-point  1 :   0.0000 0.0000 0.0000  plane waves:   19197
 k-point  2 :   0.1667 0.0000 0.0000  plane waves:   19187
 k-point  3 :   0.3333 0.0000 0.0000  plane waves:   19138
 k-point  4 :   0.5000 0.0000 0.0000  plane waves:   19086
 k-point  5 :   0.1667 0.1667 0.0000  plane waves:   19143
 k-point  6 :   0.3333 0.1667 0.0000  plane waves:   19127
 k-point  7 :   0.3333 0.3333 0.0000  plane waves:   19116
 k-point  8 :   0.0000 0.0000 0.5000  plane waves:   19196
 k-point  9 :   0.1667 0.0000 0.5000  plane waves:   19176
 k-point 10 :   0.3333 0.0000 0.5000  plane waves:   19132
 k-point 11 :   0.5000 0.0000 0.5000  plane waves:   19140
 k-point 12 :   0.1667 0.1667 0.5000  plane waves:   19152
 k-point 13 :   0.3333 0.1667 0.5000  plane waves:   19128
 k-point 14 :   0.3333 0.3333 0.5000  plane waves:   19116

 maximum and minimum number of plane-waves per node :      4823     4764

 maximum number of plane-waves:     19197
 maximum index in each direction: 
   IXMAX=   12   IYMAX=   12   IZMAX=   34
   IXMIN=  -12   IYMIN=  -12   IZMIN=  -34


 real space projection operators:
  total allocation   :      20679.00 KBytes
  max/ min on nodes  :       5392.38       4938.88


 parallel 3D FFT for wavefunctions:
    minimum data exchange during FFTs selected (reduces bandwidth)
 parallel 3D FFT for charge:
    minimum data exchange during FFTs selected (reduces bandwidth)


 total amount of memory used by VASP MPI-rank0   142391. kBytes
=======================================================================

   base      :      30000. kBytes
   nonlr-proj:      11574. kBytes
   fftplans  :       7247. kBytes
   grid      :      18564. kBytes
   one-center:        248. kBytes
   wavefun   :      74758. kBytes
 
     INWAV:  cpu time    0.0000: real time    0.0001
 Broyden mixing: mesh for mixing (old mesh)
   NGX = 25   NGY = 25   NGZ = 69
  (NGX  =100   NGY  =100   NGZ  =280)
  gives a total of  43125 points

 initial charge density was supplied:
 charge density of overlapping atoms calculated
 number of electron     276.0000000 magnetization      70.8000000
 keeping initial charge density in first step


--------------------------------------------------------------------------------------------------------


 Maximum index for non-local projection operator         2599
 Maximum index for augmentation-charges         2258 (set IRDMAX)


--------------------------------------------------------------------------------------------------------


 First call to EWALD:  gamma=   0.264
 Maximum number of real-space cells 4x 4x 2
 Maximum number of reciprocal cells 2x 2x 5

    FEWALD:  cpu time    0.0019: real time    0.0019


--------------------------------------- Iteration      1(   1)  ---------------------------------------


    POTLOK:  cpu time    0.1846: real time    0.1858
    SETDIJ:  cpu time    0.0193: real time    0.0193
     EDDAV:  cpu time   25.3324: real time   25.4077
 BZINTS: Fermi energy: 33.859160;276.000000 electrons
         Band energy:2170.641248;  BLOECHL correction: -0.089088
       DOS:  cpu time    0.0470: real time    0.0471
    --------------------------------------------
      LOOP:  cpu time   25.5832: real time   25.6599

 eigenvalue-minimisations  : 11472
 total energy-change (2. order) : 0.5187313E+04  (-0.1915910E+05)
 number of electron     276.0000000 magnetization      70.8000000
 augmentation part      276.0000000 magnetization      70.8000000

 Free energy of the ion-electron system (eV)
  ---------------------------------------------------
  alpha Z        PSCENC =      1362.55286497
  Ewald energy   TEWEN  =    -25513.06237826
  -Hartree energ DENC   =    -10371.14386019
  -exchange      EXHF   =         0.00000000
  -V(xc)+E(xc)   XCENC  =      1375.27777967
  PAW double counting   =     30224.59406688   -31333.39571732
  entropy T*S    EENTRO =         0.00000000
  eigenvalues    EBANDS =      2170.64124790
  atomic energy  EATOM  =     37271.84859138
  Solvation  Ediel_sol  =         0.00000000
  ---------------------------------------------------
  free energy    TOTEN  =      5187.31259503 eV

  energy without entropy =     5187.31259503  energy(sigma->0) =     5187.31259503


--------------------------------------------------------------------------------------------------------




--------------------------------------- Iteration      1(   2)  ---------------------------------------


     EDDAV:  cpu time   24.9717: real time   25.0411
 BZINTS: Fermi energy: 12.379394;276.000000 electrons
         Band energy:***********;  BLOECHL correction: -0.027835
       DOS:  cpu time    0.0454: real time    0.0455
    --------------------------------------------
      LOOP:  cpu time   25.0171: real time   25.0866

 eigenvalue-minimisations  : 11424
 total energy-change (2. order) :-0.4505568E+04  (-0.4133106E+04)
 number of electron     276.0000000 magnetization      70.8000000
 augmentation part      276.0000000 magnetization      70.8000000

 Free energy of the ion-electron system (eV)
  ---------------------------------------------------
  alpha Z        PSCENC =      1362.55286497
  Ewald energy   TEWEN  =    -25513.06237826
  -Hartree energ DENC   =    -10371.14386019
  -exchange      EXHF   =         0.00000000
  -V(xc)+E(xc)   XCENC  =      1375.27777967
  PAW double counting   =     30224.59406688   -31333.39571732
  entropy T*S    EENTRO =         0.00000000
  eigenvalues    EBANDS =     -2334.92643232
  atomic energy  EATOM  =     37271.84859138
  Solvation  Ediel_sol  =         0.00000000
  ---------------------------------------------------
  free energy    TOTEN  =       681.74491481 eV

  energy without entropy =      681.74491481  energy(sigma->0) =      681.74491481


--------------------------------------------------------------------------------------------------------




--------------------------------------- Iteration      1(   3)  ---------------------------------------


     EDDAV:  cpu time   25.2643: real time   25.3291
 BZINTS: Fermi energy:  8.765289;276.000000 electrons
         Band energy:***********;  BLOECHL correction:  0.000000
       DOS:  cpu time    0.0061: real time    0.0061
    --------------------------------------------
      LOOP:  cpu time   25.2704: real time   25.3352

 eigenvalue-minimisations  : 11796
 total energy-change (2. order) :-0.9015500E+03  (-0.7740026E+03)
 number of electron     276.0000000 magnetization      70.8000000
 augmentation part      276.0000000 magnetization      70.8000000

 Free energy of the ion-electron system (eV)
  ---------------------------------------------------
  alpha Z        PSCENC =      1362.55286497
  Ewald energy   TEWEN  =    -25513.06237826
  -Hartree energ DENC   =    -10371.14386019
  -exchange      EXHF   =         0.00000000
  -V(xc)+E(xc)   XCENC  =      1375.27777967
  PAW double counting   =     30224.59406688   -31333.39571732
  entropy T*S    EENTRO =         0.00000000
  eigenvalues    EBANDS =     -3236.47638989
  atomic energy  EATOM  =     37271.84859138
  Solvation  Ediel_sol  =         0.00000000
  ---------------------------------------------------
  free energy    TOTEN  =      -219.80504277 eV

  energy without entropy =     -219.80504277  energy(sigma->0) =     -219.80504277


--------------------------------------------------------------------------------------------------------




--------------------------------------- Iteration      1(   4)  ---------------------------------------


     EDDAV:  cpu time   27.7376: real time   27.8088
 BZINTS: Fermi energy:  8.205587;276.000000 electrons
         Band energy:***********;  BLOECHL correction:  0.000000
       DOS:  cpu time    0.0060: real time    0.0060
    --------------------------------------------
      LOOP:  cpu time   27.7436: real time   27.8148

 eigenvalue-minimisations  : 12900
 total energy-change (2. order) :-0.7381145E+02  (-0.7286359E+02)
 number of electron     276.0000000 magnetization      70.8000000
 augmentation part      276.0000000 magnetization      70.8000000

 Free energy of the ion-electron system (eV)
  ---------------------------------------------------
  alpha Z        PSCENC =      1362.55286497
  Ewald energy   TEWEN  =    -25513.06237826
  -Hartree energ DENC   =    -10371.14386019
  -exchange      EXHF   =         0.00000000
  -V(xc)+E(xc)   XCENC  =      1375.27777967
  PAW double counting   =     30224.59406688   -31333.39571732
  entropy T*S    EENTRO =         0.00000000
  eigenvalues    EBANDS =     -3310.28783745
  atomic energy  EATOM  =     37271.84859138
  Solvation  Ediel_sol  =         0.00000000
  ---------------------------------------------------
  free energy    TOTEN  =      -293.61649033 eV

  energy without entropy =     -293.61649033  energy(sigma->0) =     -293.61649033


--------------------------------------------------------------------------------------------------------




--------------------------------------- Iteration      1(   5)  ---------------------------------------


     EDDAV:  cpu time   27.6317: real time   27.7028
 BZINTS: Fermi energy:  8.201092;276.000000 electrons
         Band energy:***********;  BLOECHL correction:  0.000000
       DOS:  cpu time    0.0060: real time    0.0060
    CHARGE:  cpu time    1.0610: real time    1.0637
    MIXING:  cpu time    0.0034: real time    0.0035
    --------------------------------------------
      LOOP:  cpu time   28.7022: real time   28.7760

 eigenvalue-minimisations  : 12768
 total energy-change (2. order) :-0.8998399E+00  (-0.8967591E+00)
 number of electron     275.9999998 magnetization      67.8179405
 augmentation part      108.0136869 magnetization      47.0437186

 Broyden mixing:
  rms(total) = 0.80930E+01    rms(broyden)= 0.80930E+01
  rms(prec ) = 0.88390E+01
  weight for this iteration     100.00

 Free energy of the ion-electron system (eV)
  ---------------------------------------------------
  alpha Z        PSCENC =      1362.55286497
  Ewald energy   TEWEN  =    -25513.06237826
  -Hartree energ DENC   =    -10371.14386019
  -exchange      EXHF   =         0.00000000
  -V(xc)+E(xc)   XCENC  =      1375.27777967
  PAW double counting   =     30224.59406688   -31333.39571732
  entropy T*S    EENTRO =         0.00000000
  eigenvalues    EBANDS =     -3311.18767732
  atomic energy  EATOM  =     37271.84859138
  Solvation  Ediel_sol  =         0.00000000
  ---------------------------------------------------
  free energy    TOTEN  =      -294.51633020 eV

  energy without entropy =     -294.51633020  energy(sigma->0) =     -294.51633020


--------------------------------------------------------------------------------------------------------




--------------------------------------- Iteration      1(   6)  ---------------------------------------


    POTLOK:  cpu time    0.1761: real time    0.1779
    SETDIJ:  cpu time    0.0177: real time    0.0178
     EDDAV:  cpu time   31.6271: real time   31.7078
 BZINTS: Fermi energy:  5.534811;276.000000 electrons
         Band energy:***********;  BLOECHL correction: -0.054482
       DOS:  cpu time    0.0496: real time    0.0497
    CHARGE:  cpu time    1.0950: real time    1.0978
    MIXING:  cpu time    0.0036: real time    0.0037
    --------------------------------------------
      LOOP:  cpu time   32.9692: real time   33.0548

 eigenvalue-minimisations  : 14832
 total energy-change (2. order) : 0.5924024E+02  (-0.2529489E+02)
 number of electron     275.9999997 magnetization      62.9804093
 augmentation part      120.7020069 magnetization      54.4100439

 Broyden mixing:
  rms(total) = 0.91189E+01    rms(broyden)= 0.91189E+01
  rms(prec ) = 0.97674E+01
  weight for this iteration     100.00

 eigenvalues of (default mixing * dielectric matrix)
  average eigenvalue GAMMA=   0.3187
  0.3187

 Free energy of the ion-electron system (eV)
  ---------------------------------------------------
  alpha Z        PSCENC =      1362.55286497
  Ewald energy   TEWEN  =    -25513.06237826
  -Hartree energ DENC   =     -9965.67149863
  -exchange      EXHF   =         0.00000000
  -V(xc)+E(xc)   XCENC  =      1376.63548582
  PAW double counting   =     31435.76793480   -32502.66484417
  entropy T*S    EENTRO =         0.00000000
  eigenvalues    EBANDS =     -3700.68224937
  atomic energy  EATOM  =     37271.84859138
  Solvation  Ediel_sol  =         0.00000000
  ---------------------------------------------------
  free energy    TOTEN  =      -235.27609346 eV

  energy without entropy =     -235.27609346  energy(sigma->0) =     -235.27609346


--------------------------------------------------------------------------------------------------------




--------------------------------------- Iteration      1(   7)  ---------------------------------------


    POTLOK:  cpu time    0.1751: real time    0.1776
    SETDIJ:  cpu time    0.0178: real time    0.0178
     EDDAV:  cpu time   25.6152: real time   25.6800
 BZINTS: Fermi energy:  7.078692;276.000000 electrons
         Band energy:***********;  BLOECHL correction: -0.036479
       DOS:  cpu time    0.0472: real time    0.0473
    CHARGE:  cpu time    1.0791: real time    1.0818
    MIXING:  cpu time    0.0035: real time    0.0035
    --------------------------------------------
      LOOP:  cpu time   26.9379: real time   27.0081

 eigenvalue-minimisations  : 12204
 total energy-change (2. order) : 0.2319111E+02  (-0.1140775E+02)
 number of electron     275.9999997 magnetization      58.7854578
 augmentation part      109.3437801 magnetization      40.3300162

 Broyden mixing:
  rms(total) = 0.43688E+01    rms(broyden)= 0.43688E+01
  rms(prec ) = 0.45287E+01
  weight for this iteration     100.00

 eigenvalues of (default mixing * dielectric matrix)
  average eigenvalue GAMMA=   0.6787
  1.0270  0.3304

 Free energy of the ion-electron system (eV)
  ---------------------------------------------------
  alpha Z        PSCENC =      1362.55286497
  Ewald energy   TEWEN  =    -25513.06237826
  -Hartree energ DENC   =    -10207.45289556
  -exchange      EXHF   =         0.00000000
  -V(xc)+E(xc)   XCENC  =      1372.38124041
  PAW double counting   =     32867.93222761   -33996.36817206
  entropy T*S    EENTRO =         0.00000000
  eigenvalues    EBANDS =     -3369.91645784
  atomic energy  EATOM  =     37271.84859138
  Solvation  Ediel_sol  =         0.00000000
  ---------------------------------------------------
  free energy    TOTEN  =      -212.08497934 eV

  energy without entropy =     -212.08497934  energy(sigma->0) =     -212.08497934


--------------------------------------------------------------------------------------------------------




--------------------------------------- Iteration      1(   8)  ---------------------------------------


    POTLOK:  cpu time    0.1746: real time    0.1751
    SETDIJ:  cpu time    0.0177: real time    0.0177
     EDDAV:  cpu time   26.5206: real time   26.5878
 BZINTS: Fermi energy:  6.444897;276.000000 electrons
         Band energy:***********;  BLOECHL correction: -0.034151
       DOS:  cpu time    0.0489: real time    0.0490
    CHARGE:  cpu time    1.0825: real time    1.0852
    MIXING:  cpu time    0.0035: real time    0.0035
    --------------------------------------------
      LOOP:  cpu time   27.8479: real time   27.9184

 eigenvalue-minimisations  : 12120
 total energy-change (2. order) :-0.6238078E+01  (-0.2146817E+01)
 number of electron     275.9999997 magnetization      51.9552522
 augmentation part      111.2665353 magnetization      35.0352765

 Broyden mixing:
  rms(total) = 0.26538E+01    rms(broyden)= 0.26538E+01
  rms(prec ) = 0.27140E+01
  weight for this iteration     100.00

 eigenvalues of (default mixing * dielectric matrix)
  average eigenvalue GAMMA=   1.0708
  2.2497  0.5790  0.3837

 Free energy of the ion-electron system (eV)
  ---------------------------------------------------
  alpha Z        PSCENC =      1362.55286497
  Ewald energy   TEWEN  =    -25513.06237826
  -Hartree energ DENC   =    -10072.18955327
  -exchange      EXHF   =         0.00000000
  -V(xc)+E(xc)   XCENC  =      1366.36229212
  PAW double counting   =     34224.68166614   -35364.83905123
  entropy T*S    EENTRO =         0.00000000
  eigenvalues    EBANDS =     -3493.67748967
  atomic energy  EATOM  =     37271.84859138
  Solvation  Ediel_sol  =         0.00000000
  ---------------------------------------------------
  free energy    TOTEN  =      -218.32305782 eV

  energy without entropy =     -218.32305782  energy(sigma->0) =     -218.32305782


--------------------------------------------------------------------------------------------------------




--------------------------------------- Iteration      1(   9)  ---------------------------------------


    POTLOK:  cpu time    0.1736: real time    0.1742
    SETDIJ:  cpu time    0.0175: real time    0.0176
     EDDAV:  cpu time   27.0490: real time   27.1180
 BZINTS: Fermi energy:  5.882078;276.000000 electrons
         Band energy:***********;  BLOECHL correction: -0.038247
       DOS:  cpu time    0.0515: real time    0.0516
    CHARGE:  cpu time    1.0957: real time    1.0985
    MIXING:  cpu time    0.0040: real time    0.0041
    --------------------------------------------
      LOOP:  cpu time   28.3915: real time   28.4640

 eigenvalue-minimisations  : 12612
 total energy-change (2. order) :-0.4171609E+01  (-0.8193426E+00)
 number of electron     275.9999997 magnetization      50.9194520
 augmentation part      114.1210354 magnetization      37.7813545

 Broyden mixing:
  rms(total) = 0.27009E+01    rms(broyden)= 0.27009E+01
  rms(prec ) = 0.28297E+01
  weight for this iteration     100.00

 eigenvalues of (default mixing * dielectric matrix)
  average eigenvalue GAMMA=   1.1017
  2.8509  0.8033  0.3763  0.3763

 Free energy of the ion-electron system (eV)
  ---------------------------------------------------
  alpha Z        PSCENC =      1362.55286497
  Ewald energy   TEWEN  =    -25513.06237826
  -Hartree energ DENC   =     -9933.76444995
  -exchange      EXHF   =         0.00000000
  -V(xc)+E(xc)   XCENC  =      1362.36850261
  PAW double counting   =     36506.11886887   -37675.07599023
  entropy T*S    EENTRO =         0.00000000
  eigenvalues    EBANDS =     -3603.48067615
  atomic energy  EATOM  =     37271.84859138
  Solvation  Ediel_sol  =         0.00000000
  ---------------------------------------------------
  free energy    TOTEN  =      -222.49466676 eV

  energy without entropy =     -222.49466676  energy(sigma->0) =     -222.49466676


--------------------------------------------------------------------------------------------------------




--------------------------------------- Iteration      1(  10)  ---------------------------------------


    POTLOK:  cpu time    0.1828: real time    0.1837
    SETDIJ:  cpu time    0.0182: real time    0.0182
     EDDAV:  cpu time   27.0150: real time   27.0836
 BZINTS: Fermi energy:  5.958769;276.000000 electrons
         Band energy:***********;  BLOECHL correction: -0.037099
       DOS:  cpu time    0.0468: real time    0.0469
    CHARGE:  cpu time    1.0684: real time    1.0711
    MIXING:  cpu time    0.0037: real time    0.0037
    --------------------------------------------
      LOOP:  cpu time   28.3349: real time   28.4073

 eigenvalue-minimisations  : 12564
 total energy-change (2. order) : 0.3254187E+00  (-0.2450399E+00)
 number of electron     275.9999997 magnetization      50.6161986
 augmentation part      113.4156811 magnetization      37.3031969

 Broyden mixing:
  rms(total) = 0.18578E+01    rms(broyden)= 0.18578E+01
  rms(prec ) = 0.19682E+01
  weight for this iteration     100.00

 eigenvalues of (default mixing * dielectric matrix)
  average eigenvalue GAMMA=   1.0181
  2.6184  0.3741  0.7705  0.6638  0.6638

 Free energy of the ion-electron system (eV)
  ---------------------------------------------------
  alpha Z        PSCENC =      1362.55286497
  Ewald energy   TEWEN  =    -25513.06237826
  -Hartree energ DENC   =     -9949.16027772
  -exchange      EXHF   =         0.00000000
  -V(xc)+E(xc)   XCENC  =      1360.91776575
  PAW double counting   =     36546.42683259   -37718.78645005
  entropy T*S    EENTRO =         0.00000000
  eigenvalues    EBANDS =     -3582.90619669
  atomic energy  EATOM  =     37271.84859138
  Solvation  Ediel_sol  =         0.00000000
  ---------------------------------------------------
  free energy    TOTEN  =      -222.16924803 eV

  energy without entropy =     -222.16924803  energy(sigma->0) =     -222.16924803


--------------------------------------------------------------------------------------------------------




--------------------------------------- Iteration      1(  11)  ---------------------------------------


    POTLOK:  cpu time    0.1708: real time    0.1728
    SETDIJ:  cpu time    0.0175: real time    0.0176
     EDDAV:  cpu time   29.4904: real time   29.5648
 BZINTS: Fermi energy:  6.019898;276.000000 electrons
         Band energy:***********;  BLOECHL correction: -0.033979
       DOS:  cpu time    0.0512: real time    0.0513
    CHARGE:  cpu time    1.0814: real time    1.0843
    MIXING:  cpu time    0.0040: real time    0.0041
    --------------------------------------------
      LOOP:  cpu time   30.8153: real time   30.8948

 eigenvalue-minimisations  : 14232
 total energy-change (2. order) : 0.5625617E+00  (-0.2271281E-01)
 number of electron     275.9999997 magnetization      49.3086600
 augmentation part      112.9971770 magnetization      35.6113831

 Broyden mixing:
  rms(total) = 0.12171E+01    rms(broyden)= 0.12171E+01
  rms(prec ) = 0.12903E+01
  weight for this iteration     100.00

 eigenvalues of (default mixing * dielectric matrix)
  average eigenvalue GAMMA=   1.0452
  2.5835  0.9705  0.9705  0.3793  0.7999  0.5672

 Free energy of the ion-electron system (eV)
  ---------------------------------------------------
  alpha Z        PSCENC =      1362.55286497
  Ewald energy   TEWEN  =    -25513.06237826
  -Hartree energ DENC   =     -9960.26713749
  -exchange      EXHF   =         0.00000000
  -V(xc)+E(xc)   XCENC  =      1360.24692229
  PAW double counting   =     36377.39186190   -37547.75179641
  entropy T*S    EENTRO =         0.00000000
  eigenvalues    EBANDS =     -3572.56561470
  atomic energy  EATOM  =     37271.84859138
  Solvation  Ediel_sol  =         0.00000000
  ---------------------------------------------------
  free energy    TOTEN  =      -221.60668632 eV

  energy without entropy =     -221.60668632  energy(sigma->0) =     -221.60668632


--------------------------------------------------------------------------------------------------------




--------------------------------------- Iteration      1(  12)  ---------------------------------------


    POTLOK:  cpu time    0.1742: real time    0.1763
    SETDIJ:  cpu time    0.0176: real time    0.0176
     EDDAV:  cpu time   32.1098: real time   32.1910
 BZINTS: Fermi energy:  6.079499;276.000000 electrons
         Band energy:***********;  BLOECHL correction: -0.033296
       DOS:  cpu time    0.0495: real time    0.0496
    CHARGE:  cpu time    1.0831: real time    1.0858
    MIXING:  cpu time    0.0043: real time    0.0043
    --------------------------------------------
      LOOP:  cpu time   33.4385: real time   33.5247

 eigenvalue-minimisations  : 15240
 total energy-change (2. order) : 0.2023872E+00  (-0.1963737E-01)
 number of electron     275.9999997 magnetization      46.8924533
 augmentation part      112.6771060 magnetization      33.0922454

 Broyden mixing:
  rms(total) = 0.84173E+00    rms(broyden)= 0.84173E+00
  rms(prec ) = 0.88257E+00
  weight for this iteration     100.00

 eigenvalues of (default mixing * dielectric matrix)
  average eigenvalue GAMMA=   1.0964
  2.1629  1.5555  1.5555  0.3778  0.7526  0.6351  0.6351

 Free energy of the ion-electron system (eV)
  ---------------------------------------------------
  alpha Z        PSCENC =      1362.55286497
  Ewald energy   TEWEN  =    -25513.06237826
  -Hartree energ DENC   =     -9973.22710237
  -exchange      EXHF   =         0.00000000
  -V(xc)+E(xc)   XCENC  =      1359.60017621
  PAW double counting   =     36262.45490900   -37431.75587972
  entropy T*S    EENTRO =         0.00000000
  eigenvalues    EBANDS =     -3559.81548031
  atomic energy  EATOM  =     37271.84859138
  Solvation  Ediel_sol  =         0.00000000
  ---------------------------------------------------
  free energy    TOTEN  =      -221.40429911 eV

  energy without entropy =     -221.40429911  energy(sigma->0) =     -221.40429911


--------------------------------------------------------------------------------------------------------




--------------------------------------- Iteration      1(  13)  ---------------------------------------


    POTLOK:  cpu time    0.1750: real time    0.1768
    SETDIJ:  cpu time    0.0177: real time    0.0177
     EDDAV:  cpu time   29.1749: real time   29.2487
 BZINTS: Fermi energy:  6.138408;276.000000 electrons
         Band energy:***********;  BLOECHL correction: -0.034417
       DOS:  cpu time    0.0499: real time    0.0502
    CHARGE:  cpu time    1.0844: real time    1.0873
    MIXING:  cpu time    0.0044: real time    0.0044
    --------------------------------------------
      LOOP:  cpu time   30.5062: real time   30.5851

 eigenvalue-minimisations  : 13896
 total energy-change (2. order) : 0.6969022E-03  (-0.1110751E-01)
 number of electron     275.9999997 magnetization      43.9943146
 augmentation part      112.4092668 magnetization      30.4398538

 Broyden mixing:
  rms(total) = 0.46908E+00    rms(broyden)= 0.46908E+00
  rms(prec ) = 0.49242E+00
  weight for this iteration     100.00

 eigenvalues of (default mixing * dielectric matrix)
  average eigenvalue GAMMA=   1.3927
  3.4282  3.4282  0.3782  0.9289  0.9289  0.7247  0.7247  0.5998

 Free energy of the ion-electron system (eV)
  ---------------------------------------------------
  alpha Z        PSCENC =      1362.55286497
  Ewald energy   TEWEN  =    -25513.06237826
  -Hartree energ DENC   =     -9991.09109454
  -exchange      EXHF   =         0.00000000
  -V(xc)+E(xc)   XCENC  =      1358.78769968
  PAW double counting   =     36035.85444401   -37202.13809293
  entropy T*S    EENTRO =         0.00000000
  eigenvalues    EBANDS =     -3544.15563652
  atomic energy  EATOM  =     37271.84859138
  Solvation  Ediel_sol  =         0.00000000
  ---------------------------------------------------
  free energy    TOTEN  =      -221.40360221 eV

  energy without entropy =     -221.40360221  energy(sigma->0) =     -221.40360221


--------------------------------------------------------------------------------------------------------




--------------------------------------- Iteration      1(  14)  ---------------------------------------


    POTLOK:  cpu time    0.1766: real time    0.1778
    SETDIJ:  cpu time    0.0173: real time    0.0173
     EDDAV:  cpu time   31.2413: real time   31.3202
 BZINTS: Fermi energy:  6.170975;276.000000 electrons
         Band energy:***********;  BLOECHL correction: -0.032768
       DOS:  cpu time    0.0472: real time    0.0473
    CHARGE:  cpu time    1.0841: real time    1.0868
    MIXING:  cpu time    0.0046: real time    0.0046
    --------------------------------------------
      LOOP:  cpu time   32.5711: real time   32.6541

 eigenvalue-minimisations  : 14976
 total energy-change (2. order) :-0.4454962E-01  (-0.1518777E-01)
 number of electron     275.9999997 magnetization      43.0746925
 augmentation part      112.2247540 magnetization      29.9057114

 Broyden mixing:
  rms(total) = 0.18227E+00    rms(broyden)= 0.18227E+00
  rms(prec ) = 0.18997E+00
  weight for this iteration     100.00

 eigenvalues of (default mixing * dielectric matrix)
  average eigenvalue GAMMA=   1.5052
  5.3587  2.7810  1.2140  0.3781  0.8403  0.8403  0.8854  0.6245  0.6245

 Free energy of the ion-electron system (eV)
  ---------------------------------------------------
  alpha Z        PSCENC =      1362.55286497
  Ewald energy   TEWEN  =    -25513.06237826
  -Hartree energ DENC   =    -10003.82973810
  -exchange      EXHF   =         0.00000000
  -V(xc)+E(xc)   XCENC  =      1357.69691954
  PAW double counting   =     35834.71637915   -36997.95588419
  entropy T*S    EENTRO =         0.00000000
  eigenvalues    EBANDS =     -3533.41490632
  atomic energy  EATOM  =     37271.84859138
  Solvation  Ediel_sol  =         0.00000000
  ---------------------------------------------------
  free energy    TOTEN  =      -221.44815183 eV

  energy without entropy =     -221.44815183  energy(sigma->0) =     -221.44815183


--------------------------------------------------------------------------------------------------------




--------------------------------------- Iteration      1(  15)  ---------------------------------------


    POTLOK:  cpu time    0.1749: real time    0.1770
    SETDIJ:  cpu time    0.0178: real time    0.0178
     EDDAV:  cpu time   26.8484: real time   26.9162
 BZINTS: Fermi energy:  6.157172;276.000000 electrons
         Band energy:***********;  BLOECHL correction: -0.032951
       DOS:  cpu time    0.0492: real time    0.0494
    CHARGE:  cpu time    1.1487: real time    1.1516
    MIXING:  cpu time    0.0049: real time    0.0049
    --------------------------------------------
      LOOP:  cpu time   28.2438: real time   28.3169

 eigenvalue-minimisations  : 12744
 total energy-change (2. order) :-0.1796837E-01  (-0.6334627E-02)
 number of electron     275.9999997 magnetization      42.6371479
 augmentation part      112.2749038 magnetization      29.6420983

 Broyden mixing:
  rms(total) = 0.14359E+00    rms(broyden)= 0.14359E+00
  rms(prec ) = 0.15203E+00
  weight for this iteration     100.00

 eigenvalues of (default mixing * dielectric matrix)
  average eigenvalue GAMMA=   1.5472
  6.1314  2.8522  1.3610  1.0683  0.3781  0.8489  0.8489  0.6937  0.6937  0.5957

 Free energy of the ion-electron system (eV)
  ---------------------------------------------------
  alpha Z        PSCENC =      1362.55286497
  Ewald energy   TEWEN  =    -25513.06237826
  -Hartree energ DENC   =    -10002.56316602
  -exchange      EXHF   =         0.00000000
  -V(xc)+E(xc)   XCENC  =      1357.20136195
  PAW double counting   =     35820.91613609   -36983.78093869
  entropy T*S    EENTRO =         0.00000000
  eigenvalues    EBANDS =     -3534.57859161
  atomic energy  EATOM  =     37271.84859138
  Solvation  Ediel_sol  =         0.00000000
  ---------------------------------------------------
  free energy    TOTEN  =      -221.46612019 eV

  energy without entropy =     -221.46612019  energy(sigma->0) =     -221.46612019


--------------------------------------------------------------------------------------------------------




--------------------------------------- Iteration      1(  16)  ---------------------------------------


    POTLOK:  cpu time    0.1744: real time    0.1749
    SETDIJ:  cpu time    0.0177: real time    0.0177
     EDDAV:  cpu time   29.9901: real time   30.0660
 BZINTS: Fermi energy:  6.178249;276.000000 electrons
         Band energy:***********;  BLOECHL correction: -0.032839
       DOS:  cpu time    0.0460: real time    0.0461
    CHARGE:  cpu time    1.0759: real time    1.0786
    MIXING:  cpu time    0.0048: real time    0.0049
    --------------------------------------------
      LOOP:  cpu time   31.3089: real time   31.3882

 eigenvalue-minimisations  : 14376
 total energy-change (2. order) : 0.5004208E-02  (-0.8900298E-03)
 number of electron     275.9999997 magnetization      42.4958316
 augmentation part      112.1852807 magnetization      29.5020663

 Broyden mixing:
  rms(total) = 0.38187E-01    rms(broyden)= 0.38186E-01
  rms(prec ) = 0.39962E-01
  weight for this iteration     100.00

 eigenvalues of (default mixing * dielectric matrix)
  average eigenvalue GAMMA=   1.5375
  6.3169  2.7851  1.3157  1.3157  1.1199  0.3781  0.8085  0.8085  0.7376  0.7164
  0.6094

 Free energy of the ion-electron system (eV)
  ---------------------------------------------------
  alpha Z        PSCENC =      1362.55286497
  Ewald energy   TEWEN  =    -25513.06237826
  -Hartree energ DENC   =    -10007.18618293
  -exchange      EXHF   =         0.00000000
  -V(xc)+E(xc)   XCENC  =      1357.08962118
  PAW double counting   =     35778.72926271   -36941.48895308
  entropy T*S    EENTRO =         0.00000000
  eigenvalues    EBANDS =     -3529.94394195
  atomic energy  EATOM  =     37271.84859138
  Solvation  Ediel_sol  =         0.00000000
  ---------------------------------------------------
  free energy    TOTEN  =      -221.46111599 eV

  energy without entropy =     -221.46111599  energy(sigma->0) =     -221.46111599


--------------------------------------------------------------------------------------------------------




--------------------------------------- Iteration      1(  17)  ---------------------------------------


    POTLOK:  cpu time    0.1739: real time    0.1762
    SETDIJ:  cpu time    0.0176: real time    0.0177
     EDDAV:  cpu time   27.1415: real time   27.2102
 BZINTS: Fermi energy:  6.179556;276.000000 electrons
         Band energy:***********;  BLOECHL correction: -0.032784
       DOS:  cpu time    0.0501: real time    0.0502
    CHARGE:  cpu time    1.0765: real time    1.0794
    MIXING:  cpu time    0.0054: real time    0.0054
    --------------------------------------------
      LOOP:  cpu time   28.4651: real time   28.5391

 eigenvalue-minimisations  : 12492
 total energy-change (2. order) :-0.5990889E-03  (-0.4786013E-03)
 number of electron     275.9999997 magnetization      42.3965297
 augmentation part      112.1797287 magnetization      29.4158680

 Broyden mixing:
  rms(total) = 0.19481E-01    rms(broyden)= 0.19481E-01
  rms(prec ) = 0.20087E-01
  weight for this iteration     100.00

 eigenvalues of (default mixing * dielectric matrix)
  average eigenvalue GAMMA=   1.5617
  6.5232  2.7672  2.4487  1.0715  1.0715  0.3781  0.8906  0.8906  0.7210  0.7210
  0.6045  0.6525

 Free energy of the ion-electron system (eV)
  ---------------------------------------------------
  alpha Z        PSCENC =      1362.55286497
  Ewald energy   TEWEN  =    -25513.06237826
  -Hartree energ DENC   =    -10006.92803803
  -exchange      EXHF   =         0.00000000
  -V(xc)+E(xc)   XCENC  =      1357.02153463
  PAW double counting   =     35798.44229480   -36961.76382555
  entropy T*S    EENTRO =         0.00000000
  eigenvalues    EBANDS =     -3529.57275902
  atomic energy  EATOM  =     37271.84859138
  Solvation  Ediel_sol  =         0.00000000
  ---------------------------------------------------
  free energy    TOTEN  =      -221.46171508 eV

  energy without entropy =     -221.46171508  energy(sigma->0) =     -221.46171508


--------------------------------------------------------------------------------------------------------




--------------------------------------- Iteration      1(  18)  ---------------------------------------


    POTLOK:  cpu time    0.1758: real time    0.1773
    SETDIJ:  cpu time    0.0178: real time    0.0179
     EDDAV:  cpu time   30.0858: real time   30.1619
 BZINTS: Fermi energy:  6.180029;276.000000 electrons
         Band energy:***********;  BLOECHL correction: -0.032906
       DOS:  cpu time    0.0488: real time    0.0489
    CHARGE:  cpu time    1.0569: real time    1.0595
    MIXING:  cpu time    0.0052: real time    0.0052
    --------------------------------------------
      LOOP:  cpu time   31.3903: real time   31.4708

 eigenvalue-minimisations  : 14028
 total energy-change (2. order) :-0.2345411E-03  (-0.2562905E-04)
 number of electron     275.9999997 magnetization      42.3445901
 augmentation part      112.1747601 magnetization      29.3818365

 Broyden mixing:
  rms(total) = 0.86054E-02    rms(broyden)= 0.86054E-02
  rms(prec ) = 0.89539E-02
  weight for this iteration     100.00

 eigenvalues of (default mixing * dielectric matrix)
  average eigenvalue GAMMA=   1.5339
  6.6579  2.8441  2.4464  1.1482  1.1482  0.9589  0.9589  0.3781  0.7431  0.7431
  0.6865  0.6140  0.6140

 Free energy of the ion-electron system (eV)
  ---------------------------------------------------
  alpha Z        PSCENC =      1362.55286497
  Ewald energy   TEWEN  =    -25513.06237826
  -Hartree energ DENC   =    -10007.22204479
  -exchange      EXHF   =         0.00000000
  -V(xc)+E(xc)   XCENC  =      1356.97196480
  PAW double counting   =     35796.36312917   -36959.73055473
  entropy T*S    EENTRO =         0.00000000
  eigenvalues    EBANDS =     -3529.18352216
  atomic energy  EATOM  =     37271.84859138
  Solvation  Ediel_sol  =         0.00000000
  ---------------------------------------------------
  free energy    TOTEN  =      -221.46194962 eV

  energy without entropy =     -221.46194962  energy(sigma->0) =     -221.46194962


--------------------------------------------------------------------------------------------------------




--------------------------------------- Iteration      1(  19)  ---------------------------------------


    POTLOK:  cpu time    0.1697: real time    0.1729
    SETDIJ:  cpu time    0.0174: real time    0.0174
     EDDAV:  cpu time   28.2921: real time   28.3637
 BZINTS: Fermi energy:  6.181011;276.000000 electrons
         Band energy:***********;  BLOECHL correction: -0.032965
       DOS:  cpu time    0.0497: real time    0.0498
    CHARGE:  cpu time    1.0794: real time    1.0821
    MIXING:  cpu time    0.0055: real time    0.0055
    --------------------------------------------
      LOOP:  cpu time   29.6138: real time   29.6915

 eigenvalue-minimisations  : 13704
 total energy-change (2. order) :-0.5670194E-04  (-0.1028605E-04)
 number of electron     275.9999997 magnetization      42.3367519
 augmentation part      112.1705190 magnetization      29.3824422

 Broyden mixing:
  rms(total) = 0.16940E-02    rms(broyden)= 0.16939E-02
  rms(prec ) = 0.18035E-02
  weight for this iteration     100.00

 eigenvalues of (default mixing * dielectric matrix)
  average eigenvalue GAMMA=   1.5151
  6.7189  2.8548  2.4292  1.2968  1.2968  0.9867  0.9867  0.3781  0.7754  0.7754
  0.7411  0.7411  0.6153  0.6153

 Free energy of the ion-electron system (eV)
  ---------------------------------------------------
  alpha Z        PSCENC =      1362.55286497
  Ewald energy   TEWEN  =    -25513.06237826
  -Hartree energ DENC   =    -10007.57204787
  -exchange      EXHF   =         0.00000000
  -V(xc)+E(xc)   XCENC  =      1356.95160290
  PAW double counting   =     35791.84082919   -36955.15326563
  entropy T*S    EENTRO =         0.00000000
  eigenvalues    EBANDS =     -3528.86820300
  atomic energy  EATOM  =     37271.84859138
  Solvation  Ediel_sol  =         0.00000000
  ---------------------------------------------------
  free energy    TOTEN  =      -221.46200632 eV

  energy without entropy =     -221.46200632  energy(sigma->0) =     -221.46200632


--------------------------------------------------------------------------------------------------------




--------------------------------------- Iteration      1(  20)  ---------------------------------------


    POTLOK:  cpu time    0.1753: real time    0.1758
    SETDIJ:  cpu time    0.0177: real time    0.0177
     EDDAV:  cpu time   27.0839: real time   27.1523
 BZINTS: Fermi energy:  6.181363;276.000000 electrons
         Band energy:***********;  BLOECHL correction: -0.032972
       DOS:  cpu time    0.0492: real time    0.0493
    CHARGE:  cpu time    1.0766: real time    1.0793
    MIXING:  cpu time    0.0056: real time    0.0057
    --------------------------------------------
      LOOP:  cpu time   28.4083: real time   28.4802

 eigenvalue-minimisations  : 12444
 total energy-change (2. order) :-0.8581017E-05  (-0.2200856E-05)
 number of electron     275.9999997 magnetization      42.3331366
 augmentation part      112.1699117 magnetization      29.3803069

 Broyden mixing:
  rms(total) = 0.89052E-03    rms(broyden)= 0.89050E-03
  rms(prec ) = 0.91165E-03
  weight for this iteration     100.00

 eigenvalues of (default mixing * dielectric matrix)
  average eigenvalue GAMMA=   1.5144
  6.7521  2.9688  2.4060  1.8848  1.0871  1.0871  1.0066  1.0066  0.3781  0.7396
  0.7396  0.6052  0.7038  0.6756  0.6756

 Free energy of the ion-electron system (eV)
  ---------------------------------------------------
  alpha Z        PSCENC =      1362.55286497
  Ewald energy   TEWEN  =    -25513.06237826
  -Hartree energ DENC   =    -10007.65285508
  -exchange      EXHF   =         0.00000000
  -V(xc)+E(xc)   XCENC  =      1356.94876502
  PAW double counting   =     35791.76954794   -36955.08918611
  entropy T*S    EENTRO =         0.00000000
  eigenvalues    EBANDS =     -3528.77736477
  atomic energy  EATOM  =     37271.84859138
  Solvation  Ediel_sol  =         0.00000000
  ---------------------------------------------------
  free energy    TOTEN  =      -221.46201490 eV

  energy without entropy =     -221.46201490  energy(sigma->0) =     -221.46201490


--------------------------------------------------------------------------------------------------------




--------------------------------------- Iteration      1(  21)  ---------------------------------------


    POTLOK:  cpu time    0.1745: real time    0.1750
    SETDIJ:  cpu time    0.0176: real time    0.0176
     EDDAV:  cpu time   27.3883: real time   27.4576
 BZINTS: Fermi energy:  6.181740;276.000000 electrons
         Band energy:***********;  BLOECHL correction: -0.032970
       DOS:  cpu time    0.0475: real time    0.0476
    CHARGE:  cpu time    1.0825: real time    1.0853
    MIXING:  cpu time    0.0060: real time    0.0060
    --------------------------------------------
      LOOP:  cpu time   28.7164: real time   28.7891

 eigenvalue-minimisations  : 12600
 total energy-change (2. order) : 0.2145069E-05  (-0.2370565E-06)
 number of electron     275.9999997 magnetization      42.3351486
 augmentation part      112.1686566 magnetization      29.3820664

 Broyden mixing:
  rms(total) = 0.11280E-02    rms(broyden)= 0.11280E-02
  rms(prec ) = 0.11955E-02
  weight for this iteration     100.00

 eigenvalues of (default mixing * dielectric matrix)
  average eigenvalue GAMMA=   1.5053
  6.7523  3.0075  2.4520  2.1954  1.1934  1.1934  0.9932  0.9932  0.3781  0.7789
  0.7789  0.7332  0.7332  0.6170  0.6170  0.6683

 Free energy of the ion-electron system (eV)
  ---------------------------------------------------
  alpha Z        PSCENC =      1362.55286497
  Ewald energy   TEWEN  =    -25513.06237826
  -Hartree energ DENC   =    -10007.72843555
  -exchange      EXHF   =         0.00000000
  -V(xc)+E(xc)   XCENC  =      1356.94959514
  PAW double counting   =     35791.43029177   -36954.76003966
  entropy T*S    EENTRO =         0.00000000
  eigenvalues    EBANDS =     -3528.69250255
  atomic energy  EATOM  =     37271.84859138
  Solvation  Ediel_sol  =         0.00000000
  ---------------------------------------------------
  free energy    TOTEN  =      -221.46201276 eV

  energy without entropy =     -221.46201276  energy(sigma->0) =     -221.46201276


--------------------------------------------------------------------------------------------------------




--------------------------------------- Iteration      1(  22)  ---------------------------------------


    POTLOK:  cpu time    0.1757: real time    0.1762
    SETDIJ:  cpu time    0.0177: real time    0.0177
     EDDAV:  cpu time   24.0545: real time   24.1152
 BZINTS: Fermi energy:  6.181585;276.000000 electrons
         Band energy:***********;  BLOECHL correction: -0.032971
       DOS:  cpu time    0.0490: real time    0.0491
    CHARGE:  cpu time    1.0747: real time    1.0774
    MIXING:  cpu time    0.0062: real time    0.0062
    --------------------------------------------
      LOOP:  cpu time   25.3777: real time   25.4418

 eigenvalue-minimisations  : 10740
 total energy-change (2. order) :-0.1061882E-05  (-0.1001661E-06)
 number of electron     275.9999997 magnetization      42.3372569
 augmentation part      112.1693060 magnetization      29.3842374

 Broyden mixing:
  rms(total) = 0.50215E-03    rms(broyden)= 0.50215E-03
  rms(prec ) = 0.53184E-03
  weight for this iteration     100.00

 eigenvalues of (default mixing * dielectric matrix)
  average eigenvalue GAMMA=   1.4881
  6.7362  2.9794  2.6477  2.1404  1.3872  1.0163  1.0163  0.3781  1.0318  1.0318
  0.7847  0.7847  0.7495  0.7495  0.6087  0.6277  0.6277

 Free energy of the ion-electron system (eV)
  ---------------------------------------------------
  alpha Z        PSCENC =      1362.55286497
  Ewald energy   TEWEN  =    -25513.06237826
  -Hartree energ DENC   =    -10007.69326536
  -exchange      EXHF   =         0.00000000
  -V(xc)+E(xc)   XCENC  =      1356.94981936
  PAW double counting   =     35791.70445857   -36955.03683266
  entropy T*S    EENTRO =         0.00000000
  eigenvalues    EBANDS =     -3528.72527183
  atomic energy  EATOM  =     37271.84859138
  Solvation  Ediel_sol  =         0.00000000
  ---------------------------------------------------
  free energy    TOTEN  =      -221.46201382 eV

  energy without entropy =     -221.46201382  energy(sigma->0) =     -221.46201382


--------------------------------------------------------------------------------------------------------




--------------------------------------- Iteration      1(  23)  ---------------------------------------


    POTLOK:  cpu time    0.1749: real time    0.1756
    SETDIJ:  cpu time    0.0176: real time    0.0176
     EDDAV:  cpu time   22.6684: real time   22.7256
 BZINTS: Fermi energy:  6.181490;276.000000 electrons
         Band energy:***********;  BLOECHL correction: -0.032971
       DOS:  cpu time    0.0488: real time    0.0489
    CHARGE:  cpu time    1.0692: real time    1.0719
    MIXING:  cpu time    0.0061: real time    0.0061
    --------------------------------------------
      LOOP:  cpu time   23.9849: real time   24.0457

 eigenvalue-minimisations  :  9720
 total energy-change (2. order) :-0.1059743E-06  (-0.2921587E-07)
 number of electron     275.9999997 magnetization      42.3375774
 augmentation part      112.1697080 magnetization      29.3844436

 Broyden mixing:
  rms(total) = 0.66180E-04    rms(broyden)= 0.66178E-04
  rms(prec ) = 0.68390E-04
  weight for this iteration     100.00

 eigenvalues of (default mixing * dielectric matrix)
  average eigenvalue GAMMA=   1.4819
  6.7341  3.0138  2.6972  2.2643  1.3830  1.3830  0.3781  1.0175  1.0175  0.9630
  0.9630  0.7484  0.7484  0.7378  0.7378  0.6119  0.6470  0.6293

 Free energy of the ion-electron system (eV)
  ---------------------------------------------------
  alpha Z        PSCENC =      1362.55286497
  Ewald energy   TEWEN  =    -25513.06237826
  -Hartree energ DENC   =    -10007.66980666
  -exchange      EXHF   =         0.00000000
  -V(xc)+E(xc)   XCENC  =      1356.95041631
  PAW double counting   =     35791.89719477   -36955.23184773
  entropy T*S    EENTRO =         0.00000000
  eigenvalues    EBANDS =     -3528.74704871
  atomic energy  EATOM  =     37271.84859138
  Solvation  Ediel_sol  =         0.00000000
  ---------------------------------------------------
  free energy    TOTEN  =      -221.46201392 eV

  energy without entropy =     -221.46201392  energy(sigma->0) =     -221.46201392


--------------------------------------------------------------------------------------------------------




--------------------------------------- Iteration      1(  24)  ---------------------------------------


    POTLOK:  cpu time    0.1696: real time    0.1703
    SETDIJ:  cpu time    0.0174: real time    0.0174
     EDDAV:  cpu time   16.4332: real time   16.4747
 BZINTS: Fermi energy:  6.181497;276.000000 electrons
         Band energy:***********;  BLOECHL correction: -0.032971
       DOS:  cpu time    0.0487: real time    0.0488
    CHARGE:  cpu time    1.0875: real time    1.0903
    MIXING:  cpu time    0.0066: real time    0.0066
    --------------------------------------------
      LOOP:  cpu time   17.7630: real time   17.8081

 eigenvalue-minimisations  :  6420
 total energy-change (2. order) : 0.4165413E-06  (-0.8844457E-08)
 number of electron     275.9999997 magnetization      42.3376065
 augmentation part      112.1696501 magnetization      29.3844040

 Broyden mixing:
  rms(total) = 0.46824E-04    rms(broyden)= 0.46824E-04
  rms(prec ) = 0.48618E-04
  weight for this iteration     100.00

 eigenvalues of (default mixing * dielectric matrix)
[...]
  0.000  -0.002   0.000  -0.000  -0.001  -0.000  -0.000  -0.000  -0.006   0.000   0.000   0.000   0.000   0.009  -0.000  -0.000
 total augmentation occupancy for first ion, spin component:           2
 -0.003   0.000  -0.000  -0.010  -0.000   0.000   0.002   0.001  -0.000   0.000   0.000  -0.003  -0.002   0.000  -0.000  -0.000
  0.000  -0.003   0.000   0.000  -0.010   0.000   0.000  -0.000  -0.001   0.000   0.000  -0.000   0.000   0.002  -0.000  -0.000
  0.000   0.000  -0.003  -0.000  -0.000  -0.010   0.000  -0.000   0.000   0.001  -0.002  -0.000   0.000  -0.000  -0.002   0.003
 -0.010   0.000  -0.000   0.021   0.000   0.000  -0.085  -0.050  -0.000   0.002   0.013   0.049   0.032   0.000  -0.001  -0.008
  0.000  -0.010  -0.000  -0.000   0.017   0.000   0.000  -0.000   0.076   0.000  -0.000   0.000  -0.000  -0.043  -0.000   0.000
  0.000   0.000  -0.010  -0.000  -0.000   0.021   0.013  -0.002  -0.000  -0.050   0.085  -0.008   0.001   0.000   0.032  -0.049
  0.002  -0.000   0.000  -0.085   0.000   0.013   4.295   0.577  -0.000  -0.179   0.000  -2.428  -0.471  -0.000   0.166   0.002
  0.001   0.000  -0.000  -0.050   0.000  -0.002   0.577   5.022   0.000   0.000  -0.179  -0.469  -3.026  -0.000   0.003   0.166
 -0.000  -0.001   0.000  -0.000   0.076  -0.000  -0.000   0.000   4.388   0.000  -0.000   0.000  -0.000  -2.383  -0.000   0.000
  0.000   0.000   0.001   0.002   0.000  -0.050  -0.179  -0.000   0.000   5.022  -0.577   0.166  -0.003  -0.000  -3.026   0.469
  0.000   0.000  -0.002   0.013  -0.000   0.085  -0.000  -0.179  -0.000  -0.577   4.295  -0.002   0.166   0.000   0.471  -2.428
 -0.003   0.000  -0.000   0.049  -0.000  -0.008  -2.428  -0.469   0.000   0.166  -0.002   1.294   0.332   0.000  -0.129   0.000
 -0.002   0.000   0.000   0.032  -0.000   0.001  -0.471  -3.026  -0.000  -0.003   0.166   0.332   1.751   0.000  -0.000  -0.129
  0.000   0.002  -0.000   0.000  -0.043   0.000  -0.000  -0.000  -2.383  -0.000   0.000   0.000   0.000   1.231   0.000  -0.000
 -0.000  -0.000  -0.002  -0.001   0.000   0.032   0.166   0.003  -0.000  -3.026   0.471  -0.129  -0.000   0.000   1.751  -0.332
 -0.000  -0.000   0.003  -0.008   0.000  -0.049   0.002   0.166   0.000   0.469  -2.428  -0.000  -0.129  -0.000  -0.332   1.294
 -0.000   0.000  -0.000   0.000   0.001  -0.000   0.000   0.000   0.044  -0.000  -0.000   0.000  -0.000  -0.022   0.000   0.000
  0.000   0.000   0.000  -0.000   0.001  -0.000  -0.000   0.000   0.007  -0.000  -0.000   0.000  -0.000  -0.005   0.000   0.000


------------------------ aborting loop because EDIFF is reached ----------------------------------------


 


 total charge     
 
# of ion       s       p       d       tot
------------------------------------------
    1        0.284   6.340   5.852  12.476
    2        0.284   6.340   5.854  12.478
    3        0.284   6.340   5.862  12.486
    4        0.284   6.340   5.852  12.475
    5        0.283   6.340   5.854  12.478
    6        0.284   6.340   5.865  12.488
    7        0.284   6.340   5.851  12.474
    8        0.284   6.340   5.853  12.477
    9        0.283   6.340   5.854  12.477
   10        0.283   6.340   5.868  12.492
   11        0.283   6.340   5.865  12.489
   12        0.283   6.340   5.857  12.480
   13        1.567   3.416   0.000   4.983
   14        1.567   3.415   0.000   4.983
   15        1.567   3.416   0.000   4.983
   16        1.567   3.417   0.000   4.984
   17        1.567   3.417   0.000   4.984
   18        1.567   3.416   0.000   4.983
   19        1.566   3.403   0.000   4.970
   20        1.566   3.403   0.000   4.969
   21        1.566   3.404   0.000   4.970
   22        1.566   3.404   0.000   4.970
   23        1.566   3.404   0.000   4.971
   24        1.566   3.404   0.000   4.971
   25        1.568   3.417   0.000   4.985
   26        1.568   3.416   0.000   4.984
   27        1.568   3.418   0.000   4.986
   28        1.568   3.419   0.000   4.987
   29        1.568   3.419   0.000   4.987
   30        1.568   3.418   0.000   4.986
--------------------------------------------------
tot         31.612 137.505  70.288 239.405
 


 magnetization (x)
 
# of ion       s       p       d       tot
------------------------------------------
    1        0.024   0.036   3.141   3.201
    2        0.024   0.036   3.138   3.198
    3        0.025   0.036   3.135   3.195
    4        0.025   0.036   3.140   3.201
    5        0.025   0.036   3.140   3.201
    6        0.025   0.036   3.132   3.193
    7        0.024   0.036   3.125   3.185
    8        0.024   0.036   3.122   3.183
    9        0.025   0.036   3.123   3.183
   10        0.025   0.036   3.117   3.177
   11        0.025   0.036   3.119   3.180
   12        0.025   0.036   3.123   3.183
   13        0.020   0.139   0.000   0.160
   14        0.020   0.139   0.000   0.159
   15        0.020   0.139   0.000   0.159
   16        0.020   0.140   0.000   0.160
   17        0.020   0.140   0.000   0.161
   18        0.020   0.139   0.000   0.160
   19        0.021   0.143   0.000   0.165
   20        0.021   0.143   0.000   0.164
   21        0.021   0.144   0.000   0.165
   22        0.021   0.144   0.000   0.165
   23        0.021   0.144   0.000   0.165
   24        0.021   0.144   0.000   0.166
   25        0.020   0.135   0.000   0.156
   26        0.020   0.135   0.000   0.155
   27        0.020   0.136   0.000   0.157
   28        0.020   0.137   0.000   0.158
   29        0.020   0.137   0.000   0.157
   30        0.020   0.137   0.000   0.157
--------------------------------------------------
tot          0.668   2.948  37.554  41.170
 
    CHARGE:  cpu time    1.0885: real time    1.0913
    FORLOC:  cpu time    0.0176: real time    0.0177
    FORNL :  cpu time    7.6620: real time    7.6817
    STRESS:  cpu time   23.0529: real time   23.1111
    FORCOR:  cpu time    0.1870: real time    0.1875
    FORHAR:  cpu time    0.0329: real time    0.0329
    MIXING:  cpu time    0.0069: real time    0.0070
    OFIELD:  cpu time    0.0001: real time    0.0001

  FORCE on cell =-STRESS in cart. coord.  units (eV):
  Direction    XX          YY          ZZ          XY          YZ          ZX
  --------------------------------------------------------------------------------------
  Alpha Z  1362.55286  1362.55286  1362.55286
  Ewald   -8201.75422 -8201.75360 -9109.63806     0.00000     0.00002    -0.00000
  Hartree  3503.88999  3503.88984  2999.88655    -0.00000     0.00001    -0.00000
  E(xc)   -1615.80648 -1615.80652 -1617.37041    -0.00002     0.00000    -0.00000
  Local    -165.06942  -165.06940  1230.76608    -0.00026    -0.00003     0.00000
  n-local  -743.09352  -741.98374  -744.56349    -4.16494     0.49361     0.11398
  augment  1844.63013  1844.63007  1846.55277     0.00022     0.00000    -0.00000
  Kinetic  4007.27246  4009.36767  4025.13002     7.65491    -1.99065    -5.04368
  Fock        0.00000     0.00000     0.00000     0.00000     0.00000     0.00000
  -------------------------------------------------------------------------------------
  Total      -5.77550    -5.77550    -6.68368     0.00000    -0.00000    -0.00000
  in kB     -30.63339   -30.63338   -35.45038     0.00000    -0.00000    -0.00000
  external pressure =      -32.24 kB  Pullay stress =        0.00 kB


 VOLUME and BASIS-vectors are now :
 -----------------------------------------------------------------------------
  energy-cutoff  :      920.00
  volume of cell :      302.07
      direct lattice vectors                 reciprocal lattice vectors
     5.035100000  0.000000000  0.000000000     0.198605787  0.114665118  0.000000000
    -2.517550000  4.360524000  0.000000000     0.000000000  0.229330236  0.000000000
     0.000000000  0.000000000 13.758100000     0.000000000  0.000000000  0.072684455

  length of vectors
     5.035100000  5.035099558 13.758100000     0.229330216  0.229330236  0.072684455


 FORCES acting on ions
    electron-ion (+dipol)            ewald-force                    non-local-force                 convergence-correction
 -----------------------------------------------------------------------------------------------
   0.156E-03 0.366E-03 -.126E+03   -.101E-02 0.523E-03 0.128E+03   -.520E-17 0.434E-18 -.289E+01   -.772E-08 0.484E-08 -.126E-05
   -.402E-03 0.580E-03 0.126E+03   0.101E-02 -.523E-03 -.128E+03   0.000E+00 0.867E-18 0.289E+01   0.106E-07 -.568E-08 0.126E-05
   -.135E-03 0.533E-03 -.126E+03   0.314E-02 -.187E-02 0.128E+03   0.260E-17 0.304E-17 -.289E+01   0.183E-06 -.106E-06 0.663E-05
   -.327E-03 0.645E-03 -.126E+03   -.220E-02 0.121E-02 0.128E+03   0.434E-17 0.173E-17 -.289E+01   -.171E-06 0.986E-07 0.932E-05
   0.815E-04 0.301E-03 0.126E+03   0.220E-02 -.121E-02 -.128E+03   -.694E-17 0.000E+00 0.289E+01   0.174E-06 -.995E-07 -.932E-05
   -.111E-03 0.412E-03 0.126E+03   -.314E-02 0.187E-02 -.128E+03   0.607E-17 0.173E-17 0.289E+01   -.180E-06 0.105E-06 -.663E-05
   0.566E-03 -.105E-02 0.126E+03   0.964E-03 -.523E-03 -.128E+03   -.651E-17 0.130E-17 0.289E+01   0.120E-07 -.756E-08 0.126E-05
   0.104E-02 -.127E-02 -.126E+03   -.964E-03 0.523E-03 0.128E+03   -.173E-17 0.217E-17 -.289E+01   -.660E-08 0.250E-08 -.126E-05
   0.105E-02 -.133E-02 0.126E+03   0.215E-02 -.121E-02 -.128E+03   -.434E-18 -.390E-17 0.289E+01   0.175E-06 -.102E-06 -.932E-05
   0.750E-03 -.110E-02 -.126E+03   0.319E-02 -.187E-02 0.128E+03   0.304E-17 -.130E-17 -.289E+01   0.185E-06 -.107E-06 0.663E-05
   0.857E-03 -.122E-02 0.126E+03   -.319E-02 0.187E-02 -.128E+03   0.520E-17 -.347E-17 0.289E+01   -.179E-06 0.102E-06 -.663E-05
   0.558E-03 -.988E-03 -.126E+03   -.215E-02 0.121E-02 0.128E+03   0.434E-17 -.173E-17 -.289E+01   -.170E-06 0.972E-07 0.932E-05
   -.424E+02 -.134E-02 0.216E-03   0.418E+02 0.106E-02 -.470E-03   0.675E+00 -.587E-17 0.152E-17   -.484E-05 0.422E-07 -.409E-08
   0.424E+02 -.869E-04 -.337E-03   -.418E+02 -.106E-02 0.470E-03   -.675E+00 0.108E-17 0.130E-17   0.484E-05 -.456E-07 0.182E-08
   -.424E+02 -.319E-02 -.583E-02   0.418E+02 0.570E-03 -.997E-03   0.675E+00 -.705E-18 -.119E-17   -.484E-05 -.388E-07 -.239E-05
   -.424E+02 0.239E-02 0.543E-02   0.418E+02 -.163E-02 0.147E-02   0.675E+00 -.184E-17 -.347E-17   -.479E-05 -.832E-08 0.239E-05
   0.424E+02 -.382E-02 -.555E-02   -.418E+02 0.163E-02 -.147E-02   -.675E+00 0.407E-18 0.217E-18   0.479E-05 0.495E-08 -.239E-05
   0.424E+02 0.176E-02 0.571E-02   -.418E+02 -.570E-03 0.997E-03   -.675E+00 -.596E-18 -.347E-17   0.483E-05 0.354E-07 0.238E-05
   0.212E+02 -.367E+02 -.308E-03   -.209E+02 0.362E+02 0.438E-03   -.338E+00 0.585E+00 0.000E+00   0.246E-05 -.417E-05 0.183E-08
   -.212E+02 0.367E+02 0.195E-03   0.209E+02 -.362E+02 -.438E-03   0.338E+00 -.585E+00 -.867E-18   -.246E-05 0.417E-05 -.399E-08
   0.212E+02 -.367E+02 -.552E-02   -.209E+02 0.362E+02 -.150E-02   -.338E+00 0.585E+00 0.000E+00   0.239E-05 -.415E-05 -.239E-05
   0.212E+02 -.367E+02 0.574E-02   -.209E+02 0.362E+02 0.964E-03   -.338E+00 0.585E+00 0.694E-17   0.239E-05 -.420E-05 0.238E-05
   -.212E+02 0.367E+02 -.585E-02   0.209E+02 -.362E+02 -.964E-03   0.338E+00 -.585E+00 0.104E-16   -.238E-05 0.421E-05 -.239E-05
   -.212E+02 0.367E+02 0.541E-02   0.209E+02 -.362E+02 0.150E-02   0.338E+00 -.585E+00 0.867E-18   -.239E-05 0.415E-05 0.239E-05
   0.212E+02 0.367E+02 0.937E-04   -.209E+02 -.362E+02 0.322E-04   -.338E+00 -.585E+00 -.173E-17   0.238E-05 0.412E-05 0.221E-08
   -.212E+02 -.367E+02 0.144E-03   0.209E+02 0.362E+02 -.322E-04   0.338E+00 0.585E+00 0.173E-17   -.238E-05 -.413E-05 0.212E-08
   0.212E+02 0.367E+02 -.407E-02   -.209E+02 -.362E+02 -.303E-02   -.338E+00 -.585E+00 -.564E-17   0.248E-05 0.417E-05 -.239E-05
   -.212E+02 -.367E+02 -.402E-02   0.209E+02 0.362E+02 -.310E-02   0.338E+00 0.585E+00 0.130E-17   -.237E-05 -.423E-05 -.239E-05
   0.212E+02 0.367E+02 0.426E-02   -.209E+02 -.362E+02 0.310E-02   -.338E+00 -.585E+00 -.737E-17   0.237E-05 0.423E-05 0.239E-05
   -.212E+02 -.367E+02 0.431E-02   0.209E+02 0.362E+02 0.303E-02   0.338E+00 0.585E+00 -.217E-17   -.248E-05 -.417E-05 0.239E-05
 -----------------------------------------------------------------------------------------------
   0.150E-01 -.165E-01 -.111E-04   -.995E-13 -.995E-13 -.192E-12   0.000E+00 -.555E-15 -.446E-15   0.406E-07 -.329E-07 -.415E-09
 
 
 POSITION                                       TOTAL-FORCE (eV/Angst)
 -----------------------------------------------------------------------------------
      0.00000      0.00000      4.88853         0.000000      0.000000     -0.927493
      0.00000      0.00000      8.86957         0.000000      0.000000      0.927493
     -0.00000      2.90702      0.30250         0.000000      0.000000     -0.927493
      2.51755      1.45351      9.47456         0.000000      0.000000     -0.927493
     -0.00000      2.90702      4.28354         0.000000      0.000000      0.927493
      2.51755      1.45351     13.45560         0.000000      0.000000      0.927493
      0.00000      0.00000      1.99052         0.000000      0.000000      0.927493
      0.00000      0.00000     11.76758         0.000000      0.000000     -0.927493
     -0.00000      2.90702     11.16259         0.000000      0.000000      0.927493
     -0.00000      2.90702      7.18155         0.000000      0.000000     -0.927493
      2.51755      1.45351      6.57655         0.000000      0.000000      0.927493
      2.51755      1.45351      2.59551         0.000000      0.000000     -0.927493
      1.54165      0.00000      3.43953         0.083288      0.000000      0.000000
      3.49345      0.00000     10.31858        -0.083288      0.000000      0.000000
      1.54164      2.90702     12.61160         0.083288      0.000000      0.000000
      4.05920      1.45351      8.02555         0.083288      0.000000      0.000000
     -1.54165      2.90702      5.73255        -0.083288      0.000000      0.000000
      0.97591      1.45351      1.14650        -0.083288      0.000000      0.000000
     -0.77082      1.33511      3.43953        -0.041644      0.072130      0.000000
     -1.74673      3.02542     10.31858         0.041644     -0.072130      0.000000
     -0.77083      4.24212     12.61160        -0.041644      0.072130      0.000000
      1.74673      2.78861      8.02555        -0.041644      0.072130      0.000000
      0.77082      1.57191      5.73255         0.041644     -0.072130      0.000000
      3.28838      0.11840      1.14650         0.041644     -0.072130      0.000000
      1.74673      3.02542      3.43953        -0.041644     -0.072130      0.000000
      0.77082      1.33511     10.31858         0.041644      0.072130      0.000000
     -0.77083      1.57191     12.61160        -0.041644     -0.072130      0.000000
      0.77082      4.24212      5.73255         0.041644      0.072130      0.000000
      1.74673      0.11840      8.02555        -0.041644     -0.072130      0.000000
      3.28838      2.78861      1.14650         0.041644      0.072130      0.000000
 -----------------------------------------------------------------------------------
    total drift:                                0.015003     -0.016540     -0.000011


--------------------------------------------------------------------------------------------------------



  FREE ENERGIE OF THE ION-ELECTRON SYSTEM (eV)
  ---------------------------------------------------
  free  energy   TOTEN  =      -221.46201342 eV

  energy  without entropy=     -221.46201342  energy(sigma->0) =     -221.46201342
 


--------------------------------------------------------------------------------------------------------


    POTLOK:  cpu time    0.1946: real time    0.1956


--------------------------------------------------------------------------------------------------------


     LOOP+:  cpu time  727.1352: real time  729.0179
    4ORBIT:  cpu time    0.0000: real time    0.0000
 


 total charge     
 
# of ion       s       p       d       tot
------------------------------------------
    1        0.284   6.340   5.852  12.476
    2        0.284   6.340   5.854  12.478
    3        0.284   6.340   5.862  12.486
    4        0.284   6.340   5.852  12.475
    5        0.283   6.340   5.854  12.478
    6        0.284   6.340   5.865  12.488
    7        0.284   6.340   5.851  12.474
    8        0.284   6.340   5.853  12.477
    9        0.283   6.340   5.854  12.477
   10        0.283   6.340   5.868  12.492
   11        0.283   6.340   5.865  12.489
   12        0.283   6.340   5.857  12.480
   13        1.567   3.416   0.000   4.983
   14        1.567   3.415   0.000   4.983
   15        1.567   3.416   0.000   4.983
   16        1.567   3.417   0.000   4.984
   17        1.567   3.417   0.000   4.984
   18        1.567   3.416   0.000   4.983
   19        1.566   3.403   0.000   4.970
   20        1.566   3.403   0.000   4.969
   21        1.566   3.404   0.000   4.970
   22        1.566   3.404   0.000   4.970
   23        1.566   3.404   0.000   4.971
   24        1.566   3.404   0.000   4.971
   25        1.568   3.417   0.000   4.985
   26        1.568   3.416   0.000   4.984
   27        1.568   3.418   0.000   4.986
   28        1.568   3.419   0.000   4.987
   29        1.568   3.419   0.000   4.987
   30        1.568   3.418   0.000   4.986
--------------------------------------------------
tot         31.612 137.505  70.288 239.405
 


 magnetization (x)
 
# of ion       s       p       d       tot
------------------------------------------
    1        0.024   0.036   3.141   3.201
    2        0.024   0.036   3.138   3.198
    3        0.025   0.036   3.135   3.195
    4        0.025   0.036   3.140   3.201
    5        0.025   0.036   3.140   3.201
    6        0.025   0.036   3.132   3.193
    7        0.024   0.036   3.125   3.185
    8        0.024   0.036   3.122   3.183
    9        0.025   0.036   3.123   3.183
   10        0.025   0.036   3.117   3.177
   11        0.025   0.036   3.119   3.180
   12        0.025   0.036   3.123   3.183
   13        0.020   0.139   0.000   0.160
   14        0.020   0.139   0.000   0.159
   15        0.020   0.139   0.000   0.159
   16        0.020   0.140   0.000   0.160
   17        0.020   0.140   0.000   0.161
   18        0.020   0.139   0.000   0.160
   19        0.021   0.143   0.000   0.165
   20        0.021   0.143   0.000   0.164
   21        0.021   0.144   0.000   0.165
   22        0.021   0.144   0.000   0.165
   23        0.021   0.144   0.000   0.165
   24        0.021   0.144   0.000   0.166
   25        0.020   0.135   0.000   0.156
   26        0.020   0.135   0.000   0.155
   27        0.020   0.136   0.000   0.157
   28        0.020   0.137   0.000   0.158
   29        0.020   0.137   0.000   0.157
   30        0.020   0.137   0.000   0.157
--------------------------------------------------
tot          0.668   2.948  37.554  41.170
 
 BZINTS: Fermi energy:  6.181488;276.000000 electrons
         Band energy:***********;  BLOECHL correction: -0.032970

 total amount of memory used by VASP MPI-rank0   142391. kBytes
=======================================================================

   base      :      30000. kBytes
   nonlr-proj:      11574. kBytes
   fftplans  :       7247. kBytes
   grid      :      18564. kBytes
   one-center:        248. kBytes
   wavefun   :      74758. kBytes
 
  
  
 General timing and accounting informations for this job:
 ========================================================
  
                  Total CPU time used (sec):      738.692
                            User time (sec):      736.954
                          System time (sec):        1.738
                         Elapsed time (sec):      740.615
  
                   Maximum memory used (kb):      185860.
                   Average memory used (kb):           0.
  
                          Minor page faults:        84061
                          Major page faults:            0
                 Voluntary context switches:          319
