=========================================
SLURM_JOB_ID = 51706446
SLURM_JOB_NODELIST = lnode13
SLURM_GPUS = 
SLURM_CPUS_ON_NODE = 24
SLURM_JOB_PARTITION = lenovo
SLURM_TASK_PID = 2600275
CUDA_VISIBLE_DEVICES = 
==========================================
 running on   24 total cores
 distrk:  each k-point on   24 cores,    1 groups
 distr:  one band on    4 cores,    6 groups
 using from now: INCAR     
 vasp.5.4.4.18Apr17-6-g9f103f2a35 (build Apr 28 2018 00:24:27) complex          
  
 POSCAR found type information on POSCAR  Fe O 
 POSCAR found :  2 types and      30 ions
 scaLAPACK will be used
 LDA part: xc-table for Pade appr. of Perdew
 POSCAR, INCAR and KPOINTS ok, starting setup
 FFT: planning ...
 WAVECAR not read
 entering main loop
       N       E                     dE             d eps       ncg     rms          rms(c)
DAV:   1     0.490638903901E+04    0.49064E+04   -0.17412E+05 11472   0.242E+03
DAV:   2     0.603413815250E+03   -0.43030E+04   -0.39348E+04 11424   0.659E+02
DAV:   3    -0.231408252575E+03   -0.83482E+03   -0.72535E+03 11880   0.272E+02
DAV:   4    -0.293770581992E+03   -0.62362E+02   -0.61601E+02 12876   0.722E+01
DAV:   5    -0.294501789198E+03   -0.73121E+00   -0.72881E+00 12816   0.875E+00    0.809E+01
DAV:   6    -0.235295590871E+03    0.59206E+02   -0.25291E+02 14796   0.810E+01    0.912E+01
DAV:   7    -0.212032918948E+03    0.23263E+02   -0.11411E+02 12252   0.636E+01    0.437E+01
DAV:   8    -0.218312382393E+03   -0.62795E+01   -0.21401E+01 12120   0.172E+01    0.265E+01
DAV:   9    -0.222499864477E+03   -0.41875E+01   -0.82121E+00 12600   0.170E+01    0.271E+01
DAV:  10    -0.222166216386E+03    0.33365E+00   -0.24552E+00 12540   0.689E+00    0.186E+01
DAV:  11    -0.221601915492E+03    0.56430E+00   -0.22774E-01 14328   0.282E+00    0.122E+01
DAV:  12    -0.221399942698E+03    0.20197E+00   -0.19579E-01 15240   0.239E+00    0.844E+00
DAV:  13    -0.221398322786E+03    0.16199E-02   -0.11175E-01 13944   0.224E+00    0.469E+00
DAV:  14    -0.221442852116E+03   -0.44529E-01   -0.15349E-01 15012   0.200E+00    0.182E+00
DAV:  15    -0.221460850903E+03   -0.17999E-01   -0.63207E-02 12648   0.676E-01    0.144E+00
DAV:  16    -0.221455789011E+03    0.50619E-02   -0.90545E-03 14364   0.706E-01    0.379E-01
DAV:  17    -0.221456418521E+03   -0.62951E-03   -0.47949E-03 12444   0.181E-01    0.193E-01
DAV:  18    -0.221456657636E+03   -0.23911E-03   -0.25165E-04 14112   0.812E-02    0.867E-02
DAV:  19    -0.221456714169E+03   -0.56533E-04   -0.10038E-04 13632   0.431E-02    0.170E-02
DAV:  20    -0.221456722881E+03   -0.87121E-05   -0.22715E-05 12492   0.144E-02    0.918E-03
DAV:  21    -0.221456720730E+03    0.21514E-05   -0.23878E-06 12660   0.883E-03    0.112E-02
DAV:  22    -0.221456721887E+03   -0.11570E-05   -0.96767E-07 10728   0.514E-03    0.515E-03
DAV:  23    -0.221456722064E+03   -0.17720E-06   -0.29672E-07  9756   0.328E-03    0.649E-04
DAV:  24    -0.221456721650E+03    0.41420E-06   -0.92739E-08  6528   0.871E-04    0.462E-04
DAV:  25    -0.221456721534E+03    0.11599E-06   -0.65590E-09  6216   0.322E-04    0.266E-04
DAV:  26    -0.221456721449E+03    0.84940E-07   -0.10939E-09  6192   0.113E-04
   1 F= -.22145672E+03 E0= -.22145672E+03  d E =0.000000E+00  mag=    42.3357
