 vasp.5.4.4.18Apr17-6-g9f103f2a35 (build Apr 28 2018 00:24:27) complex          
  
 executed on             LinuxIFC date 2021.09.06  03:35:07
 running on   24 total cores
 distrk:  each k-point on   24 cores,    1 groups
 distr:  one band on NCORES_PER_BAND=   4 cores,    6 groups


--------------------------------------------------------------------------------------------------------


 INCAR:
 POTCAR:    PAW_PBE Fe_pv 02Aug2007               
 POTCAR:    PAW_PBE O 08Apr2002                   
 POTCAR:    PAW_PBE Fe_pv 02Aug2007               
   VRHFIN =Fe:  3pd7s1                                                          
   LEXCH  = PE                                                                  
   EATOM  =  2457.4239 eV,  180.6156 Ry                                         
                                                                                
   TITEL  = PAW_PBE Fe_pv 02Aug2007                                             
   LULTRA =        F    use ultrasoft PP ?                                      
   IUNSCR =        1    unscreen: 0-lin 1-nonlin 2-no                           
   RPACOR =    1.750    partial core radius                                     
   POMASS =   55.847; ZVAL   =   14.000    mass and valenz                      
   RCORE  =    2.200    outmost cutoff radius                                   
   RWIGS  =    2.200; RWIGS  =    1.164    wigner-seitz radius (au A)           
   ENMAX  =  293.238; ENMIN  =  219.928 eV                                      
   ICORE  =        3    local potential                                         
   LCOR   =        T    correct aug charges                                     
   LPAW   =        T    paw PP                                                  
   EAUG   =  578.342                                                            
   DEXC   =    0.000                                                            
   RMAX   =    2.249    core radius for proj-oper                               
   RAUG   =    1.300    factor for augmentation sphere                          
   RDEP   =    2.296    radius for radial grids                                 
   RDEPT  =    1.766    core radius for aug-charge                              
                                                                                
   Atomic configuration                                                         
    8 entries                                                                   
     n  l   j            E        occ.                                          
     1  0  0.50     -6993.8440   2.0000                                         
     2  0  0.50      -814.6047   2.0000                                         
     2  1  1.50      -693.3689   6.0000                                         
     3  0  0.50       -89.4732   2.0000                                         
     3  1  1.50       -55.6373   6.0000                                         
     3  2  2.50        -3.8151   7.0000                                         
     4  0  0.50        -4.2551   1.0000                                         
     4  3  2.50        -1.3606   0.0000                                         
   Description                                                                  
     l       E           TYP  RCUT    TYP  RCUT                                 
     1    -55.6372668     23  2.000                                             
     1     -5.4423304     23  2.000                                             
     2     -3.8151096     23  2.200                                             
     2     -5.1756922     23  2.200                                             
     0     -4.2550951     23  2.200                                             
     0     27.2116520     23  2.200                                             
     3     -1.3605826     23  2.200                                             
  local pseudopotential read in
  partial core-charges read in
  partial kinetic energy density read in
  atomic valenz-charges read in
  non local Contribution for L=           1  read in
    real space projection operators read in
  non local Contribution for L=           1  read in
    real space projection operators read in
  non local Contribution for L=           2  read in
    real space projection operators read in
  non local Contribution for L=           2  read in
    real space projection operators read in
  non local Contribution for L=           0  read in
    real space projection operators read in
  non local Contribution for L=           0  read in
    real space projection operators read in
    PAW grid and wavefunctions read in
 
   number of l-projection  operators is LMAX  =           6
   number of lm-projection operators is LMMAX =          18
 
 POTCAR:    PAW_PBE O 08Apr2002                   
   VRHFIN =O: s2p4                                                              
   LEXCH  = PE                                                                  
   EATOM  =   432.3788 eV,   31.7789 Ry                                         
                                                                                
   TITEL  = PAW_PBE O 08Apr2002                                                 
   LULTRA =        F    use ultrasoft PP ?                                      
   IUNSCR =        1    unscreen: 0-lin 1-nonlin 2-no                           
   RPACOR =    1.200    partial core radius                                     
   POMASS =   16.000; ZVAL   =    6.000    mass and valenz                      
   RCORE  =    1.520    outmost cutoff radius                                   
   RWIGS  =    1.550; RWIGS  =    0.820    wigner-seitz radius (au A)           
   ENMAX  =  400.000; ENMIN  =  300.000 eV                                      
   ICORE  =        2    local potential                                         
   LCOR   =        T    correct aug charges                                     
   LPAW   =        T    paw PP                                                  
   EAUG   =  605.392                                                            
   DEXC   =    0.000                                                            
   RMAX   =    1.553    core radius for proj-oper                               
   RAUG   =    1.300    factor for augmentation sphere                          
   RDEP   =    1.550    radius for radial grids                                 
   RDEPT  =    1.329    core radius for aug-charge                              
                                                                                
   Atomic configuration                                                         
    4 entries                                                                   
     n  l   j            E        occ.                                          
     1  0  0.50      -514.6923   2.0000                                         
     2  0  0.50       -23.9615   2.0000                                         
     2  1  0.50        -9.0305   4.0000                                         
     3  2  1.50        -9.5241   0.0000                                         
   Description                                                                  
     l       E           TYP  RCUT    TYP  RCUT                                 
     0    -23.9615318     23  1.200                                             
     0     -9.5240782     23  1.200                                             
     1     -9.0304911     23  1.520                                             
     1      8.1634956     23  1.520                                             
     2     -9.5240782      7  1.500                                             
  local pseudopotential read in
  partial core-charges read in
  partial kinetic energy density read in
  kinetic energy density of atom read in
  atomic valenz-charges read in
  non local Contribution for L=           0  read in
    real space projection operators read in
  non local Contribution for L=           0  read in
    real space projection operators read in
  non local Contribution for L=           1  read in
    real space projection operators read in
  non local Contribution for L=           1  read in
    real space projection operators read in
    PAW grid and wavefunctions read in
 
   number of l-projection  operators is LMAX  =           4
   number of lm-projection operators is LMMAX =           8
 
 Optimization of the real space projectors (new method)

 maximal supplied QI-value         = 17.01
 optimisation between [QCUT,QGAM] = [ 14.29, 28.57] = [ 57.15,228.61] Ry 
 Optimized for a Real-space Cutoff    1.25 Angstroem

   l    n(q)    QCUT    max X(q) W(low)/X(q) W(high)/X(q)  e(spline) 
   1     10    14.286     4.267    0.13E-03    0.22E-03    0.67E-06
   1     10    14.286     5.750    0.18E-03    0.33E-03    0.10E-05
   2     10    14.286    53.656    0.68E-04    0.12E-03    0.45E-06
   2     10    14.286    49.521    0.70E-04    0.12E-03    0.47E-06
   0     11    14.286    31.246    0.25E-04    0.53E-04    0.50E-06
   0     11    14.286    12.201    0.19E-04    0.43E-04    0.41E-06
 Optimization of the real space projectors (new method)

 maximal supplied QI-value         = 24.76
 optimisation between [QCUT,QGAM] = [ 14.11, 28.47] = [ 55.76,226.95] Ry 
 Optimized for a Real-space Cutoff    0.96 Angstroem

   l    n(q)    QCUT    max X(q) W(low)/X(q) W(high)/X(q)  e(spline) 
   0      8    14.111    20.381    0.15E-03    0.38E-03    0.63E-07
   0      8    14.111    15.268    0.16E-03    0.41E-03    0.66E-07
   1      8    14.111     5.964    0.18E-03    0.33E-03    0.13E-06
   1      8    14.111     5.382    0.17E-03    0.27E-03    0.11E-06
  PAW_PBE Fe_pv 02Aug2007               :
 energy of atom  1       EATOM=-2457.4239
 kinetic energy error for atom=    0.0012 (will be added to EATOM!!)
  PAW_PBE O 08Apr2002                   :
 energy of atom  2       EATOM= -432.3788
 kinetic energy error for atom=    0.0048 (will be added to EATOM!!)
 
 
 POSCAR: Fe12 O18                                
  positions in direct lattice
  No initial velocities read in
 exchange correlation table for  LEXCH =        8
   RHO(1)=    0.500       N(1)  =     2000
   RHO(2)=  100.500       N(2)  =     4000
 


--------------------------------------------------------------------------------------------------------


 ion  position               nearest neighbor table
   1  0.000  0.000  0.355-  17 1.94  23 1.94  28 1.94  25 2.12  19 2.12  13 2.12
   2  0.000  0.000  0.645-  16 1.94  22 1.94  29 1.94  26 2.12  20 2.12  14 2.12
   3  0.333  0.667  0.022-  30 1.94  24 1.94  18 1.94  27 2.12  21 2.12  15 2.12
   4  0.667  0.333  0.689-  14 1.94  20 1.94  26 1.94  22 2.12  29 2.12  16 2.12
   5  0.333  0.667  0.311-  13 1.94  19 1.94  25 1.94  23 2.12  28 2.12  17 2.12
   6  0.667  0.333  0.978-  27 1.94  21 1.94  15 1.94  30 2.12  24 2.12  18 2.12
   7  0.000  0.000  0.145-  24 1.94  18 1.94  30 1.94  25 2.12  19 2.12  13 2.12
   8  0.000  0.000  0.855-  21 1.94  15 1.94  27 1.94  26 2.12  20 2.12  14 2.12
   9  0.333  0.667  0.811-  20 1.94  14 1.94  26 1.94  27 2.12  21 2.12  15 2.12
  10  0.333  0.667  0.522-  29 1.94  16 1.94  22 1.94  23 2.12  28 2.12  17 2.12
  11  0.667  0.333  0.478-  28 1.94  17 1.94  23 1.94  22 2.12  29 2.12  16 2.12
  12  0.667  0.333  0.189-  19 1.94  13 1.94  25 1.94  30 2.12  24 2.12  18 2.12
  13  0.306  0.000  0.250-   5 1.94  12 1.94   7 2.12   1 2.12
  14  0.694  0.000  0.750-   4 1.94   9 1.94   8 2.12   2 2.12
  15  0.640  0.667  0.917-   6 1.94   8 1.94   9 2.12   3 2.12
  16  0.973  0.333  0.583-  10 1.94   2 1.94   4 2.12  11 2.12
  17  0.027  0.667  0.417-  11 1.94   1 1.94   5 2.12  10 2.12
  18  0.360  0.333  0.083-   3 1.94   7 1.94  12 2.12   6 2.12
  19  0.000  0.306  0.250-  12 1.94   5 1.94   7 2.12   1 2.12
  20  0.000  0.694  0.750-   9 1.94   4 1.94   8 2.12   2 2.12
  21  0.333  0.973  0.917-   6 1.94   8 1.94   9 2.12   3 2.12
  22  0.667  0.640  0.583-  10 1.94   2 1.94   4 2.12  11 2.12
  23  0.333  0.360  0.417-  11 1.94   1 1.94   5 2.12  10 2.12
  24  0.667  0.027  0.083-   3 1.94   7 1.94  12 2.12   6 2.12
  25  0.694  0.694  0.250-  12 1.94   5 1.94   7 2.12   1 2.12
  26  0.306  0.306  0.750-   9 1.94   4 1.94   8 2.12   2 2.12
  27  0.027  0.360  0.917-   6 1.94   8 1.94   9 2.12   3 2.12
  28  0.640  0.973  0.417-  11 1.94   1 1.94   5 2.12  10 2.12
  29  0.360  0.027  0.583-  10 1.94   2 1.94   4 2.12  11 2.12
  30  0.973  0.640  0.083-   3 1.94   7 1.94  12 2.12   6 2.12
 
  LATTYP: Found a hexagonal cell.
 ALAT       =     5.0350995578
 C/A-ratio  =     2.7324385232
  
  Lattice vectors:
  
 A1 = (   5.0351000000,   0.0000000000,   0.0000000000)
 A2 = (  -2.5175500000,   4.3605240000,   0.0000000000)
 A3 = (   0.0000000000,   0.0000000000,  13.7581000000)


Analysis of symmetry for initial positions (statically):
=====================================================================
 Subroutine PRICEL returns following result:
 
  LATTYP: Found a trigonal (rhomboedric) cell.
 ALAT       =     5.4297801492
 COS(alpha) =     0.5700456062
  
  Lattice vectors:
  
 A1 = (  -2.5175449649,  -1.4535109070,  -4.5860425054)
 A2 = (  -0.0000025175,   2.9070174535,  -4.5860287473)
 A3 = (   2.5175474825,  -1.4535065465,  -4.5860287473)
 
   3 primitive cells build up your supercell.
 

 Routine SETGRP: Setting up the symmetry group for a 
 hexagonal supercell.


 Subroutine GETGRP returns: Found 12 space group operations
 (whereof  6 operations were pure point group operations)
 out of a pool of 24 trial point group operations.


The static configuration has the point symmetry S_6 .
 The point group associated with its full space group is D_3d.


Analysis of symmetry for dynamics (positions and initial velocities):
=====================================================================
 Subroutine PRICEL returns following result:
 
  LATTYP: Found a trigonal (rhomboedric) cell.
 ALAT       =     5.4297801492
 COS(alpha) =     0.5700456062
  
  Lattice vectors:
  
 A1 = (  -2.5175449649,  -1.4535109070,  -4.5860425054)
 A2 = (  -0.0000025175,   2.9070174535,  -4.5860287473)
 A3 = (   2.5175474825,  -1.4535065465,  -4.5860287473)
 
   3 primitive cells build up your supercell.
 

 Routine SETGRP: Setting up the symmetry group for a 
 hexagonal supercell.


 Subroutine GETGRP returns: Found 12 space group operations
 (whereof  6 operations were pure point group operations)
 out of a pool of 24 trial point group operations.


The dynamic configuration has the point symmetry S_6 .
 The point group associated with its full space group is D_3d.


Analysis of structural, dynamic, and magnetic symmetry:
=====================================================================
 Subroutine PRICEL returns following result:
 
  LATTYP: Found a trigonal (rhomboedric) cell.
 ALAT       =     5.4297801492
 COS(alpha) =     0.5700456062
  
  Lattice vectors:
  
 A1 = (  -2.5175449649,  -1.4535109070,  -4.5860425054)
 A2 = (  -0.0000025175,   2.9070174535,  -4.5860287473)
 A3 = (   2.5175474825,  -1.4535065465,  -4.5860287473)
 
   3 primitive cells build up your supercell.
 

 Routine SETGRP: Setting up the symmetry group for a 
 hexagonal supercell.


 Subroutine GETGRP returns: Found 12 space group operations
 (whereof  6 operations were pure point group operations)
 out of a pool of 24 trial point group operations.


The magnetic configuration has the point symmetry S_6 .
 The point group associated with its full space group is D_3d.


 Subroutine INISYM returns: Found 12 space group operations
 (whereof  6 operations are pure point group operations),
 and found     3 'primitive' translations

 
 
 KPOINTS: pymatgen with grid density = 2464 / numb

Automatic generation of k-mesh.
Space group operators:
 irot       det(A)        alpha          n_x          n_y          n_z        tau_x        tau_y        tau_z
    1     1.000000     0.000000     1.000000     0.000000     0.000000     0.000000     0.000000     0.000000
    2    -1.000000     0.000000     1.000000     0.000000     0.000000     0.000000     0.000000     0.000000
    3     1.000000   120.000000     0.000000     0.000000    -1.000000     0.000000     0.000000     0.000000
    4    -1.000000   120.000000     0.000000     0.000000    -1.000000     0.000000     0.000000     0.000000
    5     1.000000   120.000000     0.000000     0.000000     1.000000     0.000000     0.000000     0.000000
    6    -1.000000   120.000000     0.000000     0.000000     1.000000     0.000000     0.000000     0.000000
    7     1.000000   180.000000     1.000000     0.000000     0.000000     0.000001    -0.000000    -0.500000
    8    -1.000000   180.000000     1.000000     0.000000     0.000000     0.000001    -0.000000    -0.500000
    9     1.000000   180.000000     0.500000    -0.866025     0.000000     0.000000     0.000000    -0.500000
   10    -1.000000   180.000000     0.500000    -0.866025     0.000000     0.000000     0.000000    -0.500000
   11     1.000000   180.000000    -0.500000    -0.866025     0.000000     0.000000     0.000000    -0.500000
   12    -1.000000   180.000000    -0.500000    -0.866025     0.000000     0.000000     0.000000    -0.500000
 
 Subroutine IBZKPT returns following result:
 ===========================================
 
 Found     14 irreducible k-points:
 
 Following reciprocal coordinates:
            Coordinates               Weight
  0.000000  0.000000  0.000000      1.000000
  0.166667  0.000000  0.000000      6.000000
  0.333333  0.000000  0.000000      6.000000
  0.500000  0.000000  0.000000      3.000000
  0.166667  0.166667  0.000000      6.000000
  0.333333  0.166667  0.000000     12.000000
  0.333333  0.333333  0.000000      2.000000
  0.000000  0.000000  0.500000      1.000000
  0.166667  0.000000  0.500000      6.000000
  0.333333  0.000000  0.500000      6.000000
  0.500000  0.000000  0.500000      3.000000
  0.166667  0.166667  0.500000      6.000000
  0.333333  0.166667  0.500000     12.000000
  0.333333  0.333333  0.500000      2.000000
 
 Following cartesian coordinates:
            Coordinates               Weight
  0.000000  0.000000  0.000000      1.000000
  0.033101  0.019111  0.000000      6.000000
  0.066202  0.038222  0.000000      6.000000
  0.099303  0.057333  0.000000      3.000000
  0.033101  0.057333  0.000000      6.000000
  0.066202  0.076443  0.000000     12.000000
  0.066202  0.114665  0.000000      2.000000
  0.000000  0.000000  0.036342      1.000000
  0.033101  0.019111  0.036342      6.000000
  0.066202  0.038222  0.036342      6.000000
  0.099303  0.057333  0.036342      3.000000
  0.033101  0.057333  0.036342      6.000000
  0.066202  0.076443  0.036342     12.000000
  0.066202  0.114665  0.036342      2.000000
 
 TETIRR: Found     71 inequivalent tetrahedra from      432


--------------------------------------------------------------------------------------------------------




 Dimension of arrays:
   k-points           NKPTS =     14   k-points in BZ     NKDIM =     14   number of bands    NBANDS=    204
   number of dos      NEDOS =    301   number of ions     NIONS =     30
   non local maximal  LDIM  =      6   non local SUM 2l+1 LMDIM =     18
   total plane-waves  NPLWV = 290304
   max r-space proj   IRMAX =   7957   max aug-charges    IRDMAX=  28660
   dimension x,y,z NGX =    48 NGY =   48 NGZ =  126
   dimension x,y,z NGXF=    96 NGYF=   96 NGZF=  252
   support grid    NGXF=    96 NGYF=   96 NGZF=  252
   ions per type =              12  18
   NGX,Y,Z   is equivalent  to a cutoff of  15.85, 15.85, 15.23 a.u.
   NGXF,Y,Z  is equivalent  to a cutoff of  31.70, 31.70, 30.45 a.u.

 SYSTEM =  unknown system                          
 POSCAR =  Fe12 O18                                

 Startparameter for this run:
   NWRITE =      2    write-flag & timer
   PREC   = accura    normal or accurate (medium, high low for compatibility)
   ISTART =      0    job   : 0-new  1-cont  2-samecut
   ICHARG =      2    charge: 1-file 2-atom 10-const
   ISPIN  =      2    spin polarized calculation?
   LNONCOLLINEAR =      F non collinear calculations
   LSORBIT =      F    spin-orbit coupling
   INIWAV =      1    electr: 0-lowe 1-rand  2-diag
   LASPH  =      F    aspherical Exc in radial PAW
   METAGGA=      F    non-selfconsistent MetaGGA calc.

 Electronic Relaxation 1
   ENCUT  =  780.0 eV  57.33 Ry    7.57 a.u.  11.47 11.47 31.33*2*pi/ulx,y,z
   ENINI  =  780.0     initial cutoff
   ENAUG  =  605.4 eV  augmentation charge cutoff
   NELM   =    100;   NELMIN=  2; NELMDL= -5     # of ELM steps 
   EDIFF  = 0.1E-06   stopping-criterion for ELM
   LREAL  =      T    real-space projection
   NLSPLINE    = F    spline interpolate recip. space projectors
   LCOMPAT=      F    compatible to vasp.4.4
   GGA_COMPAT  = T    GGA compatible to vasp.4.4-vasp.4.6
   LMAXPAW     = -100 max onsite density
   LMAXMIX     =    2 max onsite mixed and CHGCAR
   VOSKOWN=      0    Vosko Wilk Nusair interpolation
   ROPT   =   -0.00025  -0.00025
 Ionic relaxation
   EDIFFG = 0.1E-05   stopping-criterion for IOM
   NSW    =      0    number of steps for IOM
   NBLOCK =      1;   KBLOCK =      1    inner block; outer block 
   IBRION =     -1    ionic relax: 0-MD 1-quasi-New 2-CG
   NFREE  =      0    steps in history (QN), initial steepest desc. (CG)
   ISIF   =      3    stress and relaxation
   IWAVPR =     10    prediction:  0-non 1-charg 2-wave 3-comb
   ISYM   =      2    0-nonsym 1-usesym 2-fastsym
   LCORR  =      T    Harris-Foulkes like correction to forces

   POTIM  = 0.5000    time-step for ionic-motion
   TEIN   =    0.0    initial temperature
   TEBEG  =    0.0;   TEEND  =   0.0 temperature during run
   SMASS  =  -3.00    Nose mass-parameter (am)
   estimated Nose-frequenzy (Omega)   =  0.10E-29 period in steps =****** mass=  -0.579E-27a.u.
   SCALEE = 1.0000    scale energy and forces
   NPACO  =    256;   APACO  = 16.0  distance and # of slots for P.C.
   PSTRESS=    0.0 pullay stress

  Mass of Ions in am
   POMASS =  55.85 16.00
  Ionic Valenz
   ZVAL   =  14.00  6.00
  Atomic Wigner-Seitz radii
   RWIGS  =  -1.00 -1.00
  virtual crystal weights 
   VCA    =   1.00  1.00
   NELECT =     276.0000    total number of electrons
   NUPDOWN=      -1.0000    fix difference up-down

 DOS related values:
   EMIN   =  10.00;   EMAX   =-10.00  energy-range for DOS
   EFERMI =   0.00
   ISMEAR =    -5;   SIGMA  =   0.05  broadening in eV -4-tet -1-fermi 0-gaus

 Electronic relaxation 2 (details)
   IALGO  =     38    algorithm
   LDIAG  =      T    sub-space diagonalisation (order eigenvalues)
   LSUBROT=      F    optimize rotation matrix (better conditioning)
   TURBO    =      0    0=normal 1=particle mesh
   IRESTART =      0    0=no restart 2=restart with 2 vectors
   NREBOOT  =      0    no. of reboots
   NMIN     =      0    reboot dimension
   EREF     =   0.00    reference energy to select bands
   IMIX   =      4    mixing-type and parameters
     AMIX     =   0.40;   BMIX     =  1.00
     AMIX_MAG =   1.60;   BMIX_MAG =  1.00
     AMIN     =   0.10
     WC   =   100.;   INIMIX=   1;  MIXPRE=   1;  MAXMIX= -45

 Intra band minimization:
   WEIMIN = 0.0000     energy-eigenvalue tresh-hold
   EBREAK =  0.12E-09  absolut break condition
   DEPER  =   0.30     relativ break condition  

   TIME   =   0.40     timestep for ELM

  volume/ion in A,a.u.               =      10.07        67.95
  Fermi-wavevector in a.u.,A,eV,Ry     =   1.588581  3.001983 34.335534  2.523591
  Thomas-Fermi vector in A             =   2.687563
 
 Write flags
   LWAVE        =      F    write WAVECAR
   LDOWNSAMPLE  =      F    k-point downsampling of WAVECAR
   LCHARG       =      F    write CHGCAR
   LVTOT        =      F    write LOCPOT, total local potential
   LVHAR        =      F    write LOCPOT, Hartree potential only
   LELF         =      F    write electronic localiz. function (ELF)
   LORBIT       =     11    0 simple, 1 ext, 2 COOP (PROOUT), +10 PAW based schemes


 Dipole corrections
   LMONO  =      F    monopole corrections only (constant potential shift)
   LDIPOL =      F    correct potential (dipole corrections)
   IDIPOL =      0    1-x, 2-y, 3-z, 4-all directions 
   EPSILON=  1.0000000 bulk dielectric constant

 Exchange correlation treatment:
   GGA     =    --    GGA type
   LEXCH   =     8    internal setting for exchange type
   VOSKOWN=      0    Vosko Wilk Nusair interpolation
   LHFCALC =     F    Hartree Fock is set to
   LHFONE  =     F    Hartree Fock one center treatment
   AEXX    =    0.0000 exact exchange contribution

 Linear response parameters
   LEPSILON=     F    determine dielectric tensor
   LRPA    =     F    only Hartree local field effects (RPA)
   LNABLA  =     F    use nabla operator in PAW spheres
   LVEL    =     F    velocity operator in full k-point grid
   LINTERFAST=   F  fast interpolation
   KINTER  =     0    interpolate to denser k-point grid
   CSHIFT  =0.1000    complex shift for real part using Kramers Kronig
   OMEGAMAX=  -1.0    maximum frequency
   DEG_THRESHOLD= 0.2000000E-02 threshold for treating states as degnerate
   RTIME   =   -0.100 relaxation time in fs
  (WPLASMAI=    0.000 imaginary part of plasma frequency in eV, 0.658/RTIME)
   DFIELD  = 0.0000000 0.0000000 0.0000000 field for delta impulse in time
 
 Orbital magnetization related:
   ORBITALMAG=     F  switch on orbital magnetization
   LCHIMAG   =     F  perturbation theory with respect to B field
   DQ        =  0.001000  dq finite difference perturbation B field
   LLRAUG    =     F  two centre corrections for induced B field



--------------------------------------------------------------------------------------------------------


 Static calculation
 charge density and potential will be updated during run
 spin polarized calculation
 Variant of blocked Davidson
 Davidson routine will perform the subspace rotation
 perform sub-space diagonalisation
    after iterative eigenvector-optimisation
 modified Broyden-mixing scheme, WC =      100.0
 initial mixing is a Kerker type mixing with AMIX =  0.4000 and BMIX =      1.0000
 Hartree-type preconditioning will be used
 using additional bands           66
 real space projection scheme for non local part
 use partial core corrections
 calculate Harris-corrections to forces 
   (improved forces if not selfconsistent)
 use gradient corrections 
 use of overlap-Matrix (Vanderbilt PP)
 Fermi weights with tetrahedron method with Bloechl corrections


--------------------------------------------------------------------------------------------------------


  energy-cutoff  :      780.00
  volume of cell :      302.07
      direct lattice vectors                 reciprocal lattice vectors
     5.035100000  0.000000000  0.000000000     0.198605787  0.114665118  0.000000000
    -2.517550000  4.360524000  0.000000000     0.000000000  0.229330236  0.000000000
     0.000000000  0.000000000 13.758100000     0.000000000  0.000000000  0.072684455

  length of vectors
     5.035100000  5.035099558 13.758100000     0.229330216  0.229330236  0.072684455


 
 k-points in units of 2pi/SCALE and weight: pymatgen with grid density = 2464 / numb
   0.00000000  0.00000000  0.00000000       0.014
   0.03310096  0.01911085  0.00000000       0.083
   0.06620193  0.03822171  0.00000000       0.083
   0.09930289  0.05733256  0.00000000       0.042
   0.03310096  0.05733256  0.00000000       0.083
   0.06620193  0.07644341  0.00000000       0.167
   0.06620193  0.11466512  0.00000000       0.028
   0.00000000  0.00000000  0.03634223       0.014
   0.03310096  0.01911085  0.03634223       0.083
   0.06620193  0.03822171  0.03634223       0.083
   0.09930289  0.05733256  0.03634223       0.042
   0.03310096  0.05733256  0.03634223       0.083
   0.06620193  0.07644341  0.03634223       0.167
   0.06620193  0.11466512  0.03634223       0.028
 
 k-points in reciprocal lattice and weights: pymatgen with grid density = 2464 / numb
   0.00000000  0.00000000  0.00000000       0.014
   0.16666667  0.00000000  0.00000000       0.083
   0.33333333  0.00000000  0.00000000       0.083
   0.50000000  0.00000000  0.00000000       0.042
   0.16666667  0.16666667  0.00000000       0.083
   0.33333333  0.16666667  0.00000000       0.167
   0.33333333  0.33333333  0.00000000       0.028
   0.00000000  0.00000000  0.50000000       0.014
   0.16666667  0.00000000  0.50000000       0.083
   0.33333333  0.00000000  0.50000000       0.083
   0.50000000  0.00000000  0.50000000       0.042
   0.16666667  0.16666667  0.50000000       0.083
   0.33333333  0.16666667  0.50000000       0.167
   0.33333333  0.33333333  0.50000000       0.028
 
 position of ions in fractional coordinates (direct lattice) 
   0.00000000  0.00000000  0.35532000
   0.00000000  0.00000000  0.64468000
   0.33333300  0.66666700  0.02198700
   0.66666700  0.33333300  0.68865300
   0.33333300  0.66666700  0.31134700
   0.66666700  0.33333300  0.97801300
   0.00000000  0.00000000  0.14468000
   0.00000000  0.00000000  0.85532000
   0.33333300  0.66666700  0.81134700
   0.33333300  0.66666700  0.52198700
   0.66666700  0.33333300  0.47801300
   0.66666700  0.33333300  0.18865300
   0.30618000  0.00000000  0.25000000
   0.69382000  0.00000000  0.75000000
   0.63951300  0.66666700  0.91666700
   0.97284700  0.33333300  0.58333300
   0.02715300  0.66666700  0.41666700
   0.36048700  0.33333300  0.08333300
   0.00000000  0.30618000  0.25000000
   0.00000000  0.69382000  0.75000000
   0.33333300  0.97284700  0.91666700
   0.66666700  0.63951300  0.58333300
   0.33333300  0.36048700  0.41666700
   0.66666700  0.02715300  0.08333300
   0.69382000  0.69382000  0.25000000
   0.30618000  0.30618000  0.75000000
   0.02715300  0.36048700  0.91666700
   0.63951300  0.97284700  0.41666700
   0.36048700  0.02715300  0.58333300
   0.97284700  0.63951300  0.08333300
 
 position of ions in cartesian coordinates  (Angst):
   0.00000000  0.00000000  4.88852809
   0.00000000  0.00000000  8.86957191
  -0.00000252  2.90701745  0.30249934
   2.51755252  1.45350655  9.47455684
  -0.00000252  2.90701745  4.28354316
   2.51755252  1.45350655 13.45560066
   0.00000000  0.00000000  1.99052191
   0.00000000  0.00000000 11.76757809
  -0.00000252  2.90701745 11.16259316
  -0.00000252  2.90701745  7.18154934
   2.51755252  1.45350655  6.57655066
   2.51755252  1.45350655  2.59550684
   1.54164692  0.00000000  3.43952500
   3.49345308  0.00000000 10.31857500
   1.54164440  2.90701745 12.61159625
   4.05919944  1.45350655  8.02555375
  -1.54164944  2.90701745  5.73254625
   0.97590560  1.45350655  1.14650375
  -0.77082346  1.33510524  3.43952500
  -1.74672654  3.02541876 10.31857500
  -0.77082598  4.24212269 12.61159625
   1.74672906  2.78861178  8.02555375
   0.77082094  1.57191222  5.73254625
   3.28837598  0.11840131  1.14650375
   1.74672654  3.02541876  3.43952500
   0.77082346  1.33510524 10.31857500
  -0.77082598  1.57191222 12.61159625
   0.77082094  4.24212269  5.73254625
   1.74672906  0.11840131  8.02555375
   3.28837598  2.78861178  1.14650375
 


--------------------------------------------------------------------------------------------------------


 k-point  1 :   0.0000 0.0000 0.0000  plane waves:   14967
 k-point  2 :   0.1667 0.0000 0.0000  plane waves:   14954
 k-point  3 :   0.3333 0.0000 0.0000  plane waves:   14976
 k-point  4 :   0.5000 0.0000 0.0000  plane waves:   14932
 k-point  5 :   0.1667 0.1667 0.0000  plane waves:   14957
 k-point  6 :   0.3333 0.1667 0.0000  plane waves:   14910
 k-point  7 :   0.3333 0.3333 0.0000  plane waves:   14922
 k-point  8 :   0.0000 0.0000 0.5000  plane waves:   15002
 k-point  9 :   0.1667 0.0000 0.5000  plane waves:   14968
 k-point 10 :   0.3333 0.0000 0.5000  plane waves:   14938
 k-point 11 :   0.5000 0.0000 0.5000  plane waves:   14908
 k-point 12 :   0.1667 0.1667 0.5000  plane waves:   14922
 k-point 13 :   0.3333 0.1667 0.5000  plane waves:   14922
 k-point 14 :   0.3333 0.3333 0.5000  plane waves:   14946

 maximum and minimum number of plane-waves per node :      3781     3710

 maximum number of plane-waves:     15002
 maximum index in each direction: 
   IXMAX=   11   IYMAX=   11   IZMAX=   31
   IXMIN=  -11   IYMIN=  -11   IZMIN=  -31


 real space projection operators:
  total allocation   :      16821.56 KBytes
  max/ min on nodes  :       4235.81       4162.50


 parallel 3D FFT for wavefunctions:
    minimum data exchange during FFTs selected (reduces bandwidth)
 parallel 3D FFT for charge:
    minimum data exchange during FFTs selected (reduces bandwidth)


 total amount of memory used by VASP MPI-rank0   116926. kBytes
=======================================================================

   base      :      30000. kBytes
   nonlr-proj:       9251. kBytes
   fftplans  :       5413. kBytes
   grid      :      13615. kBytes
   one-center:        248. kBytes
   wavefun   :      58399. kBytes
 
     INWAV:  cpu time    0.0000: real time    0.0001
 Broyden mixing: mesh for mixing (old mesh)
   NGX = 23   NGY = 23   NGZ = 63
  (NGX  = 96   NGY  = 96   NGZ  =252)
  gives a total of  33327 points

 initial charge density was supplied:
 charge density of overlapping atoms calculated
 number of electron     276.0000000 magnetization      70.8000000
 keeping initial charge density in first step


--------------------------------------------------------------------------------------------------------


 Maximum index for non-local projection operator         1935
 Maximum index for augmentation-charges         1260 (set IRDMAX)


--------------------------------------------------------------------------------------------------------


 First call to EWALD:  gamma=   0.264
 Maximum number of real-space cells 4x 4x 2
 Maximum number of reciprocal cells 2x 2x 5

    FEWALD:  cpu time    0.0020: real time    0.0020


--------------------------------------- Iteration      1(   1)  ---------------------------------------


    POTLOK:  cpu time    0.1372: real time    0.1383
    SETDIJ:  cpu time    0.0164: real time    0.0165
     EDDAV:  cpu time   21.7483: real time   21.8180
 BZINTS: Fermi energy: 32.060944;276.000000 electrons
         Band energy:1889.761970;  BLOECHL correction: -0.047344
       DOS:  cpu time    0.0388: real time    0.0389
    --------------------------------------------
      LOOP:  cpu time   21.9408: real time   22.0117

 eigenvalue-minimisations  : 11472
 total energy-change (2. order) : 0.4906389E+04  (-0.1741162E+05)
 number of electron     276.0000000 magnetization      70.8000000
 augmentation part      276.0000000 magnetization      70.8000000

 Free energy of the ion-electron system (eV)
  ---------------------------------------------------
  alpha Z        PSCENC =      1362.55286497
  Ewald energy   TEWEN  =    -25513.06237826
  -Hartree energ DENC   =    -10371.14386019
  -exchange      EXHF   =         0.00000000
  -V(xc)+E(xc)   XCENC  =      1375.27778339
  PAW double counting   =     30224.59406688   -31333.39571732
  entropy T*S    EENTRO =         0.00000000
  eigenvalues    EBANDS =      1889.76196965
  atomic energy  EATOM  =     37271.80430989
  Solvation  Ediel_sol  =         0.00000000
  ---------------------------------------------------
  free energy    TOTEN  =      4906.38903901 eV

  energy without entropy =     4906.38903901  energy(sigma->0) =     4906.38903901


--------------------------------------------------------------------------------------------------------




--------------------------------------- Iteration      1(   2)  ---------------------------------------


     EDDAV:  cpu time   21.3604: real time   21.4190
 BZINTS: Fermi energy: 12.044212;276.000000 electrons
         Band energy:***********;  BLOECHL correction: -0.028413
       DOS:  cpu time    0.0495: real time    0.0496
    --------------------------------------------
      LOOP:  cpu time   21.4099: real time   21.4686

 eigenvalue-minimisations  : 11424
 total energy-change (2. order) :-0.4302975E+04  (-0.3934837E+04)
 number of electron     276.0000000 magnetization      70.8000000
 augmentation part      276.0000000 magnetization      70.8000000

 Free energy of the ion-electron system (eV)
  ---------------------------------------------------
  alpha Z        PSCENC =      1362.55286497
  Ewald energy   TEWEN  =    -25513.06237826
  -Hartree energ DENC   =    -10371.14386019
  -exchange      EXHF   =         0.00000000
  -V(xc)+E(xc)   XCENC  =      1375.27778339
  PAW double counting   =     30224.59406688   -31333.39571732
  entropy T*S    EENTRO =         0.00000000
  eigenvalues    EBANDS =     -2413.21325411
  atomic energy  EATOM  =     37271.80430989
  Solvation  Ediel_sol  =         0.00000000
  ---------------------------------------------------
  free energy    TOTEN  =       603.41381525 eV

  energy without entropy =      603.41381525  energy(sigma->0) =      603.41381525


--------------------------------------------------------------------------------------------------------




--------------------------------------- Iteration      1(   3)  ---------------------------------------


     EDDAV:  cpu time   21.9301: real time   21.9860
 BZINTS: Fermi energy:  8.837621;276.000000 electrons
         Band energy:***********;  BLOECHL correction:  0.000000
       DOS:  cpu time    0.0079: real time    0.0080
    --------------------------------------------
      LOOP:  cpu time   21.9380: real time   21.9939

 eigenvalue-minimisations  : 11880
 total energy-change (2. order) :-0.8348221E+03  (-0.7253541E+03)
 number of electron     276.0000000 magnetization      70.8000000
 augmentation part      276.0000000 magnetization      70.8000000

 Free energy of the ion-electron system (eV)
  ---------------------------------------------------
  alpha Z        PSCENC =      1362.55286497
  Ewald energy   TEWEN  =    -25513.06237826
  -Hartree energ DENC   =    -10371.14386019
  -exchange      EXHF   =         0.00000000
  -V(xc)+E(xc)   XCENC  =      1375.27778339
  PAW double counting   =     30224.59406688   -31333.39571732
  entropy T*S    EENTRO =         0.00000000
  eigenvalues    EBANDS =     -3248.03532193
  atomic energy  EATOM  =     37271.80430989
  Solvation  Ediel_sol  =         0.00000000
  ---------------------------------------------------
  free energy    TOTEN  =      -231.40825258 eV

  energy without entropy =     -231.40825258  energy(sigma->0) =     -231.40825258


--------------------------------------------------------------------------------------------------------




--------------------------------------- Iteration      1(   4)  ---------------------------------------


     EDDAV:  cpu time   23.5327: real time   23.5975
 BZINTS: Fermi energy:  8.258378;276.000000 electrons
         Band energy:***********;  BLOECHL correction:  0.000000
       DOS:  cpu time    0.0081: real time    0.0081
    --------------------------------------------
      LOOP:  cpu time   23.5408: real time   23.6056

 eigenvalue-minimisations  : 12876
 total energy-change (2. order) :-0.6236233E+02  (-0.6160087E+02)
 number of electron     276.0000000 magnetization      70.8000000
 augmentation part      276.0000000 magnetization      70.8000000

 Free energy of the ion-electron system (eV)
  ---------------------------------------------------
  alpha Z        PSCENC =      1362.55286497
  Ewald energy   TEWEN  =    -25513.06237826
  -Hartree energ DENC   =    -10371.14386019
  -exchange      EXHF   =         0.00000000
  -V(xc)+E(xc)   XCENC  =      1375.27778339
  PAW double counting   =     30224.59406688   -31333.39571732
  entropy T*S    EENTRO =         0.00000000
  eigenvalues    EBANDS =     -3310.39765135
  atomic energy  EATOM  =     37271.80430989
  Solvation  Ediel_sol  =         0.00000000
  ---------------------------------------------------
  free energy    TOTEN  =      -293.77058199 eV

  energy without entropy =     -293.77058199  energy(sigma->0) =     -293.77058199


--------------------------------------------------------------------------------------------------------




--------------------------------------- Iteration      1(   5)  ---------------------------------------


     EDDAV:  cpu time   22.1477: real time   22.2046
 BZINTS: Fermi energy:  8.292981;276.000000 electrons
         Band energy:***********;  BLOECHL correction:  0.000000
       DOS:  cpu time    0.0072: real time    0.0073
    CHARGE:  cpu time    0.7572: real time    0.7589
    MIXING:  cpu time    0.0028: real time    0.0029
    --------------------------------------------
      LOOP:  cpu time   22.9150: real time   22.9736

 eigenvalue-minimisations  : 12816
 total energy-change (2. order) :-0.7312072E+00  (-0.7288146E+00)
 number of electron     275.9999956 magnetization      67.8179396
 augmentation part      108.0150419 magnetization      47.0430541

 Broyden mixing:
  rms(total) = 0.80924E+01    rms(broyden)= 0.80924E+01
  rms(prec ) = 0.88385E+01
  weight for this iteration     100.00

 Free energy of the ion-electron system (eV)
  ---------------------------------------------------
  alpha Z        PSCENC =      1362.55286497
  Ewald energy   TEWEN  =    -25513.06237826
  -Hartree energ DENC   =    -10371.14386019
  -exchange      EXHF   =         0.00000000
  -V(xc)+E(xc)   XCENC  =      1375.27778339
  PAW double counting   =     30224.59406688   -31333.39571732
  entropy T*S    EENTRO =         0.00000000
  eigenvalues    EBANDS =     -3311.12885855
  atomic energy  EATOM  =     37271.80430989
  Solvation  Ediel_sol  =         0.00000000
  ---------------------------------------------------
  free energy    TOTEN  =      -294.50178920 eV

  energy without entropy =     -294.50178920  energy(sigma->0) =     -294.50178920


--------------------------------------------------------------------------------------------------------




--------------------------------------- Iteration      1(   6)  ---------------------------------------


    POTLOK:  cpu time    0.1156: real time    0.1161
    SETDIJ:  cpu time    0.0142: real time    0.0142
     EDDAV:  cpu time   22.1209: real time   22.1772
 BZINTS: Fermi energy:  5.534948;276.000000 electrons
         Band energy:***********;  BLOECHL correction: -0.054815
       DOS:  cpu time    0.0520: real time    0.0521
    CHARGE:  cpu time    0.8024: real time    0.8044
    MIXING:  cpu time    0.0029: real time    0.0029
    --------------------------------------------
      LOOP:  cpu time   23.1079: real time   23.1669

 eigenvalue-minimisations  : 14796
 total energy-change (2. order) : 0.5920620E+02  (-0.2529136E+02)
 number of electron     275.9999915 magnetization      62.9811442
 augmentation part      120.7094488 magnetization      54.4129368

 Broyden mixing:
  rms(total) = 0.91203E+01    rms(broyden)= 0.91203E+01
  rms(prec ) = 0.97693E+01
  weight for this iteration     100.00

 eigenvalues of (default mixing * dielectric matrix)
  average eigenvalue GAMMA=   0.3187
  0.3187

 Free energy of the ion-electron system (eV)
  ---------------------------------------------------
  alpha Z        PSCENC =      1362.55286497
  Ewald energy   TEWEN  =    -25513.06237826
  -Hartree energ DENC   =     -9965.70063743
  -exchange      EXHF   =         0.00000000
  -V(xc)+E(xc)   XCENC  =      1376.63842644
  PAW double counting   =     31438.07515043   -32504.96565050
  entropy T*S    EENTRO =         0.00000000
  eigenvalues    EBANDS =     -3700.63767641
  atomic energy  EATOM  =     37271.80430989
  Solvation  Ediel_sol  =         0.00000000
  ---------------------------------------------------
  free energy    TOTEN  =      -235.29559087 eV

  energy without entropy =     -235.29559087  energy(sigma->0) =     -235.29559087


--------------------------------------------------------------------------------------------------------




--------------------------------------- Iteration      1(   7)  ---------------------------------------


    POTLOK:  cpu time    0.1211: real time    0.1227
    SETDIJ:  cpu time    0.0153: real time    0.0153
     EDDAV:  cpu time   19.6560: real time   19.7057
 BZINTS: Fermi energy:  7.079535;276.000000 electrons
         Band energy:***********;  BLOECHL correction: -0.036394
       DOS:  cpu time    0.0520: real time    0.0521
    CHARGE:  cpu time    0.7925: real time    0.7946
    MIXING:  cpu time    0.0031: real time    0.0031
    --------------------------------------------
      LOOP:  cpu time   20.6400: real time   20.6935

 eigenvalue-minimisations  : 12252
 total energy-change (2. order) : 0.2326267E+02  (-0.1141135E+02)
 number of electron     275.9999943 magnetization      58.7864395
 augmentation part      109.3470108 magnetization      40.3303189

 Broyden mixing:
  rms(total) = 0.43697E+01    rms(broyden)= 0.43697E+01
  rms(prec ) = 0.45295E+01
  weight for this iteration     100.00

 eigenvalues of (default mixing * dielectric matrix)
  average eigenvalue GAMMA=   0.6788
  1.0272  0.3303

 Free energy of the ion-electron system (eV)
  ---------------------------------------------------
  alpha Z        PSCENC =      1362.55286497
  Ewald energy   TEWEN  =    -25513.06237826
  -Hartree energ DENC   =    -10207.56351739
  -exchange      EXHF   =         0.00000000
  -V(xc)+E(xc)   XCENC  =      1372.38609776
  PAW double counting   =     32871.00121942   -33999.43885590
  entropy T*S    EENTRO =         0.00000000
  eigenvalues    EBANDS =     -3369.71265943
  atomic energy  EATOM  =     37271.80430989
  Solvation  Ediel_sol  =         0.00000000
  ---------------------------------------------------
  free energy    TOTEN  =      -212.03291895 eV

  energy without entropy =     -212.03291895  energy(sigma->0) =     -212.03291895


--------------------------------------------------------------------------------------------------------




--------------------------------------- Iteration      1(   8)  ---------------------------------------


    POTLOK:  cpu time    0.1223: real time    0.1230
    SETDIJ:  cpu time    0.0154: real time    0.0154
     EDDAV:  cpu time   19.5022: real time   19.5515
 BZINTS: Fermi energy:  6.446074;276.000000 electrons
         Band energy:***********;  BLOECHL correction: -0.034165
       DOS:  cpu time    0.0461: real time    0.0462
    CHARGE:  cpu time    0.7933: real time    0.7954
    MIXING:  cpu time    0.0029: real time    0.0029
    --------------------------------------------
      LOOP:  cpu time   20.4823: real time   20.5345

 eigenvalue-minimisations  : 12120
 total energy-change (2. order) :-0.6279463E+01  (-0.2140083E+01)
 number of electron     275.9999940 magnetization      51.9495133
 augmentation part      111.2666984 magnetization      35.0279536

 Broyden mixing:
  rms(total) = 0.26531E+01    rms(broyden)= 0.26531E+01
  rms(prec ) = 0.27133E+01
  weight for this iteration     100.00

 eigenvalues of (default mixing * dielectric matrix)
  average eigenvalue GAMMA=   1.0722
  2.2531  0.5799  0.3835

 Free energy of the ion-electron system (eV)
  ---------------------------------------------------
  alpha Z        PSCENC =      1362.55286497
  Ewald energy   TEWEN  =    -25513.06237826
  -Hartree energ DENC   =    -10072.38211863
  -exchange      EXHF   =         0.00000000
  -V(xc)+E(xc)   XCENC  =      1366.37795451
  PAW double counting   =     34230.46287463   -35370.63229511
  entropy T*S    EENTRO =         0.00000000
  eigenvalues    EBANDS =     -3493.43359441
  atomic energy  EATOM  =     37271.80430989
  Solvation  Ediel_sol  =         0.00000000
  ---------------------------------------------------
  free energy    TOTEN  =      -218.31238239 eV

  energy without entropy =     -218.31238239  energy(sigma->0) =     -218.31238239


--------------------------------------------------------------------------------------------------------




--------------------------------------- Iteration      1(   9)  ---------------------------------------


    POTLOK:  cpu time    0.1218: real time    0.1221
    SETDIJ:  cpu time    0.0153: real time    0.0154
     EDDAV:  cpu time   19.5970: real time   19.6466
 BZINTS: Fermi energy:  5.881411;276.000000 electrons
         Band energy:***********;  BLOECHL correction: -0.038412
       DOS:  cpu time    0.0523: real time    0.0524
    CHARGE:  cpu time    0.8304: real time    0.8324
    MIXING:  cpu time    0.0031: real time    0.0031
    --------------------------------------------
      LOOP:  cpu time   20.6199: real time   20.6720

 eigenvalue-minimisations  : 12600
 total energy-change (2. order) :-0.4187482E+01  (-0.8212054E+00)
 number of electron     275.9999932 magnetization      50.9221531
 augmentation part      114.1283513 magnetization      37.7922651

 Broyden mixing:
  rms(total) = 0.27080E+01    rms(broyden)= 0.27080E+01
  rms(prec ) = 0.28375E+01
  weight for this iteration     100.00

 eigenvalues of (default mixing * dielectric matrix)
  average eigenvalue GAMMA=   1.1015
  2.8508  0.8032  0.3761  0.3761

 Free energy of the ion-electron system (eV)
  ---------------------------------------------------
  alpha Z        PSCENC =      1362.55286497
  Ewald energy   TEWEN  =    -25513.06237826
  -Hartree energ DENC   =     -9933.62049408
  -exchange      EXHF   =         0.00000000
  -V(xc)+E(xc)   XCENC  =      1362.37031906
  PAW double counting   =     36517.61307509   -37686.59895817
  entropy T*S    EENTRO =         0.00000000
  eigenvalues    EBANDS =     -3603.55860298
  atomic energy  EATOM  =     37271.80430989
  Solvation  Ediel_sol  =         0.00000000
  ---------------------------------------------------
  free energy    TOTEN  =      -222.49986448 eV

  energy without entropy =     -222.49986448  energy(sigma->0) =     -222.49986448


--------------------------------------------------------------------------------------------------------




--------------------------------------- Iteration      1(  10)  ---------------------------------------


    POTLOK:  cpu time    0.1252: real time    0.1262
    SETDIJ:  cpu time    0.0156: real time    0.0156
     EDDAV:  cpu time   21.0778: real time   21.1312
 BZINTS: Fermi energy:  5.958680;276.000000 electrons
         Band energy:***********;  BLOECHL correction: -0.037132
       DOS:  cpu time    0.0446: real time    0.0447
    CHARGE:  cpu time    0.8258: real time    0.8279
    MIXING:  cpu time    0.0034: real time    0.0034
    --------------------------------------------
      LOOP:  cpu time   22.0923: real time   22.1490

 eigenvalue-minimisations  : 12540
 total energy-change (2. order) : 0.3336481E+00  (-0.2455205E+00)
 number of electron     275.9999933 magnetization      50.6179613
 augmentation part      113.4188510 magnetization      37.3071036

 Broyden mixing:
  rms(total) = 0.18602E+01    rms(broyden)= 0.18602E+01
  rms(prec ) = 0.19708E+01
  weight for this iteration     100.00

 eigenvalues of (default mixing * dielectric matrix)
  average eigenvalue GAMMA=   1.0182
  2.6179  0.3741  0.7702  0.6645  0.6645

 Free energy of the ion-electron system (eV)
  ---------------------------------------------------
  alpha Z        PSCENC =      1362.55286497
  Ewald energy   TEWEN  =    -25513.06237826
  -Hartree energ DENC   =     -9949.13359270
  -exchange      EXHF   =         0.00000000
  -V(xc)+E(xc)   XCENC  =      1360.91903391
  PAW double counting   =     36554.94229594   -37727.29200779
  entropy T*S    EENTRO =         0.00000000
  eigenvalues    EBANDS =     -3582.89674235
  atomic energy  EATOM  =     37271.80430989
  Solvation  Ediel_sol  =         0.00000000
  ---------------------------------------------------
  free energy    TOTEN  =      -222.16621639 eV

  energy without entropy =     -222.16621639  energy(sigma->0) =     -222.16621639


--------------------------------------------------------------------------------------------------------




--------------------------------------- Iteration      1(  11)  ---------------------------------------


    POTLOK:  cpu time    0.1273: real time    0.1277
    SETDIJ:  cpu time    0.0158: real time    0.0158
     EDDAV:  cpu time   23.3125: real time   23.3717
 BZINTS: Fermi energy:  6.019886;276.000000 electrons
         Band energy:***********;  BLOECHL correction: -0.033998
       DOS:  cpu time    0.0499: real time    0.0500
    CHARGE:  cpu time    0.8321: real time    0.8343
    MIXING:  cpu time    0.0036: real time    0.0036
    --------------------------------------------
      LOOP:  cpu time   24.3413: real time   24.4031

 eigenvalue-minimisations  : 14328
 total energy-change (2. order) : 0.5643009E+00  (-0.2277408E-01)
 number of electron     275.9999935 magnetization      49.3117001
 augmentation part      112.9995550 magnetization      35.6164470

 Broyden mixing:
  rms(total) = 0.12186E+01    rms(broyden)= 0.12186E+01
  rms(prec ) = 0.12919E+01
  weight for this iteration     100.00

 eigenvalues of (default mixing * dielectric matrix)
  average eigenvalue GAMMA=   1.0450
  2.5830  0.9705  0.9705  0.3792  0.7997  0.5670

 Free energy of the ion-electron system (eV)
  ---------------------------------------------------
  alpha Z        PSCENC =      1362.55286497
  Ewald energy   TEWEN  =    -25513.06237826
  -Hartree energ DENC   =     -9960.24809026
  -exchange      EXHF   =         0.00000000
  -V(xc)+E(xc)   XCENC  =      1360.24634456
  PAW double counting   =     36385.32825835   -37555.67523762
  entropy T*S    EENTRO =         0.00000000
  eigenvalues    EBANDS =     -3572.54798712
  atomic energy  EATOM  =     37271.80430989
  Solvation  Ediel_sol  =         0.00000000
  ---------------------------------------------------
  free energy    TOTEN  =      -221.60191549 eV

  energy without entropy =     -221.60191549  energy(sigma->0) =     -221.60191549


--------------------------------------------------------------------------------------------------------




--------------------------------------- Iteration      1(  12)  ---------------------------------------


    POTLOK:  cpu time    0.1265: real time    0.1270
    SETDIJ:  cpu time    0.0157: real time    0.0158
     EDDAV:  cpu time   24.2707: real time   24.3319
 BZINTS: Fermi energy:  6.079357;276.000000 electrons
         Band energy:***********;  BLOECHL correction: -0.033316
       DOS:  cpu time    0.0526: real time    0.0529
    CHARGE:  cpu time    0.8320: real time    0.8339
    MIXING:  cpu time    0.0035: real time    0.0035
    --------------------------------------------
      LOOP:  cpu time   25.3010: real time   25.3649

 eigenvalue-minimisations  : 15240
 total energy-change (2. order) : 0.2019728E+00  (-0.1957946E-01)
 number of electron     275.9999935 magnetization      46.8849376
 augmentation part      112.6800675 magnetization      33.0868792

 Broyden mixing:
  rms(total) = 0.84390E+00    rms(broyden)= 0.84390E+00
  rms(prec ) = 0.88492E+00
  weight for this iteration     100.00

 eigenvalues of (default mixing * dielectric matrix)
  average eigenvalue GAMMA=   1.0969
  2.1479  1.6288  1.4997  0.3778  0.7521  0.6360  0.6360

 Free energy of the ion-electron system (eV)
  ---------------------------------------------------
  alpha Z        PSCENC =      1362.55286497
  Ewald energy   TEWEN  =    -25513.06237826
  -Hartree energ DENC   =     -9973.18358946
  -exchange      EXHF   =         0.00000000
  -V(xc)+E(xc)   XCENC  =      1359.60003716
  PAW double counting   =     36270.05996417   -37439.35046515
  entropy T*S    EENTRO =         0.00000000
  eigenvalues    EBANDS =     -3559.82068603
  atomic energy  EATOM  =     37271.80430989
  Solvation  Ediel_sol  =         0.00000000
  ---------------------------------------------------
  free energy    TOTEN  =      -221.39994270 eV

  energy without entropy =     -221.39994270  energy(sigma->0) =     -221.39994270


--------------------------------------------------------------------------------------------------------




--------------------------------------- Iteration      1(  13)  ---------------------------------------


    POTLOK:  cpu time    0.1266: real time    0.1271
    SETDIJ:  cpu time    0.0158: real time    0.0158
     EDDAV:  cpu time   22.8016: real time   22.8600
 BZINTS: Fermi energy:  6.138665;276.000000 electrons
         Band energy:***********;  BLOECHL correction: -0.034424
       DOS:  cpu time    0.0541: real time    0.0542
    CHARGE:  cpu time    0.8295: real time    0.8316
    MIXING:  cpu time    0.0037: real time    0.0037
    --------------------------------------------
      LOOP:  cpu time   23.8313: real time   23.8924

 eigenvalue-minimisations  : 13944
 total energy-change (2. order) : 0.1619912E-02  (-0.1117471E-01)
 number of electron     275.9999936 magnetization      43.9847131
 augmentation part      112.4101737 magnetization      30.4323973

 Broyden mixing:
  rms(total) = 0.46865E+00    rms(broyden)= 0.46865E+00
  rms(prec ) = 0.49200E+00
  weight for this iteration     100.00

 eigenvalues of (default mixing * dielectric matrix)
  average eigenvalue GAMMA=   1.3931
  3.4289  3.4289  0.3781  0.9294  0.9294  0.7250  0.7250  0.6001

 Free energy of the ion-electron system (eV)
  ---------------------------------------------------
  alpha Z        PSCENC =      1362.55286497
  Ewald energy   TEWEN  =    -25513.06237826
  -Hartree energ DENC   =     -9991.12794431
  -exchange      EXHF   =         0.00000000
  -V(xc)+E(xc)   XCENC  =      1358.78355059
  PAW double counting   =     36041.93660754   -37208.20384930
  entropy T*S    EENTRO =         0.00000000
  eigenvalues    EBANDS =     -3544.08148391
  atomic energy  EATOM  =     37271.80430989
  Solvation  Ediel_sol  =         0.00000000
  ---------------------------------------------------
  free energy    TOTEN  =      -221.39832279 eV

  energy without entropy =     -221.39832279  energy(sigma->0) =     -221.39832279


--------------------------------------------------------------------------------------------------------




--------------------------------------- Iteration      1(  14)  ---------------------------------------


    POTLOK:  cpu time    0.1271: real time    0.1275
    SETDIJ:  cpu time    0.0157: real time    0.0157
     EDDAV:  cpu time   23.9569: real time   24.0175
 BZINTS: Fermi energy:  6.171162;276.000000 electrons
         Band energy:***********;  BLOECHL correction: -0.032765
       DOS:  cpu time    0.0535: real time    0.0536
    CHARGE:  cpu time    0.8284: real time    0.8306
    MIXING:  cpu time    0.0037: real time    0.0037
    --------------------------------------------
      LOOP:  cpu time   24.9853: real time   25.0486

 eigenvalue-minimisations  : 15012
 total energy-change (2. order) :-0.4452933E-01  (-0.1534873E-01)
 number of electron     275.9999936 magnetization      43.0729161
 augmentation part      112.2253145 magnetization      29.9053186

 Broyden mixing:
  rms(total) = 0.18163E+00    rms(broyden)= 0.18163E+00
  rms(prec ) = 0.18927E+00
  weight for this iteration     100.00

 eigenvalues of (default mixing * dielectric matrix)
  average eigenvalue GAMMA=   1.5052
  5.3566  2.7792  1.2179  0.3781  0.8412  0.8412  0.8831  0.6248  0.6248

 Free energy of the ion-electron system (eV)
  ---------------------------------------------------
  alpha Z        PSCENC =      1362.55286497
  Ewald energy   TEWEN  =    -25513.06237826
  -Hartree energ DENC   =    -10003.82320317
  -exchange      EXHF   =         0.00000000
  -V(xc)+E(xc)   XCENC  =      1357.69069087
  PAW double counting   =     35841.03040778   -37004.26772887
  entropy T*S    EENTRO =         0.00000000
  eigenvalues    EBANDS =     -3533.36781532
  atomic energy  EATOM  =     37271.80430989
  Solvation  Ediel_sol  =         0.00000000
  ---------------------------------------------------
  free energy    TOTEN  =      -221.44285212 eV

  energy without entropy =     -221.44285212  energy(sigma->0) =     -221.44285212


--------------------------------------------------------------------------------------------------------




--------------------------------------- Iteration      1(  15)  ---------------------------------------


    POTLOK:  cpu time    0.1258: real time    0.1262
    SETDIJ:  cpu time    0.0158: real time    0.0158
     EDDAV:  cpu time   20.9584: real time   21.0113
 BZINTS: Fermi energy:  6.157222;276.000000 electrons
         Band energy:***********;  BLOECHL correction: -0.032955
       DOS:  cpu time    0.0538: real time    0.0540
    CHARGE:  cpu time    0.8170: real time    0.8191
    MIXING:  cpu time    0.0040: real time    0.0040
    --------------------------------------------
      LOOP:  cpu time   21.9749: real time   22.0304

 eigenvalue-minimisations  : 12648
 total energy-change (2. order) :-0.1799879E-01  (-0.6320695E-02)
 number of electron     275.9999936 magnetization      42.6361365
 augmentation part      112.2764699 magnetization      29.6419776

 Broyden mixing:
  rms(total) = 0.14362E+00    rms(broyden)= 0.14362E+00
  rms(prec ) = 0.15210E+00
  weight for this iteration     100.00

 eigenvalues of (default mixing * dielectric matrix)
  average eigenvalue GAMMA=   1.5463
  6.1213  2.8516  1.3610  1.0690  0.3781  0.8499  0.8499  0.6935  0.6935  0.5957

 Free energy of the ion-electron system (eV)
  ---------------------------------------------------
  alpha Z        PSCENC =      1362.55286497
  Ewald energy   TEWEN  =    -25513.06237826
  -Hartree energ DENC   =    -10002.52696445
  -exchange      EXHF   =         0.00000000
  -V(xc)+E(xc)   XCENC  =      1357.19787105
  PAW double counting   =     35827.70710690   -36990.57230370
  entropy T*S    EENTRO =         0.00000000
  eigenvalues    EBANDS =     -3534.56135730
  atomic energy  EATOM  =     37271.80430989
  Solvation  Ediel_sol  =         0.00000000
  ---------------------------------------------------
  free energy    TOTEN  =      -221.46085090 eV

  energy without entropy =     -221.46085090  energy(sigma->0) =     -221.46085090


--------------------------------------------------------------------------------------------------------




--------------------------------------- Iteration      1(  16)  ---------------------------------------


    POTLOK:  cpu time    0.1251: real time    0.1257
    SETDIJ:  cpu time    0.0158: real time    0.0158
     EDDAV:  cpu time   23.3602: real time   23.4193
 BZINTS: Fermi energy:  6.178518;276.000000 electrons
         Band energy:***********;  BLOECHL correction: -0.032838
       DOS:  cpu time    0.0532: real time    0.0534
    CHARGE:  cpu time    0.8363: real time    0.8385
    MIXING:  cpu time    0.0040: real time    0.0040
    --------------------------------------------
      LOOP:  cpu time   24.3946: real time   24.4566

 eigenvalue-minimisations  : 14364
 total energy-change (2. order) : 0.5061892E-02  (-0.9054468E-03)
 number of electron     275.9999937 magnetization      42.4934139
 augmentation part      112.1859534 magnetization      29.4996171

 Broyden mixing:
  rms(total) = 0.37945E-01    rms(broyden)= 0.37945E-01
  rms(prec ) = 0.39676E-01
  weight for this iteration     100.00

 eigenvalues of (default mixing * dielectric matrix)
  average eigenvalue GAMMA=   1.5369
  6.3104  2.7853  1.3205  1.3205  1.1093  0.3781  0.8107  0.8107  0.7259  0.7259
  0.6092

 Free energy of the ion-electron system (eV)
  ---------------------------------------------------
  alpha Z        PSCENC =      1362.55286497
  Ewald energy   TEWEN  =    -25513.06237826
  -Hartree energ DENC   =    -10007.18178814
  -exchange      EXHF   =         0.00000000
  -V(xc)+E(xc)   XCENC  =      1357.08736677
  PAW double counting   =     35785.67186129   -36948.43626079
  entropy T*S    EENTRO =         0.00000000
  eigenvalues    EBANDS =     -3529.89176473
  atomic energy  EATOM  =     37271.80430989
  Solvation  Ediel_sol  =         0.00000000
  ---------------------------------------------------
  free energy    TOTEN  =      -221.45578901 eV

  energy without entropy =     -221.45578901  energy(sigma->0) =     -221.45578901


--------------------------------------------------------------------------------------------------------




--------------------------------------- Iteration      1(  17)  ---------------------------------------


    POTLOK:  cpu time    0.1215: real time    0.1219
    SETDIJ:  cpu time    0.0154: real time    0.0155
     EDDAV:  cpu time   20.6682: real time   20.7204
 BZINTS: Fermi energy:  6.179753;276.000000 electrons
         Band energy:***********;  BLOECHL correction: -0.032784
       DOS:  cpu time    0.0539: real time    0.0540
    CHARGE:  cpu time    0.8294: real time    0.8315
    MIXING:  cpu time    0.0042: real time    0.0042
    --------------------------------------------
      LOOP:  cpu time   21.6926: real time   21.7475

 eigenvalue-minimisations  : 12444
 total energy-change (2. order) :-0.6295105E-03  (-0.4794914E-03)
 number of electron     275.9999937 magnetization      42.3943345
 augmentation part      112.1807175 magnetization      29.4142555

 Broyden mixing:
  rms(total) = 0.19271E-01    rms(broyden)= 0.19271E-01
  rms(prec ) = 0.19867E-01
  weight for this iteration     100.00

 eigenvalues of (default mixing * dielectric matrix)
  average eigenvalue GAMMA=   1.5613
  6.5175  2.7664  2.4491  1.0714  1.0714  0.3781  0.8913  0.8913  0.7206  0.7206
  0.6043  0.6531

 Free energy of the ion-electron system (eV)
  ---------------------------------------------------
  alpha Z        PSCENC =      1362.55286497
  Ewald energy   TEWEN  =    -25513.06237826
  -Hartree energ DENC   =    -10006.92348966
  -exchange      EXHF   =         0.00000000
  -V(xc)+E(xc)   XCENC  =      1357.01892706
  PAW double counting   =     35805.26615205   -36968.58430454
  entropy T*S    EENTRO =         0.00000000
  eigenvalues    EBANDS =     -3529.52850003
  atomic energy  EATOM  =     37271.80430989
  Solvation  Ediel_sol  =         0.00000000
  ---------------------------------------------------
  free energy    TOTEN  =      -221.45641852 eV

  energy without entropy =     -221.45641852  energy(sigma->0) =     -221.45641852


--------------------------------------------------------------------------------------------------------




--------------------------------------- Iteration      1(  18)  ---------------------------------------


    POTLOK:  cpu time    0.1263: real time    0.1267
    SETDIJ:  cpu time    0.0158: real time    0.0158
     EDDAV:  cpu time   22.7200: real time   22.7772
 BZINTS: Fermi energy:  6.180159;276.000000 electrons
         Band energy:***********;  BLOECHL correction: -0.032910
       DOS:  cpu time    0.0506: real time    0.0508
    CHARGE:  cpu time    0.8166: real time    0.8187
    MIXING:  cpu time    0.0045: real time    0.0045
    --------------------------------------------
      LOOP:  cpu time   23.7339: real time   23.7937

 eigenvalue-minimisations  : 14112
 total energy-change (2. order) :-0.2391146E-03  (-0.2516495E-04)
 number of electron     275.9999937 magnetization      42.3426247
 augmentation part      112.1760117 magnetization      29.3805712

 Broyden mixing:
  rms(total) = 0.86733E-02    rms(broyden)= 0.86731E-02
  rms(prec ) = 0.90269E-02
  weight for this iteration     100.00

 eigenvalues of (default mixing * dielectric matrix)
  average eigenvalue GAMMA=   1.5334
  6.6519  2.8443  2.4459  1.1472  1.1472  0.9594  0.9594  0.3781  0.7427  0.7427
  0.6879  0.6135  0.6135

 Free energy of the ion-electron system (eV)
  ---------------------------------------------------
  alpha Z        PSCENC =      1362.55286497
  Ewald energy   TEWEN  =    -25513.06237826
  -Hartree energ DENC   =    -10007.20476368
  -exchange      EXHF   =         0.00000000
  -V(xc)+E(xc)   XCENC  =      1356.96919613
  PAW double counting   =     35803.36736120   -36966.73168569
  entropy T*S    EENTRO =         0.00000000
  eigenvalues    EBANDS =     -3529.15156219
  atomic energy  EATOM  =     37271.80430989
  Solvation  Ediel_sol  =         0.00000000
  ---------------------------------------------------
  free energy    TOTEN  =      -221.45665764 eV

  energy without entropy =     -221.45665764  energy(sigma->0) =     -221.45665764


--------------------------------------------------------------------------------------------------------




--------------------------------------- Iteration      1(  19)  ---------------------------------------


    POTLOK:  cpu time    0.1249: real time    0.1257
    SETDIJ:  cpu time    0.0153: real time    0.0153
     EDDAV:  cpu time   22.0232: real time   22.0790
 BZINTS: Fermi energy:  6.181147;276.000000 electrons
         Band energy:***********;  BLOECHL correction: -0.032969
       DOS:  cpu time    0.0507: real time    0.0508
    CHARGE:  cpu time    0.7916: real time    0.7935
    MIXING:  cpu time    0.0043: real time    0.0043
    --------------------------------------------
      LOOP:  cpu time   23.0101: real time   23.0687

 eigenvalue-minimisations  : 13632
 total energy-change (2. order) :-0.5653305E-04  (-0.1003819E-04)
 number of electron     275.9999937 magnetization      42.3347733
 augmentation part      112.1716958 magnetization      29.3810865

 Broyden mixing:
  rms(total) = 0.17038E-02    rms(broyden)= 0.17035E-02
  rms(prec ) = 0.18156E-02
  weight for this iteration     100.00

 eigenvalues of (default mixing * dielectric matrix)
  average eigenvalue GAMMA=   1.5144
  6.7127  2.8512  2.4286  1.2969  1.2969  0.9870  0.9870  0.3781  0.7758  0.7758
  0.7411  0.7411  0.6150  0.6150

 Free energy of the ion-electron system (eV)
  ---------------------------------------------------
  alpha Z        PSCENC =      1362.55286497
  Ewald energy   TEWEN  =    -25513.06237826
  -Hartree energ DENC   =    -10007.55467550
  -exchange      EXHF   =         0.00000000
  -V(xc)+E(xc)   XCENC  =      1356.94892905
  PAW double counting   =     35798.83255696   -36962.14166030
  entropy T*S    EENTRO =         0.00000000
  eigenvalues    EBANDS =     -3528.83666098
  atomic energy  EATOM  =     37271.80430989
  Solvation  Ediel_sol  =         0.00000000
  ---------------------------------------------------
  free energy    TOTEN  =      -221.45671417 eV

  energy without entropy =     -221.45671417  energy(sigma->0) =     -221.45671417


--------------------------------------------------------------------------------------------------------




--------------------------------------- Iteration      1(  20)  ---------------------------------------


    POTLOK:  cpu time    0.1200: real time    0.1206
    SETDIJ:  cpu time    0.0152: real time    0.0153
     EDDAV:  cpu time   20.4989: real time   20.5504
 BZINTS: Fermi energy:  6.181491;276.000000 electrons
         Band energy:***********;  BLOECHL correction: -0.032976
       DOS:  cpu time    0.0470: real time    0.0471
    CHARGE:  cpu time    0.8149: real time    0.8170
    MIXING:  cpu time    0.0049: real time    0.0049
    --------------------------------------------
      LOOP:  cpu time   21.5008: real time   21.5552

 eigenvalue-minimisations  : 12492
 total energy-change (2. order) :-0.8712093E-05  (-0.2271489E-05)
 number of electron     275.9999937 magnetization      42.3312276
 augmentation part      112.1711031 magnetization      29.3789933

 Broyden mixing:
  rms(total) = 0.91764E-03    rms(broyden)= 0.91759E-03
  rms(prec ) = 0.93897E-03
  weight for this iteration     100.00

 eigenvalues of (default mixing * dielectric matrix)
  average eigenvalue GAMMA=   1.5127
  6.7450  2.9655  2.4083  1.8729  1.0838  1.0838  1.0083  1.0083  0.3781  0.7388
  0.7388  0.6047  0.7124  0.6706  0.6706

 Free energy of the ion-electron system (eV)
  ---------------------------------------------------
  alpha Z        PSCENC =      1362.55286497
  Ewald energy   TEWEN  =    -25513.06237826
  -Hartree energ DENC   =    -10007.63291095
  -exchange      EXHF   =         0.00000000
  -V(xc)+E(xc)   XCENC  =      1356.94596457
  PAW double counting   =     35798.78887272   -36962.10507701
  entropy T*S    EENTRO =         0.00000000
  eigenvalues    EBANDS =     -3528.74836881
  atomic energy  EATOM  =     37271.80430989
  Solvation  Ediel_sol  =         0.00000000
  ---------------------------------------------------
  free energy    TOTEN  =      -221.45672288 eV

  energy without entropy =     -221.45672288  energy(sigma->0) =     -221.45672288


--------------------------------------------------------------------------------------------------------




--------------------------------------- Iteration      1(  21)  ---------------------------------------


    POTLOK:  cpu time    0.1249: real time    0.1253
    SETDIJ:  cpu time    0.0153: real time    0.0153
     EDDAV:  cpu time   20.7998: real time   20.8528
 BZINTS: Fermi energy:  6.181874;276.000000 electrons
         Band energy:***********;  BLOECHL correction: -0.032974
       DOS:  cpu time    0.0507: real time    0.0508
    CHARGE:  cpu time    0.8123: real time    0.8144
    MIXING:  cpu time    0.0051: real time    0.0051
    --------------------------------------------
      LOOP:  cpu time   21.8081: real time   21.8638

 eigenvalue-minimisations  : 12660
 total energy-change (2. order) : 0.2151355E-05  (-0.2387806E-06)
 number of electron     275.9999937 magnetization      42.3331006
 augmentation part      112.1698402 magnetization      29.3806075

 Broyden mixing:
  rms(total) = 0.11191E-02    rms(broyden)= 0.11191E-02
  rms(prec ) = 0.11867E-02
  weight for this iteration     100.00

 eigenvalues of (default mixing * dielectric matrix)
  average eigenvalue GAMMA=   1.5044
  6.7461  3.0089  2.4479  2.1930  1.1931  1.1931  0.9929  0.9929  0.3781  0.7783
  0.7783  0.7329  0.7329  0.6163  0.6163  0.6689

 Free energy of the ion-electron system (eV)
  ---------------------------------------------------
  alpha Z        PSCENC =      1362.55286497
  Ewald energy   TEWEN  =    -25513.06237826
  -Hartree energ DENC   =    -10007.71008003
  -exchange      EXHF   =         0.00000000
  -V(xc)+E(xc)   XCENC  =      1356.94690858
  PAW double counting   =     35798.44160557   -36961.76785607
  entropy T*S    EENTRO =         0.00000000
  eigenvalues    EBANDS =     -3528.66209538
  atomic energy  EATOM  =     37271.80430989
  Solvation  Ediel_sol  =         0.00000000
  ---------------------------------------------------
  free energy    TOTEN  =      -221.45672073 eV

  energy without entropy =     -221.45672073  energy(sigma->0) =     -221.45672073


--------------------------------------------------------------------------------------------------------




--------------------------------------- Iteration      1(  22)  ---------------------------------------


    POTLOK:  cpu time    0.1247: real time    0.1252
    SETDIJ:  cpu time    0.0154: real time    0.0154
     EDDAV:  cpu time   18.3486: real time   18.3949
 BZINTS: Fermi energy:  6.181724;276.000000 electrons
         Band energy:***********;  BLOECHL correction: -0.032975
       DOS:  cpu time    0.0508: real time    0.0509
    CHARGE:  cpu time    0.8135: real time    0.8156
    MIXING:  cpu time    0.0050: real time    0.0051
    --------------------------------------------
      LOOP:  cpu time   19.3581: real time   19.4071

 eigenvalue-minimisations  : 10728
 total energy-change (2. order) :-0.1157001E-05  (-0.9676729E-07)
 number of electron     275.9999937 magnetization      42.3352343
 augmentation part      112.1704691 magnetization      29.3828184

 Broyden mixing:
  rms(total) = 0.51489E-03    rms(broyden)= 0.51489E-03
  rms(prec ) = 0.54557E-03
  weight for this iteration     100.00

 eigenvalues of (default mixing * dielectric matrix)
  average eigenvalue GAMMA=   1.4875
  6.7299  2.9787  2.6436  2.1383  1.3907  0.3781  1.0162  1.0162  1.0339  1.0339
  0.7498  0.7498  0.7825  0.7825  0.6087  0.6276  0.6276

 Free energy of the ion-electron system (eV)
  ---------------------------------------------------
  alpha Z        PSCENC =      1362.55286497
  Ewald energy   TEWEN  =    -25513.06237826
  -Hartree energ DENC   =    -10007.67646303
  -exchange      EXHF   =         0.00000000
  -V(xc)+E(xc)   XCENC  =      1356.94710734
  PAW double counting   =     35798.69867926   -36962.02743533
  entropy T*S    EENTRO =         0.00000000
  eigenvalues    EBANDS =     -3528.69340674
  atomic energy  EATOM  =     37271.80430989
  Solvation  Ediel_sol  =         0.00000000
  ---------------------------------------------------
  free energy    TOTEN  =      -221.45672189 eV

  energy without entropy =     -221.45672189  energy(sigma->0) =     -221.45672189


--------------------------------------------------------------------------------------------------------




--------------------------------------- Iteration      1(  23)  ---------------------------------------


    POTLOK:  cpu time    0.1240: real time    0.1244
    SETDIJ:  cpu time    0.0153: real time    0.0154
     EDDAV:  cpu time   17.1473: real time   17.1908
 BZINTS: Fermi energy:  6.181624;276.000000 electrons
         Band energy:***********;  BLOECHL correction: -0.032975
       DOS:  cpu time    0.0519: real time    0.0520
    CHARGE:  cpu time    0.8161: real time    0.8181
    MIXING:  cpu time    0.0053: real time    0.0053
    --------------------------------------------
      LOOP:  cpu time   18.1600: real time   18.2060

 eigenvalue-minimisations  :  9756
 total energy-change (2. order) :-0.1771987E-06  (-0.2967249E-07)
 number of electron     275.9999937 magnetization      42.3355556
 augmentation part      112.1708864 magnetization      29.3830307

 Broyden mixing:
  rms(total) = 0.64918E-04    rms(broyden)= 0.64911E-04
  rms(prec ) = 0.67181E-04
  weight for this iteration     100.00

 eigenvalues of (default mixing * dielectric matrix)
  average eigenvalue GAMMA=   1.4815
  6.7277  3.0129  2.6943  2.2659  1.3830  1.3830  1.0175  1.0175  0.3781  0.9613
  0.9613  0.7476  0.7476  0.7622  0.7164  0.6116  0.6519  0.6279

 Free energy of the ion-electron system (eV)
  ---------------------------------------------------
  alpha Z        PSCENC =      1362.55286497
  Ewald energy   TEWEN  =    -25513.06237826
  -Hartree energ DENC   =    -10007.65214676
  -exchange      EXHF   =         0.00000000
  -V(xc)+E(xc)   XCENC  =      1356.94768990
  PAW double counting   =     35798.89611810   -36962.22713564
  entropy T*S    EENTRO =         0.00000000
  eigenvalues    EBANDS =     -3528.71604428
  atomic energy  EATOM  =     37271.80430989
  Solvation  Ediel_sol  =         0.00000000
  ---------------------------------------------------
  free energy    TOTEN  =      -221.45672206 eV

  energy without entropy =     -221.45672206  energy(sigma->0) =     -221.45672206


--------------------------------------------------------------------------------------------------------




--------------------------------------- Iteration      1(  24)  ---------------------------------------


    POTLOK:  cpu time    0.1218: real time    0.1225
    SETDIJ:  cpu time    0.0152: real time    0.0152
     EDDAV:  cpu time   13.0738: real time   13.1066
 BZINTS: Fermi energy:  6.181631;276.000000 electrons
         Band energy:***********;  BLOECHL correction: -0.032975
       DOS:  cpu time    0.0519: real time    0.0521
    CHARGE:  cpu time    0.8077: real time    0.8097
    MIXING:  cpu time    0.0057: real time    0.0057
    --------------------------------------------
      LOOP:  cpu time   14.0761: real time   14.1118

 eigenvalue-minimisations  :  6528
 total energy-change (2. order) : 0.4141984E-06  (-0.9273916E-08)
 number of electron     275.9999937 magnetization      42.3355704
 augmentation part      112.1708300 magnetization      29.3829816

 Broyden mixing:
  rms(total) = 0.46164E-04    rms(broyden)= 0.46163E-04
  rms(prec ) = 0.47760E-04
  weight for this iteration     100.00

 eigenvalues of (default mixing * dielectric matrix)
[...]
  0.000  -0.002  -0.000  -0.000  -0.001  -0.000  -0.000  -0.000  -0.006   0.000   0.000   0.000  -0.000   0.009   0.000  -0.000
 total augmentation occupancy for first ion, spin component:           2
 -0.003   0.000   0.000  -0.010   0.000   0.000   0.002   0.001  -0.000   0.000   0.000  -0.003  -0.002   0.000  -0.000  -0.000
  0.000  -0.003  -0.000   0.000  -0.010  -0.000  -0.000  -0.000  -0.001  -0.000   0.000   0.000   0.000   0.002   0.000  -0.000
 -0.000  -0.000  -0.003  -0.000   0.000  -0.010   0.000  -0.000   0.000   0.001  -0.002  -0.000   0.000  -0.000  -0.002   0.003
 -0.010   0.000  -0.000   0.021   0.000   0.000  -0.085  -0.050  -0.000   0.002   0.013   0.049   0.032   0.000  -0.001  -0.008
  0.000  -0.010   0.000  -0.000   0.017  -0.000   0.000   0.000   0.076   0.000  -0.000  -0.000  -0.000  -0.043   0.000   0.000
  0.000   0.000  -0.010  -0.000   0.000   0.021   0.013  -0.002  -0.000  -0.050   0.085  -0.008   0.001   0.000   0.032  -0.049
  0.002  -0.000   0.000  -0.085   0.000   0.013   4.295   0.577   0.000  -0.179  -0.000  -2.428  -0.470  -0.000   0.166   0.002
  0.001  -0.000  -0.000  -0.050   0.000  -0.002   0.577   5.021   0.000   0.000  -0.179  -0.469  -3.025  -0.000   0.003   0.166
 -0.000  -0.001   0.000  -0.000   0.076  -0.000   0.000   0.000   4.387   0.000  -0.000   0.000  -0.000  -2.383  -0.000   0.000
  0.000  -0.000   0.001   0.002  -0.000  -0.050  -0.179   0.000   0.000   5.021  -0.577   0.166  -0.003  -0.000  -3.025   0.469
  0.000   0.000  -0.002   0.013  -0.000   0.085  -0.000  -0.179  -0.000  -0.577   4.295  -0.002   0.166   0.000   0.470  -2.428
 -0.003   0.000  -0.000   0.049   0.000  -0.008  -2.428  -0.469   0.000   0.166  -0.002   1.294   0.332   0.000  -0.129   0.000
 -0.002   0.000   0.000   0.032   0.000   0.001  -0.470  -3.025  -0.000  -0.003   0.166   0.332   1.751   0.000   0.000  -0.129
  0.000   0.002  -0.000   0.000  -0.043   0.000  -0.000  -0.000  -2.383  -0.000   0.000   0.000   0.000   1.231   0.000  -0.000
 -0.000  -0.000  -0.002  -0.001  -0.000   0.032   0.166   0.003  -0.000  -3.025   0.470  -0.129   0.000   0.000   1.751  -0.332
 -0.000  -0.000   0.003  -0.008   0.000  -0.049   0.002   0.166   0.000   0.469  -2.428  -0.000  -0.129  -0.000  -0.332   1.294
 -0.000   0.000   0.000   0.000   0.001   0.000  -0.000  -0.000   0.044   0.000  -0.000   0.000   0.000  -0.022   0.000   0.000
 -0.000   0.000  -0.000  -0.000   0.001   0.000   0.000   0.000   0.007  -0.000  -0.000  -0.000  -0.000  -0.005   0.000   0.000


------------------------ aborting loop because EDIFF is reached ----------------------------------------


 


 total charge     
 
# of ion       s       p       d       tot
------------------------------------------
    1        0.284   6.340   5.852  12.476
    2        0.284   6.340   5.854  12.478
    3        0.284   6.340   5.862  12.486
    4        0.284   6.340   5.852  12.475
    5        0.283   6.340   5.854  12.478
    6        0.284   6.340   5.865  12.489
    7        0.284   6.340   5.851  12.474
    8        0.284   6.340   5.853  12.477
    9        0.283   6.340   5.854  12.477
   10        0.283   6.340   5.868  12.492
   11        0.283   6.340   5.865  12.489
   12        0.283   6.340   5.857  12.480
   13        1.568   3.417   0.000   4.984
   14        1.568   3.416   0.000   4.984
   15        1.568   3.417   0.000   4.984
   16        1.568   3.417   0.000   4.985
   17        1.568   3.418   0.000   4.985
   18        1.568   3.417   0.000   4.984
   19        1.567   3.404   0.000   4.971
   20        1.567   3.404   0.000   4.970
   21        1.567   3.405   0.000   4.972
   22        1.567   3.405   0.000   4.972
   23        1.567   3.405   0.000   4.972
   24        1.567   3.405   0.000   4.972
   25        1.569   3.418   0.000   4.986
   26        1.569   3.417   0.000   4.986
   27        1.569   3.419   0.000   4.987
   28        1.569   3.420   0.000   4.988
   29        1.569   3.419   0.000   4.988
   30        1.569   3.419   0.000   4.988
--------------------------------------------------
tot         31.620 137.519  70.288 239.427
 


 magnetization (x)
 
# of ion       s       p       d       tot
------------------------------------------
    1        0.024   0.036   3.141   3.201
    2        0.024   0.036   3.138   3.198
    3        0.025   0.036   3.135   3.195
    4        0.025   0.036   3.140   3.201
    5        0.025   0.036   3.140   3.201
    6        0.025   0.036   3.132   3.193
    7        0.024   0.036   3.125   3.185
    8        0.024   0.036   3.122   3.183
    9        0.025   0.036   3.122   3.183
   10        0.025   0.036   3.116   3.177
   11        0.025   0.036   3.119   3.179
   12        0.025   0.036   3.123   3.183
   13        0.020   0.139   0.000   0.160
   14        0.020   0.139   0.000   0.159
   15        0.020   0.139   0.000   0.159
   16        0.020   0.140   0.000   0.160
   17        0.020   0.140   0.000   0.161
   18        0.020   0.139   0.000   0.160
   19        0.021   0.143   0.000   0.165
   20        0.021   0.143   0.000   0.164
   21        0.021   0.144   0.000   0.165
   22        0.021   0.144   0.000   0.165
   23        0.021   0.144   0.000   0.165
   24        0.021   0.144   0.000   0.166
   25        0.020   0.136   0.000   0.156
   26        0.020   0.135   0.000   0.155
   27        0.020   0.136   0.000   0.157
   28        0.020   0.137   0.000   0.158
   29        0.020   0.137   0.000   0.157
   30        0.020   0.137   0.000   0.157
--------------------------------------------------
tot          0.668   2.948  37.553  41.169
 
    CHARGE:  cpu time    0.8033: real time    0.8054
    FORLOC:  cpu time    0.0154: real time    0.0154
    FORNL :  cpu time    5.4829: real time    5.4969
    STRESS:  cpu time   16.0439: real time   16.0844
    FORCOR:  cpu time    0.1322: real time    0.1325
    FORHAR:  cpu time    0.0250: real time    0.0251
    MIXING:  cpu time    0.0061: real time    0.0061
    OFIELD:  cpu time    0.0001: real time    0.0001

  FORCE on cell =-STRESS in cart. coord.  units (eV):
  Direction    XX          YY          ZZ          XY          YZ          ZX
  --------------------------------------------------------------------------------------
  Alpha Z  1362.55286  1362.55286  1362.55286
  Ewald   -8201.75422 -8201.75360 -9109.63806     0.00000     0.00002    -0.00000
  Hartree  3503.88464  3503.88449  2999.87926    -0.00000     0.00001    -0.00000
  E(xc)   -1615.79713 -1615.79716 -1617.36122    -0.00003     0.00000    -0.00000
  Local    -165.36720  -165.36722  1230.47472    -0.00030    -0.00003     0.00000
  n-local  -743.08758  -741.97819  -744.55574    -4.16718     0.49351     0.11402
  augment  1844.64657  1844.64659  1846.56090     0.00028     0.00000    -0.00000
  Kinetic  4007.17809  4009.27436  4025.03699     7.65395    -1.98933    -5.04423
  Fock        0.00000     0.00000     0.00000     0.00000     0.00000     0.00000
  -------------------------------------------------------------------------------------
  Total      -6.14092    -6.14092    -7.05028     0.00000    -0.00000     0.00000
  in kB     -32.57158   -32.57157   -37.39482     0.00000    -0.00000     0.00000
  external pressure =      -34.18 kB  Pullay stress =        0.00 kB


 VOLUME and BASIS-vectors are now :
 -----------------------------------------------------------------------------
  energy-cutoff  :      780.00
  volume of cell :      302.07
      direct lattice vectors                 reciprocal lattice vectors
     5.035100000  0.000000000  0.000000000     0.198605787  0.114665118  0.000000000
    -2.517550000  4.360524000  0.000000000     0.000000000  0.229330236  0.000000000
     0.000000000  0.000000000 13.758100000     0.000000000  0.000000000  0.072684455

  length of vectors
     5.035100000  5.035099558 13.758100000     0.229330216  0.229330236  0.072684455


 FORCES acting on ions
    electron-ion (+dipol)            ewald-force                    non-local-force                 convergence-correction
 -----------------------------------------------------------------------------------------------
   0.156E-03 0.366E-03 -.126E+03   -.101E-02 0.523E-03 0.128E+03   0.867E-18 -.434E-17 -.289E+01   -.500E-08 0.301E-08 -.215E-04
   -.402E-03 0.580E-03 0.126E+03   0.101E-02 -.523E-03 -.128E+03   0.477E-17 0.260E-17 0.289E+01   0.713E-08 -.385E-08 0.215E-04
   -.135E-03 0.533E-03 -.126E+03   0.314E-02 -.187E-02 0.128E+03   0.520E-17 -.304E-17 -.289E+01   0.125E-06 -.724E-07 -.152E-04
   -.328E-03 0.645E-03 -.126E+03   -.220E-02 0.121E-02 0.128E+03   0.434E-17 -.304E-17 -.289E+01   -.117E-06 0.672E-07 -.131E-04
   0.816E-04 0.301E-03 0.126E+03   0.220E-02 -.121E-02 -.128E+03   -.434E-18 0.130E-17 0.289E+01   0.119E-06 -.681E-07 0.131E-04
   -.111E-03 0.412E-03 0.126E+03   -.314E-02 0.187E-02 -.128E+03   -.434E-17 -.130E-17 0.289E+01   -.123E-06 0.716E-07 0.152E-04
   0.566E-03 -.105E-02 0.126E+03   0.964E-03 -.523E-03 -.128E+03   -.130E-17 0.260E-17 0.289E+01   0.775E-08 -.479E-08 0.215E-04
   0.104E-02 -.127E-02 -.126E+03   -.964E-03 0.523E-03 0.128E+03   -.108E-17 0.867E-18 -.289E+01   -.447E-08 0.193E-08 -.215E-04
   0.105E-02 -.133E-02 0.126E+03   0.215E-02 -.121E-02 -.128E+03   -.651E-17 0.347E-17 0.289E+01   0.119E-06 -.697E-07 0.131E-04
   0.750E-03 -.110E-02 -.126E+03   0.319E-02 -.187E-02 0.128E+03   0.932E-17 0.000E+00 -.289E+01   0.126E-06 -.728E-07 -.152E-04
   0.856E-03 -.121E-02 0.126E+03   -.319E-02 0.187E-02 -.128E+03   0.282E-17 0.347E-17 0.289E+01   -.122E-06 0.699E-07 0.152E-04
   0.557E-03 -.989E-03 -.126E+03   -.215E-02 0.121E-02 0.128E+03   -.130E-17 0.000E+00 -.289E+01   -.116E-06 0.668E-07 -.131E-04
   -.424E+02 -.134E-02 0.216E-03   0.418E+02 0.106E-02 -.470E-03   0.692E+00 -.389E-17 -.824E-17   -.227E-04 0.290E-07 -.271E-08
   0.424E+02 -.868E-04 -.337E-03   -.418E+02 -.106E-02 0.470E-03   -.692E+00 -.813E-18 0.105E-16   0.227E-04 -.310E-07 0.123E-08
   -.424E+02 -.320E-02 -.585E-02   0.418E+02 0.570E-03 -.997E-03   0.692E+00 0.759E-18 0.325E-17   -.227E-04 -.241E-07 -.188E-05
   -.424E+02 0.240E-02 0.545E-02   0.418E+02 -.163E-02 0.147E-02   0.692E+00 -.304E-17 0.173E-17   -.226E-04 -.795E-08 0.188E-05
   0.424E+02 -.382E-02 -.557E-02   -.418E+02 0.163E-02 -.147E-02   -.692E+00 -.297E-17 -.217E-18   0.226E-04 0.595E-08 -.188E-05
   0.424E+02 0.177E-02 0.573E-02   -.418E+02 -.570E-03 0.997E-03   -.692E+00 0.922E-18 0.423E-17   0.226E-04 0.221E-07 0.188E-05
   0.212E+02 -.367E+02 -.308E-03   -.209E+02 0.362E+02 0.438E-03   -.346E+00 0.599E+00 0.867E-18   0.114E-04 -.196E-04 0.120E-08
   -.212E+02 0.367E+02 0.195E-03   0.209E+02 -.362E+02 -.438E-03   0.346E+00 -.599E+00 -.434E-17   -.114E-04 0.196E-04 -.267E-08
   0.212E+02 -.367E+02 -.554E-02   -.209E+02 0.362E+02 -.150E-02   -.346E+00 0.599E+00 0.867E-18   0.113E-04 -.196E-04 -.188E-05
   0.212E+02 -.367E+02 0.576E-02   -.209E+02 0.362E+02 0.964E-03   -.346E+00 0.599E+00 0.694E-17   0.113E-04 -.196E-04 0.188E-05
   -.212E+02 0.367E+02 -.587E-02   0.209E+02 -.362E+02 -.964E-03   0.346E+00 -.599E+00 -.781E-17   -.113E-04 0.196E-04 -.188E-05
   -.212E+02 0.367E+02 0.543E-02   0.209E+02 -.362E+02 0.150E-02   0.346E+00 -.599E+00 -.520E-17   -.113E-04 0.196E-04 0.188E-05
   0.212E+02 0.367E+02 0.939E-04   -.209E+02 -.362E+02 0.322E-04   -.346E+00 -.599E+00 -.520E-17   0.113E-04 0.196E-04 0.148E-08
   -.212E+02 -.367E+02 0.144E-03   0.209E+02 0.362E+02 -.322E-04   0.346E+00 0.599E+00 -.434E-18   -.113E-04 -.196E-04 0.142E-08
   0.212E+02 0.367E+02 -.409E-02   -.209E+02 -.362E+02 -.303E-02   -.346E+00 -.599E+00 0.867E-18   0.114E-04 0.196E-04 -.188E-05
   -.212E+02 -.367E+02 -.404E-02   0.209E+02 0.362E+02 -.310E-02   0.346E+00 0.599E+00 0.260E-17   -.113E-04 -.196E-04 -.188E-05
   0.212E+02 0.367E+02 0.428E-02   -.209E+02 -.362E+02 0.310E-02   -.346E+00 -.599E+00 0.000E+00   0.113E-04 0.196E-04 0.189E-05
   -.212E+02 -.367E+02 0.433E-02   0.209E+02 0.362E+02 0.303E-02   0.346E+00 0.599E+00 0.997E-17   -.114E-04 -.196E-04 0.189E-05
 -----------------------------------------------------------------------------------------------
   0.150E-01 -.165E-01 -.111E-04   -.995E-13 -.995E-13 -.192E-12   -.111E-15 -.444E-15 0.454E-15   0.250E-07 -.190E-07 -.241E-09
 
 
 POSITION                                       TOTAL-FORCE (eV/Angst)
 -----------------------------------------------------------------------------------
      0.00000      0.00000      4.88853         0.000000      0.000000     -0.927767
      0.00000      0.00000      8.86957        -0.000000      0.000000      0.927767
     -0.00000      2.90702      0.30250         0.000000      0.000000     -0.927767
      2.51755      1.45351      9.47456         0.000000      0.000000     -0.927767
     -0.00000      2.90702      4.28354        -0.000000      0.000000      0.927767
      2.51755      1.45351     13.45560        -0.000000      0.000000      0.927767
      0.00000      0.00000      1.99052        -0.000000      0.000000      0.927767
      0.00000      0.00000     11.76758         0.000000      0.000000     -0.927767
     -0.00000      2.90702     11.16259        -0.000000      0.000000      0.927767
     -0.00000      2.90702      7.18155         0.000000      0.000000     -0.927767
      2.51755      1.45351      6.57655        -0.000000      0.000000      0.927767
      2.51755      1.45351      2.59551         0.000000      0.000000     -0.927767
      1.54165      0.00000      3.43953         0.100313      0.000000      0.000000
      3.49345      0.00000     10.31858        -0.100313      0.000000      0.000000
      1.54164      2.90702     12.61160         0.100313      0.000000      0.000000
      4.05920      1.45351      8.02555         0.100313      0.000000     -0.000000
     -1.54165      2.90702      5.73255        -0.100313      0.000000      0.000000
      0.97591      1.45351      1.14650        -0.100313      0.000000     -0.000000
     -0.77082      1.33511      3.43953        -0.050156      0.086874      0.000000
     -1.74673      3.02542     10.31858         0.050156     -0.086874      0.000000
     -0.77083      4.24212     12.61160        -0.050156      0.086874      0.000000
      1.74673      2.78861      8.02555        -0.050156      0.086874     -0.000000
      0.77082      1.57191      5.73255         0.050156     -0.086874      0.000000
      3.28838      0.11840      1.14650         0.050156     -0.086874      0.000000
      1.74673      3.02542      3.43953        -0.050156     -0.086874      0.000000
      0.77082      1.33511     10.31858         0.050156      0.086874      0.000000
     -0.77083      1.57191     12.61160        -0.050156     -0.086874      0.000000
      0.77082      4.24212      5.73255         0.050156      0.086874      0.000000
      1.74673      0.11840      8.02555        -0.050156     -0.086874     -0.000000
      3.28838      2.78861      1.14650         0.050156      0.086874      0.000000
 -----------------------------------------------------------------------------------
    total drift:                                0.014993     -0.016534     -0.000011


--------------------------------------------------------------------------------------------------------



  FREE ENERGIE OF THE ION-ELECTRON SYSTEM (eV)
  ---------------------------------------------------
  free  energy   TOTEN  =      -221.45672145 eV

  energy  without entropy=     -221.45672145  energy(sigma->0) =     -221.45672145
 


--------------------------------------------------------------------------------------------------------


    POTLOK:  cpu time    0.1359: real time    0.1368


--------------------------------------------------------------------------------------------------------


     LOOP+:  cpu time  576.1139: real time  577.6051
    4ORBIT:  cpu time    0.0000: real time    0.0000
 


 total charge     
 
# of ion       s       p       d       tot
------------------------------------------
    1        0.284   6.340   5.852  12.476
    2        0.284   6.340   5.854  12.478
    3        0.284   6.340   5.862  12.486
    4        0.284   6.340   5.852  12.475
    5        0.283   6.340   5.854  12.478
    6        0.284   6.340   5.865  12.489
    7        0.284   6.340   5.851  12.474
    8        0.284   6.340   5.853  12.477
    9        0.283   6.340   5.854  12.477
   10        0.283   6.340   5.868  12.492
   11        0.283   6.340   5.865  12.489
   12        0.283   6.340   5.857  12.480
   13        1.568   3.417   0.000   4.984
   14        1.568   3.416   0.000   4.984
   15        1.568   3.417   0.000   4.984
   16        1.568   3.417   0.000   4.985
   17        1.568   3.418   0.000   4.985
   18        1.568   3.417   0.000   4.984
   19        1.567   3.404   0.000   4.971
   20        1.567   3.404   0.000   4.970
   21        1.567   3.405   0.000   4.972
   22        1.567   3.405   0.000   4.972
   23        1.567   3.405   0.000   4.972
   24        1.567   3.405   0.000   4.972
   25        1.569   3.418   0.000   4.986
   26        1.569   3.417   0.000   4.986
   27        1.569   3.419   0.000   4.987
   28        1.569   3.420   0.000   4.988
   29        1.569   3.419   0.000   4.988
   30        1.569   3.419   0.000   4.988
--------------------------------------------------
tot         31.620 137.519  70.288 239.427
 


 magnetization (x)
 
# of ion       s       p       d       tot
------------------------------------------
    1        0.024   0.036   3.141   3.201
    2        0.024   0.036   3.138   3.198
    3        0.025   0.036   3.135   3.195
    4        0.025   0.036   3.140   3.201
    5        0.025   0.036   3.140   3.201
    6        0.025   0.036   3.132   3.193
    7        0.024   0.036   3.125   3.185
    8        0.024   0.036   3.122   3.183
    9        0.025   0.036   3.122   3.183
   10        0.025   0.036   3.116   3.177
   11        0.025   0.036   3.119   3.179
   12        0.025   0.036   3.123   3.183
   13        0.020   0.139   0.000   0.160
   14        0.020   0.139   0.000   0.159
   15        0.020   0.139   0.000   0.159
   16        0.020   0.140   0.000   0.160
   17        0.020   0.140   0.000   0.161
   18        0.020   0.139   0.000   0.160
   19        0.021   0.143   0.000   0.165
   20        0.021   0.143   0.000   0.164
   21        0.021   0.144   0.000   0.165
   22        0.021   0.144   0.000   0.165
   23        0.021   0.144   0.000   0.165
   24        0.021   0.144   0.000   0.166
   25        0.020   0.136   0.000   0.156
   26        0.020   0.135   0.000   0.155
   27        0.020   0.136   0.000   0.157
   28        0.020   0.137   0.000   0.158
   29        0.020   0.137   0.000   0.157
   30        0.020   0.137   0.000   0.157
--------------------------------------------------
tot          0.668   2.948  37.553  41.169
 
 BZINTS: Fermi energy:  6.181621;276.000000 electrons
         Band energy:***********;  BLOECHL correction: -0.032975

 total amount of memory used by VASP MPI-rank0   116926. kBytes
=======================================================================

   base      :      30000. kBytes
   nonlr-proj:       9251. kBytes
   fftplans  :       5413. kBytes
   grid      :      13615. kBytes
   one-center:        248. kBytes
   wavefun   :      58399. kBytes
 
  
  
 General timing and accounting informations for this job:
 ========================================================
  
                  Total CPU time used (sec):      586.310
                            User time (sec):      584.642
                          System time (sec):        1.668
                         Elapsed time (sec):      587.997
  
                   Maximum memory used (kb):      167388.
                   Average memory used (kb):           0.
  
                          Minor page faults:       103182
                          Major page faults:            0
                 Voluntary context switches:          295
