       N       E                     dE             d eps       ncg     rms          rms(c)
DAV:   1     0.501257921106E+02    0.50126E+02   -0.54441E+03  5826   0.798E+02
DAV:   2    -0.130183975977E+02   -0.63144E+02   -0.57176E+02  5542   0.169E+02
DAV:   3    -0.147831577233E+02   -0.17648E+01   -0.17385E+01  6232   0.343E+01
DAV:   4    -0.148065775245E+02   -0.23420E-01   -0.23413E-01  6792   0.344E+00
DAV:   5    -0.148071139315E+02   -0.53641E-03   -0.53639E-03  6344   0.469E-01
DAV:   6    -0.148071432421E+02   -0.29311E-04   -0.29310E-04  7140   0.848E-02
DAV:   7    -0.148071434892E+02   -0.24714E-06   -0.24773E-06  4994   0.634E-03
   1 F= -.14807143E+02 E0= -.14788229E+02  d E =-.378298E-01  mag=     3.2116
