       N       E                     dE             d eps       ncg     rms          rms(c)
DAV:   1     0.131501369696E+04    0.13150E+04   -0.32153E+04 57968   0.370E+03
DAV:   2     0.354401215077E+03   -0.96061E+03   -0.86906E+03 66312   0.739E+02
DAV:   3    -0.519918472940E+01   -0.35960E+03   -0.34850E+03 76008   0.373E+02
DAV:   4    -0.750074495221E+02   -0.69808E+02   -0.68086E+02 93344   0.153E+02
DAV:   5    -0.816379419894E+02   -0.66305E+01   -0.61891E+01 95120   0.514E+01    0.372E+01
DAV:   6    -0.713865511974E+02    0.10251E+02   -0.29914E+02 73880   0.161E+02    0.502E+01
DAV:   7    -0.756342012513E+02   -0.42477E+01   -0.15529E+02 70240   0.149E+02    0.242E+01
DAV:   8    -0.825688393205E+02   -0.69346E+01   -0.34523E+01 87880   0.412E+01    0.107E+01
DAV:   9    -0.831245792889E+02   -0.55574E+00   -0.10138E+01 82320   0.251E+01    0.770E+00
DAV:  10    -0.833324907198E+02   -0.20791E+00   -0.17593E+00 90744   0.118E+01    0.788E+00
DAV:  11    -0.832051441818E+02    0.12735E+00   -0.56875E-01 83144   0.807E+00    0.423E+00
DAV:  12    -0.833009516347E+02   -0.95807E-01   -0.58149E-01 82568   0.619E+00    0.157E+00
DAV:  13    -0.833391036966E+02   -0.38152E-01   -0.10794E-01 89912   0.281E+00    0.124E+00
DAV:  14    -0.833661617915E+02   -0.27058E-01   -0.11368E-01 85136   0.208E+00    0.110E+00
DAV:  15    -0.833638293161E+02    0.23325E-02   -0.14469E-02 92760   0.127E+00    0.457E-01
DAV:  16    -0.833633802569E+02    0.44906E-03   -0.61093E-03 91416   0.581E-01    0.143E-01
DAV:  17    -0.833637131966E+02   -0.33294E-03   -0.19338E-03 86384   0.293E-01    0.647E-02
DAV:  18    -0.833637798893E+02   -0.66693E-04   -0.33838E-04 94104   0.147E-01    0.114E-01
DAV:  19    -0.833637443619E+02    0.35527E-04   -0.81733E-05 94776   0.992E-02    0.193E-02
DAV:  20    -0.833637501422E+02   -0.57803E-05   -0.31280E-05 95656   0.560E-02    0.157E-02
DAV:  21    -0.833637504643E+02   -0.32210E-06   -0.66698E-06 94240   0.271E-02    0.129E-02
DAV:  22    -0.833637504564E+02    0.79854E-08   -0.34433E-06 81720   0.257E-02    0.132E-02
DAV:  23    -0.833637500224E+02    0.43394E-06   -0.27502E-06 67504   0.195E-02    0.628E-03
DAV:  24    -0.833637501907E+02   -0.16828E-06   -0.28696E-06 48184   0.153E-02    0.691E-03
DAV:  25    -0.833637502334E+02   -0.42701E-07   -0.26466E-06 40056   0.110E-02    0.977E-03
DAV:  26    -0.833637501221E+02    0.11128E-06   -0.17416E-06 36104   0.103E-02    0.120E-02
DAV:  27    -0.833637499998E+02    0.12233E-06   -0.27460E-06 38688   0.109E-02    0.118E-02
DAV:  28    -0.833637495811E+02    0.41867E-06   -0.65223E-07 38088   0.115E-02    0.116E-02
DAV:  29    -0.833637491191E+02    0.46201E-06   -0.15495E-07 36720   0.899E-03    0.103E-02
DAV:  30    -0.833637489883E+02    0.13081E-06   -0.14644E-07 37000   0.650E-03    0.908E-03
DAV:  31    -0.833637489770E+02    0.11318E-07   -0.99916E-08 34888   0.567E-03
   1 F= -.83363749E+02 E0= -.83363749E+02  d E =0.000000E+00  mag=    -0.0000
