=========================================
SLURM_JOB_ID = 31883055
SLURM_JOB_NODELIST = lnode31
SLURM_GPUS = 
SLURM_CPUS_ON_NODE = 8
SLURM_JOB_PARTITION = lenovo
SLURM_TASK_PID = 2317101
CUDA_VISIBLE_DEVICES = 
==========================================
 running on    8 total cores
 distrk:  each k-point on    8 cores,    1 groups
 distr:  one band on    8 cores,    1 groups
 using from now: INCAR     
 vasp.5.4.4.18Apr17-6-g9f103f2a35 (build Apr 28 2018 00:24:27) complex          
  
 POSCAR found type information on POSCAR  Mn Bi
 POSCAR found :  2 types and      12 ions
 scaLAPACK will be used

 ----------------------------------------------------------------------------- 
|                                                                             |
|           W    W    AA    RRRRR   N    N  II  N    N   GGGG   !!!           |
|           W    W   A  A   R    R  NN   N  II  NN   N  G    G  !!!           |
|           W    W  A    A  R    R  N N  N  II  N N  N  G       !!!           |
|           W WW W  AAAAAA  RRRRR   N  N N  II  N  N N  G  GGG   !            |
|           WW  WW  A    A  R   R   N   NN  II  N   NN  G    G                |
|           W    W  A    A  R    R  N    N  II  N    N   GGGG   !!!           |
|                                                                             |
|      For optimal performance we recommend to set                            |
|        NCORE= 4 - approx SQRT( number of cores)                             |
|      NCORE specifies how many cores store one orbital (NPAR=cpu/NCORE).     |
|      This setting can  greatly improve the performance of VASP for DFT.     |
|      The default,   NCORE=1            might be grossly inefficient         |
|      on modern multi-core architectures or massively parallel machines.     |
|      Do your own testing !!!!                                               |
|      Unfortunately you need to use the default for GW and RPA calculations. |
|      (for HF NCORE is supported but not extensively tested yet)             |
|                                                                             |
 ----------------------------------------------------------------------------- 

 LDA part: xc-table for Pade appr. of Perdew
 generate k-points for:    3    2    2
 POSCAR, INCAR and KPOINTS ok, starting setup
 FFT: planning ...
 WAVECAR not read
 entering main loop
       N       E                     dE             d eps       ncg     rms          rms(c)
DAV:   1     0.552298125880E+03    0.55230E+03   -0.23712E+04  1376   0.140E+03
DAV:   2     0.214848336211E+02   -0.53081E+03   -0.51965E+03  1376   0.395E+02
DAV:   3    -0.651900075548E+02   -0.86675E+02   -0.83233E+02  2277   0.151E+02
DAV:   4    -0.742441205344E+02   -0.90541E+01   -0.88211E+01  2416   0.614E+01
DAV:   5    -0.748918490898E+02   -0.64773E+00   -0.63386E+00  2280   0.162E+01    0.235E+01
DAV:   6    -0.851435015977E+02   -0.10252E+02   -0.27549E+02  2549   0.156E+02    0.551E+01
DAV:   7    -0.679945611608E+02    0.17149E+02   -0.99226E+01  2360   0.821E+01    0.994E+00
DAV:   8    -0.689530925790E+02   -0.95853E+00   -0.17443E+01  2680   0.399E+01    0.886E+00
DAV:   9    -0.688447146480E+02    0.10838E+00   -0.71301E+00  2544   0.325E+01    0.581E+00
DAV:  10    -0.686434551360E+02    0.20126E+00   -0.14833E+00  2536   0.156E+01    0.235E+00
DAV:  11    -0.686820060736E+02   -0.38551E-01   -0.56342E-01  2560   0.855E+00    0.207E+00
DAV:  12    -0.686868888804E+02   -0.48828E-02   -0.14892E-01  2456   0.517E+00    0.124E+00
DAV:  13    -0.686856208519E+02    0.12680E-02   -0.54970E-02  2440   0.356E+00    0.563E-01
DAV:  14    -0.686866619457E+02   -0.10411E-02   -0.22116E-02  2408   0.178E+00    0.438E-01
DAV:  15    -0.686863151809E+02    0.34676E-03   -0.72144E-03  2392   0.132E+00    0.204E-01
DAV:  16    -0.686863856008E+02   -0.70420E-04   -0.28223E-03  2456   0.674E-01    0.130E-01
DAV:  17    -0.686863336124E+02    0.51988E-04   -0.96910E-04  2432   0.405E-01    0.589E-02
DAV:  18    -0.686863383577E+02   -0.47453E-05   -0.30443E-04  2432   0.249E-01    0.314E-02
DAV:  19    -0.686863437704E+02   -0.54127E-05   -0.80698E-05  2405   0.112E-01    0.247E-02
DAV:  20    -0.686863435023E+02    0.26814E-06   -0.35319E-05  2368   0.955E-02    0.101E-02
DAV:  21    -0.686863460981E+02   -0.25958E-05   -0.10445E-05  2034   0.373E-02    0.574E-03
DAV:  22    -0.686863472459E+02   -0.11479E-05   -0.25433E-06  1240   0.218E-02    0.297E-03
DAV:  23    -0.686863475605E+02   -0.31456E-06   -0.13049E-06  1160   0.132E-02
   1 F= -.68686348E+02 E0= -.68688453E+02  d E =0.631720E-02  mag=     0.0003
