 vasp.5.4.4.18Apr17-6-g9f103f2a35 (build Apr 28 2018 00:24:27) complex          
  
 executed on             LinuxIFC date 2021.03.25  02:01:04
 running on    8 total cores
 distrk:  each k-point on    8 cores,    1 groups
 distr:  one band on NCORES_PER_BAND=   8 cores,    1 groups


--------------------------------------------------------------------------------------------------------


 INCAR:
 POTCAR:    PAW_PBE Mn 06Sep2000                  
 POTCAR:    PAW_PBE Bi 08Apr2002                  

 ----------------------------------------------------------------------------- 
|                                                                             |
|           W    W    AA    RRRRR   N    N  II  N    N   GGGG   !!!           |
|           W    W   A  A   R    R  NN   N  II  NN   N  G    G  !!!           |
|           W    W  A    A  R    R  N N  N  II  N N  N  G       !!!           |
|           W WW W  AAAAAA  RRRRR   N  N N  II  N  N N  G  GGG   !            |
|           WW  WW  A    A  R   R   N   NN  II  N   NN  G    G                |
|           W    W  A    A  R    R  N    N  II  N    N   GGGG   !!!           |
|                                                                             |
|      For optimal performance we recommend to set                            |
|        NCORE= 4 - approx SQRT( number of cores)                             |
|      NCORE specifies how many cores store one orbital (NPAR=cpu/NCORE).     |
|      This setting can  greatly improve the performance of VASP for DFT.     |
|      The default,   NCORE=1            might be grossly inefficient         |
|      on modern multi-core architectures or massively parallel machines.     |
|      Do your own testing !!!!                                               |
|      Unfortunately you need to use the default for GW and RPA calculations. |
|      (for HF NCORE is supported but not extensively tested yet)             |
|                                                                             |
 ----------------------------------------------------------------------------- 

 POTCAR:    PAW_PBE Mn 06Sep2000                  
   SHA256 =  791c87526310ff945dc83749a51ee60ee299d345ff72743aeb14609b9ed68bfc Mn
   COPYR  = (c) Copyright 06Sep2000 Georg Kresse                                
   COPYR  = This file is part of the software VASP. Any use, copying, and all ot
   COPYR  = If you do not have a valid VASP license, you may not use, copy or di
   VRHFIN =Mn: d6 s1                                                            
   LEXCH  = PE                                                                  
   EATOM  =   416.7541 eV,   30.6306 Ry                                         
                                                                                
   TITEL  = PAW_PBE Mn 06Sep2000                                                
   LULTRA =        F    use ultrasoft PP ?                                      
   IUNSCR =        1    unscreen: 0-lin 1-nonlin 2-no                           
   RPACOR =    2.000    partial core radius                                     
   POMASS =   54.938; ZVAL   =    7.000    mass and valenz                      
   RCORE  =    2.300    outmost cutoff radius                                   
   RWIGS  =    2.500; RWIGS  =    1.323    wigner-seitz radius (au A)           
   ENMAX  =  269.864; ENMIN  =  202.398 eV                                      
   RCLOC  =    1.725    cutoff for local pot                                    
   LCOR   =        T    correct aug charges                                     
   LPAW   =        T    paw PP                                                  
   EAUG   =  500.711                                                            
   DEXC   =    0.000                                                            
   RMAX   =    2.343    core radius for proj-oper                               
   RAUG   =    1.300    factor for augmentation sphere                          
   RDEP   =    2.338    radius for radial grids                                 
   RDEPT  =    1.911    core radius for aug-charge                              
                                                                                
   Atomic configuration                                                         
    9 entries                                                                   
     n  l   j            E        occ.                                          
     1  0  0.50     -6424.8288   2.0000                                         
     2  0  0.50      -739.1154   2.0000                                         
     2  1  1.50      -625.3949   6.0000                                         
     3  0  0.50       -81.6100   2.0000                                         
     3  1  1.50       -50.4667   6.0000                                         
     3  2  2.50        -3.3745   6.0000                                         
     4  0  0.50        -4.1331   1.0000                                         
     4  1  0.50        -4.0817   0.0000                                         
     4  3  2.50        -1.3606   0.0000                                         
   Description                                                                  
     l       E           TYP  RCUT    TYP  RCUT                                 
     2     -3.3744664     23  2.300                                             
     2     -4.7350490     23  2.300                                             
     0     -4.1331408     23  2.300                                             
     0      7.6656614     23  2.300                                             
     1     -2.7211652     23  2.300                                             
     1     20.4087390     23  2.300                                             
  local pseudopotential read in
  partial core-charges read in
  partial kinetic energy density read in
  atomic valenz-charges read in
  non local Contribution for L=           2  read in
    real space projection operators read in
  non local Contribution for L=           2  read in
    real space projection operators read in
  non local Contribution for L=           0  read in
    real space projection operators read in
  non local Contribution for L=           0  read in
    real space projection operators read in
  non local Contribution for L=           1  read in
    real space projection operators read in
  non local Contribution for L=           1  read in
    real space projection operators read in
    PAW grid and wavefunctions read in
 
   number of l-projection  operators is LMAX  =           6
   number of lm-projection operators is LMMAX =          18
 
 POTCAR:    PAW_PBE Bi 08Apr2002                  
   SHA256 =  d6b6753ed5db3f0e277fb15e6dbb6699c4bc829850a481068e9e7236faeca489 Bi
   COPYR  = (c) Copyright 08Apr2002 Georg Kresse                                
   COPYR  = This file is part of the software VASP. Any use, copying, and all ot
   COPYR  = If you do not have a valid VASP license, you may not use, copy or di
   VRHFIN =Bi:                                                                  
   LEXCH  = PE                                                                  
   EATOM  =   150.8133 eV,   11.0845 Ry                                         
                                                                                
   TITEL  = PAW_PBE Bi 08Apr2002                                                
   LULTRA =        F    use ultrasoft PP ?                                      
   IUNSCR =        1    unscreen: 0-lin 1-nonlin 2-no                           
   RPACOR =    2.200    partial core radius                                     
   POMASS =  208.980; ZVAL   =    5.000    mass and valenz                      
   RCORE  =    3.000    outmost cutoff radius                                   
   RWIGS  =    3.090; RWIGS  =    1.635    wigner-seitz radius (au A)           
   ENMAX  =  105.037; ENMIN  =   78.777 eV                                      
   ICORE  =        3    local potential                                         
   LCOR   =        T    correct aug charges                                     
   LPAW   =        T    paw PP                                                  
   EAUG   =  265.427                                                            
   DEXC   =    0.000                                                            
   RMAX   =    3.067    core radius for proj-oper                               
   RAUG   =    1.300    factor for augmentation sphere                          
   RDEP   =    3.012    radius for radial grids                                 
   RDEPT  =    2.604    core radius for aug-charge                              
                                                                                
   Atomic configuration                                                         
   17 entries                                                                   
     n  l   j            E        occ.                                          
     1  0  0.50    -90639.6582   2.0000                                         
     2  0  0.50    -16282.4667   2.0000                                         
     2  1  1.50    -13922.8287   6.0000                                         
     3  0  0.50     -3930.4763   2.0000                                         
     3  1  1.50     -3256.7013   6.0000                                         
     3  2  2.50     -2581.6169  10.0000                                         
     4  0  0.50      -902.2614   2.0000                                         
     4  1  1.50      -681.5915   6.0000                                         
     4  2  2.50      -429.8249  10.0000                                         
     4  3  3.50      -152.6004  14.0000                                         
     5  0  0.50      -157.7156   2.0000                                         
     5  1  1.50       -95.8054   6.0000                                         
     5  2  2.50       -27.0806  10.0000                                         
     6  0  0.50       -14.4732   2.0000                                         
     6  1  1.50        -4.5702   3.0000                                         
     6  2  2.50        -2.7212   0.0000                                         
     5  3  2.50        -2.7212   0.0000                                         
   Description                                                                  
     l       E           TYP  RCUT    TYP  RCUT                                 
     0    -14.4732299     23  3.000                                             
     0    -12.2452434     23  3.000                                             
     1     -4.5701666     23  3.000                                             
     1    -13.6058260     23  3.000                                             
     2     -2.7211652     23  3.000                                             
     3     -1.3605826      7  3.000                                             
  local pseudopotential read in
  partial core-charges read in
  partial kinetic energy density read in
  kinetic energy density of atom read in
  atomic valenz-charges read in
  non local Contribution for L=           0  read in
    real space projection operators read in
  non local Contribution for L=           0  read in
    real space projection operators read in
  non local Contribution for L=           1  read in
    real space projection operators read in
  non local Contribution for L=           1  read in
    real space projection operators read in
  non local Contribution for L=           2  read in
    real space projection operators read in
    PAW grid and wavefunctions read in
 
   number of l-projection  operators is LMAX  =           5
   number of lm-projection operators is LMMAX =          13
 
  PAW_PBE Mn 06Sep2000                  :
 energy of atom  1       EATOM= -416.7541
 kinetic energy error for atom=    0.0024 (will be added to EATOM!!)
  PAW_PBE Bi 08Apr2002                  :
 energy of atom  2       EATOM= -150.8133
 kinetic energy error for atom=    0.0001 (will be added to EATOM!!)
 
 
 POSCAR: Mn1 Bi1 str #: 10                       
  positions in direct lattice
  No initial velocities read in
 exchange correlation table for  LEXCH =        8
   RHO(1)=    0.500       N(1)  =     2000
   RHO(2)=  100.500       N(2)  =     4000
 


--------------------------------------------------------------------------------------------------------


 ion  position               nearest neighbor table
   1  0.500  0.250  0.500-  11 2.76  11 2.76   8 2.76  10 2.76
   2  0.000  0.583  0.333-  12 2.76  12 2.76   9 2.76  11 2.76
   3  0.500  0.917  0.167-   7 2.76   7 2.76  10 2.76  12 2.76
   4  0.000  0.250  1.000-   8 2.76   8 2.76  11 2.76   7 2.76
   5  0.500  0.583  0.833-   9 2.76   9 2.76  12 2.76   8 2.76
   6  0.000  0.917  0.667-  10 2.76  10 2.76   7 2.76   9 2.76
   7  0.000  0.000  0.000-   3 2.76   3 2.76   6 2.76   4 2.76
   8  0.500  0.333  0.833-   4 2.76   4 2.76   1 2.76   5 2.76
   9  0.000  0.667  0.667-   5 2.76   5 2.76   2 2.76   6 2.76
  10  0.500  0.000  0.500-   6 2.76   6 2.76   3 2.76   1 2.76
  11  0.000  0.333  0.333-   1 2.76   1 2.76   4 2.76   2 2.76
  12  0.500  0.667  0.167-   2 2.76   2 2.76   5 2.76   3 2.76
 

IMPORTANT INFORMATION: All symmetrisations will be switched off!
NOSYMM: (Re-)initialisation of all symmetry stuff for point group C_1.

 
 

Automatic generation of k-mesh.
 generate k-points for:    3    2    2
Space group operators:
 irot       det(A)        alpha          n_x          n_y          n_z        tau_x        tau_y        tau_z
    1     1.000000     0.000001     1.000000     0.000000     0.000000     0.000000     0.000000     0.000000
 
 Subroutine IBZKPT returns following result:
 ===========================================
 
 Found      8 irreducible k-points:
 
 Following reciprocal coordinates:
            Coordinates               Weight
  0.000000  0.000000  0.000000      1.000000
  0.333333  0.000000  0.000000      2.000000
  0.000000  0.500000  0.000000      1.000000
  0.333333  0.500000  0.000000      2.000000
  0.000000  0.000000  0.500000      1.000000
  0.333333  0.000000  0.500000      2.000000
  0.000000  0.500000  0.500000      1.000000
  0.333333  0.500000  0.500000      2.000000
 
 Following cartesian coordinates:
            Coordinates               Weight
  0.000000  0.000000  0.000000      1.000000
  0.074065  0.000000  0.000000      2.000000
  0.000000  0.000000  0.045355      1.000000
  0.074065  0.000000  0.045355      2.000000
  0.000000 -0.064142  0.000000      1.000000
  0.074065 -0.064142  0.000000      2.000000
  0.000000 -0.064142  0.045355      1.000000
  0.074065 -0.064142  0.045355      2.000000
 


--------------------------------------------------------------------------------------------------------




 Dimension of arrays:
   k-points           NKPTS =      8   k-points in BZ     NKDIM =      8   number of bands    NBANDS=     43
   number of dos      NEDOS =    301   number of ions     NIONS =     12
   non local maximal  LDIM  =      6   non local SUM 2l+1 LMDIM =     18
   total plane-waves  NPLWV = 172800
   max r-space proj   IRMAX =      1   max aug-charges    IRDMAX=  42755
   dimension x,y,z NGX =    36 NGY =   80 NGZ =   60
   dimension x,y,z NGXF=    72 NGYF=  160 NGZF=  120
   support grid    NGXF=    72 NGYF=  160 NGZF=  120
   ions per type =               6   6
   NGX,Y,Z   is equivalent  to a cutoff of  13.30, 12.06, 12.80 a.u.
   NGXF,Y,Z  is equivalent  to a cutoff of  26.60, 24.13, 25.59 a.u.

 SYSTEM =  BiMn                                    
 POSCAR =  Mn1 Bi1 str #: 10                       

 Startparameter for this run:
   NWRITE =      2    write-flag & timer
   PREC   = accura    normal or accurate (medium, high low for compatibility)
   ISTART =      0    job   : 0-new  1-cont  2-samecut
   ICHARG =      2    charge: 1-file 2-atom 10-const
   ISPIN  =      2    spin polarized calculation?
   LNONCOLLINEAR =      F non collinear calculations
   LSORBIT =      F    spin-orbit coupling
   INIWAV =      1    electr: 0-lowe 1-rand  2-diag
   LASPH  =      F    aspherical Exc in radial PAW
   METAGGA=      F    non-selfconsistent MetaGGA calc.

 Electronic Relaxation 1
   ENCUT  =  500.0 eV  36.75 Ry    6.06 a.u.   8.21 20.10 14.21*2*pi/ulx,y,z
   ENINI  =  500.0     initial cutoff
   ENAUG  =  500.7 eV  augmentation charge cutoff
   NELM   =     60;   NELMIN=  2; NELMDL= -5     # of ELM steps 
   EDIFF  = 0.1E-05   stopping-criterion for ELM
   LREAL  =      F    real-space projection
   NLSPLINE    = F    spline interpolate recip. space projectors
   LCOMPAT=      F    compatible to vasp.4.4
   GGA_COMPAT  = T    GGA compatible to vasp.4.4-vasp.4.6
   LMAXPAW     = -100 max onsite density
   LMAXMIX     =    2 max onsite mixed and CHGCAR
   VOSKOWN=      0    Vosko Wilk Nusair interpolation
   ROPT   =    0.00000   0.00000
 Ionic relaxation
   EDIFFG = 0.1E-04   stopping-criterion for IOM
   NSW    =      0    number of steps for IOM
   NBLOCK =      1;   KBLOCK =      1    inner block; outer block 
   IBRION =     -1    ionic relax: 0-MD 1-quasi-New 2-CG
   NFREE  =      1    steps in history (QN), initial steepest desc. (CG)
   ISIF   =      2    stress and relaxation
   IWAVPR =     10    prediction:  0-non 1-charg 2-wave 3-comb
   ISYM   =      0    0-nonsym 1-usesym 2-fastsym
   LCORR  =      T    Harris-Foulkes like correction to forces

   POTIM  = 0.5000    time-step for ionic-motion
   TEIN   =    0.0    initial temperature
   TEBEG  =    0.0;   TEEND  =   0.0 temperature during run
   SMASS  =  -3.00    Nose mass-parameter (am)
   estimated Nose-frequenzy (Omega)   =  0.10E-29 period in steps =****** mass=  -0.463E-27a.u.
   SCALEE = 1.0000    scale energy and forces
   NPACO  =    256;   APACO  = 16.0  distance and # of slots for P.C.
   PSTRESS=    0.0 pullay stress

  Mass of Ions in am
   POMASS =  54.94208.98
  Ionic Valenz
   ZVAL   =   7.00  5.00
  Atomic Wigner-Seitz radii
   RWIGS  =  -1.00 -1.00
  virtual crystal weights 
   VCA    =   1.00  1.00
   NELECT =      72.0000    total number of electrons
   NUPDOWN=      -1.0000    fix difference up-down

 DOS related values:
   EMIN   =  10.00;   EMAX   =-10.00  energy-range for DOS
   EFERMI =   0.00
   ISMEAR =     1;   SIGMA  =   0.10  broadening in eV -4-tet -1-fermi 0-gaus

 Electronic relaxation 2 (details)
   IALGO  =     38    algorithm
   LDIAG  =      T    sub-space diagonalisation (order eigenvalues)
   LSUBROT=      F    optimize rotation matrix (better conditioning)
   TURBO    =      0    0=normal 1=particle mesh
   IRESTART =      0    0=no restart 2=restart with 2 vectors
   NREBOOT  =      0    no. of reboots
   NMIN     =      0    reboot dimension
   EREF     =   0.00    reference energy to select bands
   IMIX   =      4    mixing-type and parameters
     AMIX     =   0.40;   BMIX     =  1.00
     AMIX_MAG =   1.60;   BMIX_MAG =  1.00
     AMIN     =   0.10
     WC   =   100.;   INIMIX=   1;  MIXPRE=   1;  MAXMIX= -45

 Intra band minimization:
   WEIMIN = 0.0000     energy-eigenvalue tresh-hold
   EBREAK =  0.58E-08  absolut break condition
   DEPER  =   0.30     relativ break condition  

   TIME   =   0.40     timestep for ELM

  volume/ion in A,a.u.               =      32.23       217.50
  Fermi-wavevector in a.u.,A,eV,Ry     =   0.934775  1.766469 11.888837  0.873805
  Thomas-Fermi vector in A             =   2.061615
 
 Write flags
   LWAVE        =      F    write WAVECAR
   LDOWNSAMPLE  =      F    k-point downsampling of WAVECAR
   LCHARG       =      F    write CHGCAR
   LVTOT        =      F    write LOCPOT, total local potential
   LVHAR        =      F    write LOCPOT, Hartree potential only
   LELF         =      F    write electronic localiz. function (ELF)
   LORBIT       =     11    0 simple, 1 ext, 2 COOP (PROOUT), +10 PAW based schemes


 Dipole corrections
   LMONO  =      F    monopole corrections only (constant potential shift)
   LDIPOL =      F    correct potential (dipole corrections)
   IDIPOL =      0    1-x, 2-y, 3-z, 4-all directions 
   EPSILON=  1.0000000 bulk dielectric constant

 Exchange correlation treatment:
   GGA     =    --    GGA type
   LEXCH   =     8    internal setting for exchange type
   VOSKOWN=      0    Vosko Wilk Nusair interpolation
   LHFCALC =     F    Hartree Fock is set to
   LHFONE  =     F    Hartree Fock one center treatment
   AEXX    =    0.0000 exact exchange contribution

 Linear response parameters
   LEPSILON=     F    determine dielectric tensor
   LRPA    =     F    only Hartree local field effects (RPA)
   LNABLA  =     F    use nabla operator in PAW spheres
   LVEL    =     F    velocity operator in full k-point grid
   LINTERFAST=   F  fast interpolation
   KINTER  =     0    interpolate to denser k-point grid
   CSHIFT  =0.1000    complex shift for real part using Kramers Kronig
   OMEGAMAX=  -1.0    maximum frequency
   DEG_THRESHOLD= 0.2000000E-02 threshold for treating states as degnerate
   RTIME   =   -0.100 relaxation time in fs
  (WPLASMAI=    0.000 imaginary part of plasma frequency in eV, 0.658/RTIME)
   DFIELD  = 0.0000000 0.0000000 0.0000000 field for delta impulse in time
 
 Orbital magnetization related:
   ORBITALMAG=     F  switch on orbital magnetization
   LCHIMAG   =     F  perturbation theory with respect to B field
   DQ        =  0.001000  dq finite difference perturbation B field
   LLRAUG    =     F  two centre corrections for induced B field



--------------------------------------------------------------------------------------------------------


 Static calculation
 charge density and potential will be updated during run
 spin polarized calculation
 Variant of blocked Davidson
 Davidson routine will perform the subspace rotation
 perform sub-space diagonalisation
    after iterative eigenvector-optimisation
 modified Broyden-mixing scheme, WC =      100.0
 initial mixing is a Kerker type mixing with AMIX =  0.4000 and BMIX =      1.0000
 Hartree-type preconditioning will be used
 using additional bands            7
 reciprocal scheme for non local part
 use partial core corrections
 calculate Harris-corrections to forces 
   (improved forces if not selfconsistent)
 use gradient corrections 
 use of overlap-Matrix (Vanderbilt PP)
 Methfessel and Paxton  Order N= 1 SIGMA  =   0.10


--------------------------------------------------------------------------------------------------------


  energy-cutoff  :      500.00
  volume of cell :      386.75
      direct lattice vectors                 reciprocal lattice vectors
     4.500557900  0.000000000  0.000000000     0.222194675  0.000000003  0.000000002
    -0.000000100  0.000000100 11.024070300     0.000000000  0.000000000  0.090710597
     0.000000100 -7.795195000  0.000000000     0.000000000 -0.128284155  0.000000001

  length of vectors
     4.500557900 11.024070300  7.795195000     0.222194675  0.090710597  0.128284155


 
 k-points in units of 2pi/SCALE and weight: read from INCAR                         
   0.00000000  0.00000000  0.00000000       0.083
   0.07406489  0.00000000  0.00000000       0.167
   0.00000000  0.00000000  0.04535530       0.083
   0.07406489  0.00000000  0.04535530       0.167
   0.00000000 -0.06414208  0.00000000       0.083
   0.07406489 -0.06414208  0.00000000       0.167
   0.00000000 -0.06414208  0.04535530       0.083
   0.07406489 -0.06414208  0.04535530       0.167
 
 k-points in reciprocal lattice and weights: read from INCAR                         
   0.00000000  0.00000000  0.00000000       0.083
   0.33333333  0.00000000  0.00000000       0.167
   0.00000000  0.50000000  0.00000000       0.083
   0.33333333  0.50000000  0.00000000       0.167
   0.00000000  0.00000000  0.50000000       0.083
   0.33333333  0.00000000  0.50000000       0.167
   0.00000000  0.50000000  0.50000000       0.083
   0.33333333  0.50000000  0.50000000       0.167
 
 position of ions in fractional coordinates (direct lattice) 
   0.50000001  0.25000001  0.49999999
   0.00000001  0.58333334  0.33333332
   0.50000001  0.91666668  0.16666666
   0.00000001  0.25000001  0.99999999
   0.50000001  0.58333334  0.83333332
   0.00000001  0.91666668  0.66666666
   0.00000000  0.00000000  0.00000000
   0.50000000  0.33333333  0.83333333
   0.00000000  0.66666667  0.66666667
   0.50000000  0.00000000  0.50000000
   0.00000000  0.33333333  0.33333333
   0.50000000  0.66666667  0.16666667
 
 position of ions in cartesian coordinates  (Angst):
   2.25027900 -3.89759740  2.75601770
   0.00000000 -2.59839820  6.43070780
   2.25027890 -1.29919900 10.10539790
   0.00000010 -7.79519490  2.75601770
   2.25027900 -6.49599570  6.43070780
   0.00000000 -5.19679650 10.10539790
   0.00000000  0.00000000  0.00000000
   2.25027900 -6.49599580  3.67469010
   0.00000000 -5.19679660  7.34938020
   2.25027900 -3.89759750  0.00000000
   0.00000000 -2.59839830  3.67469010
   2.25027890 -1.29919910  7.34938020
 


--------------------------------------------------------------------------------------------------------


 k-point  1 :   0.0000 0.0000 0.0000  plane waves:    9849
 k-point  2 :   0.3333 0.0000 0.0000  plane waves:    9844
 k-point  3 :   0.0000 0.5000 0.0000  plane waves:    9764
 k-point  4 :   0.3333 0.5000 0.0000  plane waves:    9826
 k-point  5 :   0.0000 0.0000 0.5000  plane waves:    9800
 k-point  6 :   0.3333 0.0000 0.5000  plane waves:    9812
 k-point  7 :   0.0000 0.5000 0.5000  plane waves:    9804
 k-point  8 :   0.3333 0.5000 0.5000  plane waves:    9844

 maximum and minimum number of plane-waves per node :      1266     1210

 maximum number of plane-waves:      9849
 maximum index in each direction: 
   IXMAX=    8   IYMAX=   20   IZMAX=   14
   IXMIN=   -8   IYMIN=  -20   IZMIN=  -14


 parallel 3D FFT for wavefunctions:
    minimum data exchange during FFTs selected (reduces bandwidth)
 parallel 3D FFT for charge:
    minimum data exchange during FFTs selected (reduces bandwidth)


 total amount of memory used by VASP MPI-rank0    70050. kBytes
=======================================================================

   base      :      30000. kBytes
   nonl-proj :       3159. kBytes
   fftplans  :       6611. kBytes
   grid      :      15941. kBytes
   one-center:         62. kBytes
   wavefun   :      14277. kBytes
 
     INWAV:  cpu time    0.0000: real time    0.0001
 Broyden mixing: mesh for mixing (old mesh)
   NGX = 17   NGY = 41   NGZ = 29
  (NGX  = 72   NGY  =160   NGZ  =120)
  gives a total of  20213 points

 initial charge density was supplied:
 charge density of overlapping atoms calculated
 number of electron      72.0000000 magnetization      -0.0000000
 keeping initial charge density in first step


--------------------------------------------------------------------------------------------------------


 Maximum index for augmentation-charges         5230 (set IRDMAX)


--------------------------------------------------------------------------------------------------------


 First call to EWALD:  gamma=   0.243
 Maximum number of real-space cells 4x 2x 3
 Maximum number of reciprocal cells 2x 4x 3

    FEWALD:  cpu time    0.0014: real time    0.0014


--------------------------------------- Iteration      1(   1)  ---------------------------------------


    POTLOK:  cpu time    0.2805: real time    0.2850
    SETDIJ:  cpu time    0.0288: real time    0.0288
     EDDAV:  cpu time    2.2829: real time    2.3022
       DOS:  cpu time    0.0021: real time    0.0021
    --------------------------------------------
      LOOP:  cpu time    2.5944: real time    2.6182

 eigenvalue-minimisations  :  1376
 total energy-change (2. order) : 0.5522981E+03  (-0.2371234E+04)
 number of electron      72.0000000 magnetization      -0.0000000
 augmentation part       72.0000000 magnetization      -0.0000000

 Free energy of the ion-electron system (eV)
  ---------------------------------------------------
  alpha Z        PSCENC =       101.49540615
  Ewald energy   TEWEN  =     -2683.79588848
  -Hartree energ DENC   =      -967.30630471
  -exchange      EXHF   =         0.00000000
  -V(xc)+E(xc)   XCENC  =      -728.91330734
  PAW double counting   =      3780.13508079    -2989.48258254
  entropy T*S    EENTRO =         0.00443979
  eigenvalues    EBANDS =       634.77163307
  atomic energy  EATOM  =      3405.38964915
  Solvation  Ediel_sol  =         0.00000000
  ---------------------------------------------------
  free energy    TOTEN  =       552.29812588 eV

  energy without entropy =      552.29368609  energy(sigma->0) =      552.29664595


--------------------------------------------------------------------------------------------------------




--------------------------------------- Iteration      1(   2)  ---------------------------------------


     EDDAV:  cpu time    2.1366: real time    2.1432
       DOS:  cpu time    0.0026: real time    0.0026
    --------------------------------------------
      LOOP:  cpu time    2.1392: real time    2.1458

 eigenvalue-minimisations  :  1376
 total energy-change (2. order) :-0.5308133E+03  (-0.5196492E+03)
 number of electron      72.0000000 magnetization      -0.0000000
 augmentation part       72.0000000 magnetization      -0.0000000

 Free energy of the ion-electron system (eV)
  ---------------------------------------------------
  alpha Z        PSCENC =       101.49540615
  Ewald energy   TEWEN  =     -2683.79588848
  -Hartree energ DENC   =      -967.30630471
  -exchange      EXHF   =         0.00000000
  -V(xc)+E(xc)   XCENC  =      -728.91330734
  PAW double counting   =      3780.13508079    -2989.48258254
  entropy T*S    EENTRO =         0.00284728
  eigenvalues    EBANDS =       103.95993332
  atomic energy  EATOM  =      3405.38964915
  Solvation  Ediel_sol  =         0.00000000
  ---------------------------------------------------
  free energy    TOTEN  =        21.48483362 eV

  energy without entropy =       21.48198634  energy(sigma->0) =       21.48388453


--------------------------------------------------------------------------------------------------------




--------------------------------------- Iteration      1(   3)  ---------------------------------------


     EDDAV:  cpu time    3.1370: real time    3.1449
       DOS:  cpu time    0.0029: real time    0.0029
    --------------------------------------------
      LOOP:  cpu time    3.1398: real time    3.1478

 eigenvalue-minimisations  :  2277
 total energy-change (2. order) :-0.8667484E+02  (-0.8323276E+02)
 number of electron      72.0000000 magnetization      -0.0000000
 augmentation part       72.0000000 magnetization      -0.0000000

 Free energy of the ion-electron system (eV)
  ---------------------------------------------------
  alpha Z        PSCENC =       101.49540615
  Ewald energy   TEWEN  =     -2683.79588848
  -Hartree energ DENC   =      -967.30630471
  -exchange      EXHF   =         0.00000000
  -V(xc)+E(xc)   XCENC  =      -728.91330734
  PAW double counting   =      3780.13508079    -2989.48258254
  entropy T*S    EENTRO =         0.00430462
  eigenvalues    EBANDS =        17.28363481
  atomic energy  EATOM  =      3405.38964915
  Solvation  Ediel_sol  =         0.00000000
  ---------------------------------------------------
  free energy    TOTEN  =       -65.19000755 eV

  energy without entropy =      -65.19431217  energy(sigma->0) =      -65.19144243


--------------------------------------------------------------------------------------------------------




--------------------------------------- Iteration      1(   4)  ---------------------------------------


     EDDAV:  cpu time    3.2911: real time    3.2992
       DOS:  cpu time    0.0028: real time    0.0029
    --------------------------------------------
      LOOP:  cpu time    3.2940: real time    3.3020

 eigenvalue-minimisations  :  2416
 total energy-change (2. order) :-0.9054113E+01  (-0.8821120E+01)
 number of electron      72.0000000 magnetization      -0.0000000
 augmentation part       72.0000000 magnetization      -0.0000000

 Free energy of the ion-electron system (eV)
  ---------------------------------------------------
  alpha Z        PSCENC =       101.49540615
  Ewald energy   TEWEN  =     -2683.79588848
  -Hartree energ DENC   =      -967.30630471
  -exchange      EXHF   =         0.00000000
  -V(xc)+E(xc)   XCENC  =      -728.91330734
  PAW double counting   =      3780.13508079    -2989.48258254
  entropy T*S    EENTRO =         0.00699875
  eigenvalues    EBANDS =         8.22682769
  atomic energy  EATOM  =      3405.38964915
  Solvation  Ediel_sol  =         0.00000000
  ---------------------------------------------------
  free energy    TOTEN  =       -74.24412053 eV

  energy without entropy =      -74.25111929  energy(sigma->0) =      -74.24645345


--------------------------------------------------------------------------------------------------------




--------------------------------------- Iteration      1(   5)  ---------------------------------------


     EDDAV:  cpu time    3.1192: real time    3.1270
       DOS:  cpu time    0.0029: real time    0.0029
    CHARGE:  cpu time    0.2433: real time    0.2458
    MIXING:  cpu time    0.0038: real time    0.0038
    --------------------------------------------
      LOOP:  cpu time    3.3693: real time    3.3796

 eigenvalue-minimisations  :  2280
 total energy-change (2. order) :-0.6477286E+00  (-0.6338615E+00)
 number of electron      71.9999994 magnetization       0.0071511
 augmentation part        5.6377612 magnetization      -0.0013077

 Broyden mixing:
  rms(total) = 0.23476E+01    rms(broyden)= 0.23476E+01
  rms(prec ) = 0.30594E+01
  weight for this iteration     100.00

 Free energy of the ion-electron system (eV)
  ---------------------------------------------------
  alpha Z        PSCENC =       101.49540615
  Ewald energy   TEWEN  =     -2683.79588848
  -Hartree energ DENC   =      -967.30630471
  -exchange      EXHF   =         0.00000000
  -V(xc)+E(xc)   XCENC  =      -728.91330734
  PAW double counting   =      3780.13508079    -2989.48258254
  entropy T*S    EENTRO =         0.00386872
  eigenvalues    EBANDS =         7.58222917
  atomic energy  EATOM  =      3405.38964915
  Solvation  Ediel_sol  =         0.00000000
  ---------------------------------------------------
  free energy    TOTEN  =       -74.89184909 eV

  energy without entropy =      -74.89571781  energy(sigma->0) =      -74.89313866


--------------------------------------------------------------------------------------------------------




--------------------------------------- Iteration      1(   6)  ---------------------------------------


    POTLOK:  cpu time    0.2116: real time    0.2122
    SETDIJ:  cpu time    0.0228: real time    0.0229
     EDDAV:  cpu time    3.8649: real time    3.8746
       DOS:  cpu time    0.0037: real time    0.0037
    CHARGE:  cpu time    0.2667: real time    0.2674
    MIXING:  cpu time    0.0050: real time    0.0050
    --------------------------------------------
      LOOP:  cpu time    4.3748: real time    4.3858

 eigenvalue-minimisations  :  2549
 total energy-change (2. order) :-0.1025165E+02  (-0.2754895E+02)
 number of electron      71.9999988 magnetization      -0.0056119
 augmentation part       19.6408648 magnetization       0.0675864

 Broyden mixing:
  rms(total) = 0.55081E+01    rms(broyden)= 0.55080E+01
  rms(prec ) = 0.64008E+01
  weight for this iteration     100.00

 eigenvalues of (default mixing * dielectric matrix)
  average eigenvalue GAMMA=   0.2071
  0.2071

 Free energy of the ion-electron system (eV)
  ---------------------------------------------------
  alpha Z        PSCENC =       101.49540615
  Ewald energy   TEWEN  =     -2683.79588848
  -Hartree energ DENC   =      -838.41369957
  -exchange      EXHF   =         0.00000000
  -V(xc)+E(xc)   XCENC  =      -726.85971454
  PAW double counting   =      3795.18081103    -2995.56378602
  entropy T*S    EENTRO =        -0.00168870
  eigenvalues    EBANDS =      -142.57459062
  atomic energy  EATOM  =      3405.38964915
  Solvation  Ediel_sol  =         0.00000000
  ---------------------------------------------------
  free energy    TOTEN  =       -85.14350160 eV

  energy without entropy =      -85.14181290  energy(sigma->0) =      -85.14293870


--------------------------------------------------------------------------------------------------------




--------------------------------------- Iteration      1(   7)  ---------------------------------------


    POTLOK:  cpu time    0.2460: real time    0.2469
    SETDIJ:  cpu time    0.0257: real time    0.0258
     EDDAV:  cpu time    3.6452: real time    3.6540
       DOS:  cpu time    0.0035: real time    0.0035
    CHARGE:  cpu time    0.2633: real time    0.2641
    MIXING:  cpu time    0.0048: real time    0.0048
    --------------------------------------------
      LOOP:  cpu time    4.1885: real time    4.1990

 eigenvalue-minimisations  :  2360
 total energy-change (2. order) : 0.1714894E+02  (-0.9922572E+01)
 number of electron      71.9999991 magnetization       0.0063950
 augmentation part       12.0461124 magnetization       0.0092256

 Broyden mixing:
  rms(total) = 0.99449E+00    rms(broyden)= 0.99442E+00
  rms(prec ) = 0.11280E+01
  weight for this iteration     100.00

 eigenvalues of (default mixing * dielectric matrix)
  average eigenvalue GAMMA=   0.4892
  0.6753  0.3030

 Free energy of the ion-electron system (eV)
  ---------------------------------------------------
  alpha Z        PSCENC =       101.49540615
  Ewald energy   TEWEN  =     -2683.79588848
  -Hartree energ DENC   =      -902.24555766
  -exchange      EXHF   =         0.00000000
  -V(xc)+E(xc)   XCENC  =      -727.90837760
  PAW double counting   =      4012.68516019    -3221.66394663
  entropy T*S    EENTRO =         0.00641985
  eigenvalues    EBANDS =       -51.95742614
  atomic energy  EATOM  =      3405.38964915
  Solvation  Ediel_sol  =         0.00000000
  ---------------------------------------------------
  free energy    TOTEN  =       -67.99456116 eV

  energy without entropy =      -68.00098102  energy(sigma->0) =      -67.99670111


--------------------------------------------------------------------------------------------------------




--------------------------------------- Iteration      1(   8)  ---------------------------------------


    POTLOK:  cpu time    0.2487: real time    0.2494
    SETDIJ:  cpu time    0.0258: real time    0.0259
     EDDAV:  cpu time    4.0381: real time    4.0484
       DOS:  cpu time    0.0031: real time    0.0031
    CHARGE:  cpu time    0.2606: real time    0.2612
    MIXING:  cpu time    0.0050: real time    0.0050
    --------------------------------------------
      LOOP:  cpu time    4.5814: real time    4.5932

 eigenvalue-minimisations  :  2680
 total energy-change (2. order) :-0.9585314E+00  (-0.1744348E+01)
 number of electron      71.9999993 magnetization       0.0080950
 augmentation part       10.1155091 magnetization       0.0023879

 Broyden mixing:
  rms(total) = 0.88612E+00    rms(broyden)= 0.88605E+00
  rms(prec ) = 0.11294E+01
  weight for this iteration     100.00

 eigenvalues of (default mixing * dielectric matrix)
  average eigenvalue GAMMA=   0.5582
  0.9718  0.3515  0.3515

 Free energy of the ion-electron system (eV)
  ---------------------------------------------------
  alpha Z        PSCENC =       101.49540615
  Ewald energy   TEWEN  =     -2683.79588848
  -Hartree energ DENC   =      -915.18369890
  -exchange      EXHF   =         0.00000000
  -V(xc)+E(xc)   XCENC  =      -724.14533742
  PAW double counting   =      4121.78887068    -3335.23992834
  entropy T*S    EENTRO =         0.01106245
  eigenvalues    EBANDS =       -39.27322788
  atomic energy  EATOM  =      3405.38964915
  Solvation  Ediel_sol  =         0.00000000
  ---------------------------------------------------
  free energy    TOTEN  =       -68.95309258 eV

  energy without entropy =      -68.96415502  energy(sigma->0) =      -68.95678006


--------------------------------------------------------------------------------------------------------




--------------------------------------- Iteration      1(   9)  ---------------------------------------


    POTLOK:  cpu time    0.2456: real time    0.2463
    SETDIJ:  cpu time    0.0256: real time    0.0257
     EDDAV:  cpu time    3.8704: real time    3.8799
       DOS:  cpu time    0.0034: real time    0.0034
    CHARGE:  cpu time    0.2629: real time    0.2635
    MIXING:  cpu time    0.0050: real time    0.0050
    --------------------------------------------
      LOOP:  cpu time    4.4129: real time    4.4239

 eigenvalue-minimisations  :  2544
 total energy-change (2. order) : 0.1083779E+00  (-0.7130057E+00)
 number of electron      71.9999991 magnetization       0.0186342
 augmentation part       10.0522207 magnetization       0.0093513

 Broyden mixing:
  rms(total) = 0.58063E+00    rms(broyden)= 0.58057E+00
  rms(prec ) = 0.74188E+00
  weight for this iteration     100.00

 eigenvalues of (default mixing * dielectric matrix)
  average eigenvalue GAMMA=   0.7312
  1.7924  0.5272  0.3516  0.2535

 Free energy of the ion-electron system (eV)
  ---------------------------------------------------
  alpha Z        PSCENC =       101.49540615
  Ewald energy   TEWEN  =     -2683.79588848
  -Hartree energ DENC   =      -913.78077086
  -exchange      EXHF   =         0.00000000
  -V(xc)+E(xc)   XCENC  =      -722.71236211
  PAW double counting   =      4190.53548479    -3405.67868827
  entropy T*S    EENTRO =         0.00039339
  eigenvalues    EBANDS =       -40.29793841
  atomic energy  EATOM  =      3405.38964915
  Solvation  Ediel_sol  =         0.00000000
  ---------------------------------------------------
  free energy    TOTEN  =       -68.84471465 eV

  energy without entropy =      -68.84510804  energy(sigma->0) =      -68.84484578


--------------------------------------------------------------------------------------------------------




--------------------------------------- Iteration      1(  10)  ---------------------------------------


    POTLOK:  cpu time    0.2452: real time    0.2459
    SETDIJ:  cpu time    0.0257: real time    0.0258
     EDDAV:  cpu time    3.8503: real time    3.8599
       DOS:  cpu time    0.0030: real time    0.0030
    CHARGE:  cpu time    0.2556: real time    0.2562
    MIXING:  cpu time    0.0056: real time    0.0056
    --------------------------------------------
      LOOP:  cpu time    4.3855: real time    4.3965

 eigenvalue-minimisations  :  2536
 total energy-change (2. order) : 0.2012595E+00  (-0.1483339E+00)
 number of electron      71.9999992 magnetization       0.0300581
 augmentation part       10.2983272 magnetization      -0.0054716

 Broyden mixing:
  rms(total) = 0.23533E+00    rms(broyden)= 0.23532E+00
  rms(prec ) = 0.27288E+00
  weight for this iteration     100.00

 eigenvalues of (default mixing * dielectric matrix)
  average eigenvalue GAMMA=   0.7701
  2.0136  0.6195  0.6195  0.3416  0.2563

 Free energy of the ion-electron system (eV)
  ---------------------------------------------------
  alpha Z        PSCENC =       101.49540615
  Ewald energy   TEWEN  =     -2683.79588848
  -Hartree energ DENC   =      -907.03737711
  -exchange      EXHF   =         0.00000000
  -V(xc)+E(xc)   XCENC  =      -720.24631912
  PAW double counting   =      4337.48394180    -3555.63076552
  entropy T*S    EENTRO =         0.00504100
  eigenvalues    EBANDS =       -46.30714302
  atomic energy  EATOM  =      3405.38964915
  Solvation  Ediel_sol  =         0.00000000
  ---------------------------------------------------
  free energy    TOTEN  =       -68.64345514 eV

  energy without entropy =      -68.64849613  energy(sigma->0) =      -68.64513547


--------------------------------------------------------------------------------------------------------




--------------------------------------- Iteration      1(  11)  ---------------------------------------


    POTLOK:  cpu time    0.2489: real time    0.2496
    SETDIJ:  cpu time    0.0250: real time    0.0251
     EDDAV:  cpu time    4.0052: real time    4.0155
       DOS:  cpu time    0.0035: real time    0.0035
    CHARGE:  cpu time    0.2657: real time    0.2664
    MIXING:  cpu time    0.0054: real time    0.0054
    --------------------------------------------
      LOOP:  cpu time    4.5536: real time    4.5654

 eigenvalue-minimisations  :  2560
 total energy-change (2. order) :-0.3855094E-01  (-0.5634169E-01)
 number of electron      71.9999992 magnetization       0.0231884
 augmentation part       10.4924089 magnetization       0.0231446

 Broyden mixing:
  rms(total) = 0.20702E+00    rms(broyden)= 0.20700E+00
  rms(prec ) = 0.23712E+00
  weight for this iteration     100.00

 eigenvalues of (default mixing * dielectric matrix)
  average eigenvalue GAMMA=   0.7397
  2.1007  0.6962  0.6962  0.3666  0.2750  0.3036

 Free energy of the ion-electron system (eV)
  ---------------------------------------------------
  alpha Z        PSCENC =       101.49540615
  Ewald energy   TEWEN  =     -2683.79588848
  -Hartree energ DENC   =      -905.08052427
  -exchange      EXHF   =         0.00000000
  -V(xc)+E(xc)   XCENC  =      -720.27993003
  PAW double counting   =      4367.96362296    -3586.70892704
  entropy T*S    EENTRO =         0.00714383
  eigenvalues    EBANDS =       -47.67255835
  atomic energy  EATOM  =      3405.38964915
  Solvation  Ediel_sol  =         0.00000000
  ---------------------------------------------------
  free energy    TOTEN  =       -68.68200607 eV

  energy without entropy =      -68.68914990  energy(sigma->0) =      -68.68438735


--------------------------------------------------------------------------------------------------------




--------------------------------------- Iteration      1(  12)  ---------------------------------------


    POTLOK:  cpu time    0.2458: real time    0.2468
    SETDIJ:  cpu time    0.0258: real time    0.0259
     EDDAV:  cpu time    4.3309: real time    4.3437
       DOS:  cpu time    0.0032: real time    0.0032
    CHARGE:  cpu time    0.2676: real time    0.2683
    MIXING:  cpu time    0.0058: real time    0.0058
    --------------------------------------------
      LOOP:  cpu time    4.8791: real time    4.8937

 eigenvalue-minimisations  :  2456
 total energy-change (2. order) :-0.4882807E-02  (-0.1489218E-01)
 number of electron      71.9999992 magnetization       0.0153556
 augmentation part       10.5488430 magnetization       0.0115452

 Broyden mixing:
  rms(total) = 0.12371E+00    rms(broyden)= 0.12370E+00
  rms(prec ) = 0.14900E+00
  weight for this iteration     100.00

 eigenvalues of (default mixing * dielectric matrix)
  average eigenvalue GAMMA=   0.8031
  2.1912  1.2745  0.6262  0.6262  0.3383  0.2672  0.2983

 Free energy of the ion-electron system (eV)
  ---------------------------------------------------
  alpha Z        PSCENC =       101.49540615
  Ewald energy   TEWEN  =     -2683.79588848
  -Hartree energ DENC   =      -904.37625360
  -exchange      EXHF   =         0.00000000
  -V(xc)+E(xc)   XCENC  =      -720.46429260
  PAW double counting   =      4383.47948584    -3602.52379978
  entropy T*S    EENTRO =         0.00657016
  eigenvalues    EBANDS =       -47.89776572
  atomic energy  EATOM  =      3405.38964915
  Solvation  Ediel_sol  =         0.00000000
  ---------------------------------------------------
  free energy    TOTEN  =       -68.68688888 eV

  energy without entropy =      -68.69345904  energy(sigma->0) =      -68.68907893


--------------------------------------------------------------------------------------------------------




--------------------------------------- Iteration      1(  13)  ---------------------------------------


    POTLOK:  cpu time    0.2679: real time    0.2686
    SETDIJ:  cpu time    0.0272: real time    0.0272
     EDDAV:  cpu time    4.2191: real time    4.2297
       DOS:  cpu time    0.0035: real time    0.0035
    CHARGE:  cpu time    0.2673: real time    0.2679
    MIXING:  cpu time    0.0077: real time    0.0077
    --------------------------------------------
      LOOP:  cpu time    4.7926: real time    4.8045

 eigenvalue-minimisations  :  2440
 total energy-change (2. order) : 0.1268028E-02  (-0.5496991E-02)
 number of electron      71.9999992 magnetization       0.0144651
 augmentation part       10.5382603 magnetization       0.0054652

 Broyden mixing:
  rms(total) = 0.56326E-01    rms(broyden)= 0.56322E-01
  rms(prec ) = 0.63452E-01
  weight for this iteration     100.00

 eigenvalues of (default mixing * dielectric matrix)
  average eigenvalue GAMMA=   0.7991
  2.3534  1.3799  0.6352  0.6352  0.4655  0.2604  0.3520  0.3112

 Free energy of the ion-electron system (eV)
  ---------------------------------------------------
  alpha Z        PSCENC =       101.49540615
  Ewald energy   TEWEN  =     -2683.79588848
  -Hartree energ DENC   =      -904.48851138
  -exchange      EXHF   =         0.00000000
  -V(xc)+E(xc)   XCENC  =      -720.68449544
  PAW double counting   =      4390.58507066    -3609.76264826
  entropy T*S    EENTRO =         0.00701044
  eigenvalues    EBANDS =       -47.43121371
  atomic energy  EATOM  =      3405.38964915
  Solvation  Ediel_sol  =         0.00000000
  ---------------------------------------------------
  free energy    TOTEN  =       -68.68562085 eV

  energy without entropy =      -68.69263130  energy(sigma->0) =      -68.68795767


--------------------------------------------------------------------------------------------------------




--------------------------------------- Iteration      1(  14)  ---------------------------------------


    POTLOK:  cpu time    0.2725: real time    0.2733
    SETDIJ:  cpu time    0.0276: real time    0.0276
     EDDAV:  cpu time    4.1746: real time    4.1845
       DOS:  cpu time    0.0034: real time    0.0034
    CHARGE:  cpu time    0.2703: real time    0.2711
    MIXING:  cpu time    0.0065: real time    0.0065
    --------------------------------------------
      LOOP:  cpu time    4.7549: real time    4.7664

 eigenvalue-minimisations  :  2408
 total energy-change (2. order) :-0.1041094E-02  (-0.2211583E-02)
 number of electron      71.9999992 magnetization       0.0112766
 augmentation part       10.5285886 magnetization       0.0093149

 Broyden mixing:
  rms(total) = 0.43802E-01    rms(broyden)= 0.43799E-01
  rms(prec ) = 0.53724E-01
  weight for this iteration     100.00

 eigenvalues of (default mixing * dielectric matrix)
  average eigenvalue GAMMA=   0.7783
  2.4362  1.3709  0.7162  0.7162  0.5521  0.3514  0.2622  0.2997  0.2997

 Free energy of the ion-electron system (eV)
  ---------------------------------------------------
  alpha Z        PSCENC =       101.49540615
  Ewald energy   TEWEN  =     -2683.79588848
  -Hartree energ DENC   =      -904.55509956
  -exchange      EXHF   =         0.00000000
  -V(xc)+E(xc)   XCENC  =      -720.73576808
  PAW double counting   =      4395.21168031    -3614.49076581
  entropy T*S    EENTRO =         0.00582696
  eigenvalues    EBANDS =       -47.21170258
  atomic energy  EATOM  =      3405.38964915
  Solvation  Ediel_sol  =         0.00000000
  ---------------------------------------------------
  free energy    TOTEN  =       -68.68666195 eV

  energy without entropy =      -68.69248890  energy(sigma->0) =      -68.68860426


--------------------------------------------------------------------------------------------------------




--------------------------------------- Iteration      1(  15)  ---------------------------------------


    POTLOK:  cpu time    0.2652: real time    0.2659
    SETDIJ:  cpu time    0.0279: real time    0.0280
     EDDAV:  cpu time    4.1514: real time    4.1613
       DOS:  cpu time    0.0035: real time    0.0035
    CHARGE:  cpu time    0.2680: real time    0.2686
    MIXING:  cpu time    0.0078: real time    0.0078
    --------------------------------------------
      LOOP:  cpu time    4.7238: real time    4.7351

 eigenvalue-minimisations  :  2392
 total energy-change (2. order) : 0.3467648E-03  (-0.7214386E-03)
 number of electron      71.9999992 magnetization       0.0062453
 augmentation part       10.5243512 magnetization       0.0048379

 Broyden mixing:
  rms(total) = 0.20405E-01    rms(broyden)= 0.20403E-01
  rms(prec ) = 0.23713E-01
  weight for this iteration     100.00

 eigenvalues of (default mixing * dielectric matrix)
  average eigenvalue GAMMA=   0.8083
  2.4809  1.6167  0.8225  0.8225  0.5742  0.5742  0.3385  0.3193  0.2668  0.2668

 Free energy of the ion-electron system (eV)
  ---------------------------------------------------
  alpha Z        PSCENC =       101.49540615
  Ewald energy   TEWEN  =     -2683.79588848
  -Hartree energ DENC   =      -904.61205875
  -exchange      EXHF   =         0.00000000
  -V(xc)+E(xc)   XCENC  =      -720.75799417
  PAW double counting   =      4398.06769781    -3617.40851312
  entropy T*S    EENTRO =         0.00653335
  eigenvalues    EBANDS =       -47.07114713
  atomic energy  EATOM  =      3405.38964915
  Solvation  Ediel_sol  =         0.00000000
  ---------------------------------------------------
  free energy    TOTEN  =       -68.68631518 eV

  energy without entropy =      -68.69284853  energy(sigma->0) =      -68.68849296


--------------------------------------------------------------------------------------------------------




--------------------------------------- Iteration      1(  16)  ---------------------------------------


    POTLOK:  cpu time    0.2618: real time    0.2625
    SETDIJ:  cpu time    0.0279: real time    0.0281
     EDDAV:  cpu time    4.4934: real time    4.5041
       DOS:  cpu time    0.0036: real time    0.0036
    CHARGE:  cpu time    0.2668: real time    0.2675
    MIXING:  cpu time    0.0092: real time    0.0093
    --------------------------------------------
      LOOP:  cpu time    5.0628: real time    5.0751

 eigenvalue-minimisations  :  2456
 total energy-change (2. order) :-0.7041994E-04  (-0.2822317E-03)
 number of electron      71.9999992 magnetization       0.0052665
 augmentation part       10.5186616 magnetization       0.0008360

 Broyden mixing:
  rms(total) = 0.13004E-01    rms(broyden)= 0.13003E-01
  rms(prec ) = 0.15791E-01
  weight for this iteration     100.00

 eigenvalues of (default mixing * dielectric matrix)
  average eigenvalue GAMMA=   0.8143
  2.5248  1.8635  0.9031  0.9031  0.6051  0.6051  0.3397  0.3416  0.3416  0.2647
  0.2647

 Free energy of the ion-electron system (eV)
  ---------------------------------------------------
  alpha Z        PSCENC =       101.49540615
  Ewald energy   TEWEN  =     -2683.79588848
  -Hartree energ DENC   =      -904.73511472
  -exchange      EXHF   =         0.00000000
  -V(xc)+E(xc)   XCENC  =      -720.81081880
  PAW double counting   =      4399.50502425    -3618.86689586
  entropy T*S    EENTRO =         0.00628172
  eigenvalues    EBANDS =       -46.87402902
  atomic energy  EATOM  =      3405.38964915
  Solvation  Ediel_sol  =         0.00000000
  ---------------------------------------------------
  free energy    TOTEN  =       -68.68638560 eV

  energy without entropy =      -68.69266732  energy(sigma->0) =      -68.68847951


--------------------------------------------------------------------------------------------------------




--------------------------------------- Iteration      1(  17)  ---------------------------------------


    POTLOK:  cpu time    0.2763: real time    0.2776
    SETDIJ:  cpu time    0.0260: real time    0.0261
     EDDAV:  cpu time    4.2217: real time    4.2317
       DOS:  cpu time    0.0036: real time    0.0036
    CHARGE:  cpu time    0.2693: real time    0.2699
    MIXING:  cpu time    0.0086: real time    0.0086
    --------------------------------------------
      LOOP:  cpu time    4.8055: real time    4.8175

 eigenvalue-minimisations  :  2432
 total energy-change (2. order) : 0.5198840E-04  (-0.9691032E-04)
 number of electron      71.9999992 magnetization       0.0040081
 augmentation part       10.5147953 magnetization       0.0021819

 Broyden mixing:
  rms(total) = 0.58932E-02    rms(broyden)= 0.58928E-02
  rms(prec ) = 0.74156E-02
  weight for this iteration     100.00

 eigenvalues of (default mixing * dielectric matrix)
  average eigenvalue GAMMA=   0.8119
  2.5321  1.8083  1.1586  0.7612  0.7612  0.5924  0.5924  0.3369  0.3369  0.3283
  0.2641  0.2705

 Free energy of the ion-electron system (eV)
  ---------------------------------------------------
  alpha Z        PSCENC =       101.49540615
  Ewald energy   TEWEN  =     -2683.79588848
  -Hartree energ DENC   =      -904.81718462
  -exchange      EXHF   =         0.00000000
  -V(xc)+E(xc)   XCENC  =      -720.82974489
  PAW double counting   =      4399.85908312    -3619.22031682
  entropy T*S    EENTRO =         0.00629719
  eigenvalues    EBANDS =       -46.77363443
  atomic energy  EATOM  =      3405.38964915
  Solvation  Ediel_sol  =         0.00000000
  ---------------------------------------------------
  free energy    TOTEN  =       -68.68633361 eV

  energy without entropy =      -68.69263080  energy(sigma->0) =      -68.68843268


--------------------------------------------------------------------------------------------------------




--------------------------------------- Iteration      1(  18)  ---------------------------------------


    POTLOK:  cpu time    0.2714: real time    0.2723
    SETDIJ:  cpu time    0.0262: real time    0.0263
     EDDAV:  cpu time    4.2166: real time    4.2288
       DOS:  cpu time    0.0035: real time    0.0035
    CHARGE:  cpu time    0.2720: real time    0.2726
    MIXING:  cpu time    0.0072: real time    0.0072
    --------------------------------------------
      LOOP:  cpu time    4.7969: real time    4.8107

 eigenvalue-minimisations  :  2432
 total energy-change (2. order) :-0.4745301E-05  (-0.3044341E-04)
 number of electron      71.9999992 magnetization       0.0026478
 augmentation part       10.5136989 magnetization       0.0020010

 Broyden mixing:
  rms(total) = 0.31360E-02    rms(broyden)= 0.31356E-02
  rms(prec ) = 0.39017E-02
  weight for this iteration     100.00

 eigenvalues of (default mixing * dielectric matrix)
  average eigenvalue GAMMA=   0.8175
  2.5112  1.7847  1.4492  0.8330  0.8330  0.5991  0.5991  0.4167  0.4167  0.3376
  0.3144  0.2664  0.2664

 Free energy of the ion-electron system (eV)
  ---------------------------------------------------
  alpha Z        PSCENC =       101.49540615
  Ewald energy   TEWEN  =     -2683.79588848
  -Hartree energ DENC   =      -904.84831606
  -exchange      EXHF   =         0.00000000
  -V(xc)+E(xc)   XCENC  =      -720.82197979
  PAW double counting   =      4399.87079024    -3619.22489983
  entropy T*S    EENTRO =         0.00629144
  eigenvalues    EBANDS =       -46.75739118
  atomic energy  EATOM  =      3405.38964915
  Solvation  Ediel_sol  =         0.00000000
  ---------------------------------------------------
  free energy    TOTEN  =       -68.68633836 eV

  energy without entropy =      -68.69262980  energy(sigma->0) =      -68.68843550


--------------------------------------------------------------------------------------------------------




--------------------------------------- Iteration      1(  19)  ---------------------------------------


    POTLOK:  cpu time    0.2756: real time    0.2764
    SETDIJ:  cpu time    0.0273: real time    0.0274
     EDDAV:  cpu time    4.1891: real time    4.1995
       DOS:  cpu time    0.0034: real time    0.0034
    CHARGE:  cpu time    0.2678: real time    0.2684
    MIXING:  cpu time    0.0113: real time    0.0113
    --------------------------------------------
      LOOP:  cpu time    4.7745: real time    4.7865

 eigenvalue-minimisations  :  2405
 total energy-change (2. order) :-0.5412660E-05  (-0.8069802E-05)
 number of electron      71.9999992 magnetization       0.0019689
 augmentation part       10.5149597 magnetization       0.0012132

 Broyden mixing:
  rms(total) = 0.24700E-02    rms(broyden)= 0.24699E-02
  rms(prec ) = 0.30998E-02
  weight for this iteration     100.00

 eigenvalues of (default mixing * dielectric matrix)
  average eigenvalue GAMMA=   0.8219
  2.4928  1.7830  1.7830  0.8898  0.8898  0.6230  0.6230  0.5155  0.3534  0.3534
  0.3487  0.3195  0.2662  0.2662

 Free energy of the ion-electron system (eV)
  ---------------------------------------------------
  alpha Z        PSCENC =       101.49540615
  Ewald energy   TEWEN  =     -2683.79588848
  -Hartree energ DENC   =      -904.85700989
  -exchange      EXHF   =         0.00000000
  -V(xc)+E(xc)   XCENC  =      -720.81963619
  PAW double counting   =      4399.94776396    -3619.29511841
  entropy T*S    EENTRO =         0.00631509
  eigenvalues    EBANDS =       -46.75782515
  atomic energy  EATOM  =      3405.38964915
  Solvation  Ediel_sol  =         0.00000000
  ---------------------------------------------------
  free energy    TOTEN  =       -68.68634377 eV

  energy without entropy =      -68.69265886  energy(sigma->0) =      -68.68844880


--------------------------------------------------------------------------------------------------------




--------------------------------------- Iteration      1(  20)  ---------------------------------------


    POTLOK:  cpu time    0.2694: real time    0.2702
    SETDIJ:  cpu time    0.0269: real time    0.0269
     EDDAV:  cpu time    4.0411: real time    4.0514
       DOS:  cpu time    0.0032: real time    0.0032
    CHARGE:  cpu time    0.2719: real time    0.2726
    MIXING:  cpu time    0.0067: real time    0.0068
    --------------------------------------------
      LOOP:  cpu time    4.6191: real time    4.6309

 eigenvalue-minimisations  :  2368
 total energy-change (2. order) : 0.2681368E-06  (-0.3531936E-05)
 number of electron      71.9999992 magnetization       0.0013593
 augmentation part       10.5158323 magnetization       0.0007295

 Broyden mixing:
  rms(total) = 0.10137E-02    rms(broyden)= 0.10136E-02
  rms(prec ) = 0.12682E-02
  weight for this iteration     100.00

 eigenvalues of (default mixing * dielectric matrix)
  average eigenvalue GAMMA=   0.8365
  2.5516  1.8851  1.8851  0.9554  0.9554  0.6667  0.6667  0.5500  0.5500  0.3762
  0.2664  0.2664  0.3416  0.3157  0.3157

 Free energy of the ion-electron system (eV)
  ---------------------------------------------------
  alpha Z        PSCENC =       101.49540615
  Ewald energy   TEWEN  =     -2683.79588848
  -Hartree energ DENC   =      -904.86136763
  -exchange      EXHF   =         0.00000000
  -V(xc)+E(xc)   XCENC  =      -720.81798497
  PAW double counting   =      4400.04196807    -3619.38625887
  entropy T*S    EENTRO =         0.00632347
  eigenvalues    EBANDS =       -46.75819039
  atomic energy  EATOM  =      3405.38964915
  Solvation  Ediel_sol  =         0.00000000
  ---------------------------------------------------
  free energy    TOTEN  =       -68.68634350 eV

  energy without entropy =      -68.69266697  energy(sigma->0) =      -68.68845133


--------------------------------------------------------------------------------------------------------




--------------------------------------- Iteration      1(  21)  ---------------------------------------


    POTLOK:  cpu time    0.2895: real time    0.2905
    SETDIJ:  cpu time    0.0302: real time    0.0303
     EDDAV:  cpu time    3.7465: real time    3.7553
       DOS:  cpu time    0.0035: real time    0.0035
    CHARGE:  cpu time    0.2712: real time    0.2718
    MIXING:  cpu time    0.0098: real time    0.0098
    --------------------------------------------
      LOOP:  cpu time    4.3507: real time    4.3612

 eigenvalue-minimisations  :  2034
 total energy-change (2. order) :-0.2595822E-05  (-0.1044522E-05)
 number of electron      71.9999992 magnetization       0.0007292
 augmentation part       10.5164107 magnetization       0.0004460

 Broyden mixing:
  rms(total) = 0.57402E-03    rms(broyden)= 0.57397E-03
  rms(prec ) = 0.77058E-03
  weight for this iteration     100.00

 eigenvalues of (default mixing * dielectric matrix)
  average eigenvalue GAMMA=   0.8565
  2.6546  1.9139  1.9139  1.2432  0.8680  0.8680  0.6201  0.6201  0.5525  0.5525
  0.3886  0.2665  0.2665  0.3417  0.3170  0.3170

 Free energy of the ion-electron system (eV)
  ---------------------------------------------------
  alpha Z        PSCENC =       101.49540615
  Ewald energy   TEWEN  =     -2683.79588848
  -Hartree energ DENC   =      -904.86636914
  -exchange      EXHF   =         0.00000000
  -V(xc)+E(xc)   XCENC  =      -720.81577168
  PAW double counting   =      4400.19617316    -3619.54012371
  entropy T*S    EENTRO =         0.00632051
  eigenvalues    EBANDS =       -46.75574207
  atomic energy  EATOM  =      3405.38964915
  Solvation  Ediel_sol  =         0.00000000
  ---------------------------------------------------
  free energy    TOTEN  =       -68.68634610 eV

  energy without entropy =      -68.69266661  energy(sigma->0) =      -68.68845294


--------------------------------------------------------------------------------------------------------




--------------------------------------- Iteration      1(  22)  ---------------------------------------


    POTLOK:  cpu time    0.2751: real time    0.2759
    SETDIJ:  cpu time    0.0281: real time    0.0281
     EDDAV:  cpu time    2.5652: real time    2.5714
       DOS:  cpu time    0.0035: real time    0.0035
    CHARGE:  cpu time    0.2770: real time    0.2777
    MIXING:  cpu time    0.0101: real time    0.0102
    --------------------------------------------
      LOOP:  cpu time    3.1591: real time    3.1669

 eigenvalue-minimisations  :  1240
 total energy-change (2. order) :-0.1147863E-05  (-0.2543313E-06)
 number of electron      71.9999992 magnetization       0.0004458
 augmentation part       10.5165478 magnetization       0.0001896

 Broyden mixing:
  rms(total) = 0.29666E-03    rms(broyden)= 0.29664E-03
  rms(prec ) = 0.37369E-03
  weight for this iteration     100.00

 eigenvalues of (default mixing * dielectric matrix)
  average eigenvalue GAMMA=   0.8807
  2.7413  1.9812  1.9812  1.5183  0.9099  0.9099  0.6329  0.6329  0.6047  0.6047
  0.5469  0.3924  0.2664  0.2664  0.3424  0.3200  0.3200

 Free energy of the ion-electron system (eV)
  ---------------------------------------------------
  alpha Z        PSCENC =       101.49540615
  Ewald energy   TEWEN  =     -2683.79588848
  -Hartree energ DENC   =      -904.87352596
  -exchange      EXHF   =         0.00000000
  -V(xc)+E(xc)   XCENC  =      -720.81497592
  PAW double counting   =      4400.30553435    -3619.64936140
  entropy T*S    EENTRO =         0.00631504
  eigenvalues    EBANDS =       -46.74950018
  atomic energy  EATOM  =      3405.38964915
  Solvation  Ediel_sol  =         0.00000000
  ---------------------------------------------------
  free energy    TOTEN  =       -68.68634725 eV

  energy without entropy =      -68.69266228  energy(sigma->0) =      -68.68845226


--------------------------------------------------------------------------------------------------------




--------------------------------------- Iteration      1(  23)  ---------------------------------------


    POTLOK:  cpu time    0.2809: real time    0.2816
    SETDIJ:  cpu time    0.0270: real time    0.0271
     EDDAV:  cpu time    2.4533: real time    2.4591
       DOS:  cpu time    0.0032: real time    0.0032
    --------------------------------------------
      LOOP:  cpu time    2.7643: real time    2.7710

 eigenvalue-minimisations  :  1160
 total energy-change (2. order) :-0.3145574E-06  (-0.1304917E-06)
 number of electron      71.9999992 magnetization       0.0004458
 augmentation part       10.5165478 magnetization       0.0001896

 Free energy of the ion-electron system (eV)
  ---------------------------------------------------
  alpha Z        PSCENC =       101.49540615
  Ewald energy   TEWEN  =     -2683.79588848
  -Hartree energ DENC   =      -904.87830072
  -exchange      EXHF   =         0.00000000
  -V(xc)+E(xc)   XCENC  =      -720.81459160
  PAW double counting   =      4400.31568457    -3619.65911904
  entropy T*S    EENTRO =         0.00631720
  eigenvalues    EBANDS =       -46.74550480
  atomic energy  EATOM  =      3405.38964915
  Solvation  Ediel_sol  =         0.00000000
  ---------------------------------------------------
  free energy    TOTEN  =       -68.68634756 eV

  energy without entropy =      -68.69266476  energy(sigma->0) =      -68.68845329


--------------------------------------------------------------------------------------------------------




 average (electrostatic) potential at core
  the test charge radii are     1.0210  1.4024
  (the norm of the test charge is              1.0000)
       1 -47.0158       2 -47.0392       3 -47.0053       4 -47.0159       5 -47.0392
       6 -47.0057       7 -63.3610       8 -63.4041       9 -63.3425      10 -63.3610
      11 -63.4041      12 -63.3425
 
 
 
 E-fermi :   2.7672     XC(G=0):  -8.7828     alpha+bet : -8.1043


 spin component 1

 k-point     1 :       0.0000    0.0000    0.0000
  band No.  band energies     occupation 
      1      -8.1074      1.00000
      2      -7.6156      1.00000
      3      -7.5905      1.00000
      4      -7.3466      1.00000
      5      -7.3153      1.00000
      6      -7.1339      1.00000
      7      -0.8310      1.00000
      8      -0.5986      1.00000
      9      -0.5238      1.00000
     10      -0.4028      1.00000
     11      -0.3663      1.00000
     12      -0.1242      1.00000
     13      -0.1171      1.00000
     14      -0.0123      1.00000
     15       0.0462      1.00000
     16       0.0612      1.00000
     17       0.1742      1.00000
     18       0.1862      1.00000
     19       0.2420      1.00000
     20       0.2975      1.00000
     21       0.3087      1.00000
     22       0.3726      1.00000
     23       0.4494      1.00000
     24       0.6297      1.00000
     25       0.7310      1.00000
     26       0.8284      1.00000
     27       1.6720      1.00000
     28       1.7726      1.00000
     29       1.9269      1.00000
     30       2.0058      1.00000
     31       2.0894      1.00000
     32       2.1316      1.00000
     33       2.6672      1.02509
     34       2.7805      0.38869
     35       2.8733     -0.03036
     36       3.0129     -0.00140
     37       3.2673     -0.00000
     38       3.3259     -0.00000
     39       3.6398     -0.00000
     40       3.8216     -0.00000
     41       3.9136     -0.00000
     42       3.9651     -0.00000
     43       4.0200     -0.00000

 k-point     2 :       0.3333    0.0000    0.0000
  band No.  band energies     occupation 
      1      -7.7294      1.00000
      2      -7.3855      1.00000
      3      -7.3528      1.00000
      4      -7.2122      1.00000
      5      -7.2001      1.00000
      6      -7.1531      1.00000
      7      -0.5419      1.00000
      8      -0.5112      1.00000
      9      -0.3554      1.00000
     10      -0.2851      1.00000
     11      -0.1697      1.00000
     12      -0.1001      1.00000
     13      -0.0227      1.00000
     14      -0.0036      1.00000
     15       0.0122      1.00000
     16       0.0497      1.00000
     17       0.0976      1.00000
     18       0.1150      1.00000
     19       0.2308      1.00000
     20       0.2859      1.00000
     21       0.3033      1.00000
     22       0.3445      1.00000
     23       0.3517      1.00000
     24       0.4668      1.00000
     25       0.7464      1.00000
     26       0.8687      1.00000
     27       0.9912      1.00000
     28       1.1560      1.00000
     29       1.2019      1.00000
     30       1.4586      1.00000
     31       1.6634      1.00000
     32       1.7257      1.00000
     33       1.9695      1.00000
     34       2.3264      1.00000
     35       2.4417      1.00002
     36       2.4562      1.00005
     37       2.6674      1.02492
     38       2.7592      0.56770
     39       3.1511     -0.00000
     40       3.6804     -0.00000
     41       3.8283     -0.00000
     42       3.8414     -0.00000
     43       3.9880     -0.00000

 k-point     3 :       0.0000    0.5000    0.0000
  band No.  band energies     occupation 
      1      -7.9661      1.00000
      2      -7.9372      1.00000
      3      -7.4094      1.00000
      4      -7.3909      1.00000
      5      -7.2160      1.00000
      6      -7.1838      1.00000
      7      -0.8000      1.00000
      8      -0.6799      1.00000
      9      -0.6298      1.00000
     10      -0.5489      1.00000
     11      -0.1939      1.00000
     12      -0.1113      1.00000
     13      -0.0666      1.00000
     14      -0.0253      1.00000
     15       0.0557      1.00000
     16       0.0997      1.00000
     17       0.1592      1.00000
     18       0.2010      1.00000
     19       0.2492      1.00000
     20       0.2969      1.00000
     21       0.3226      1.00000
     22       0.3579      1.00000
     23       0.4536      1.00000
     24       0.5454      1.00000
     25       0.6789      1.00000
     26       1.3286      1.00000
     27       1.4867      1.00000
     28       1.7415      1.00000
     29       1.8204      1.00000
     30       1.9088      1.00000
     31       2.0801      1.00000
     32       2.2630      1.00000
     33       2.6210      1.02930
     34       2.7330      0.77138
     35       2.7472      0.66558
     36       3.0198     -0.00103
     37       3.2608     -0.00000
     38       3.4036     -0.00000
     39       3.6534     -0.00000
     40       3.7235     -0.00000
     41       4.0032     -0.00000
     42       4.0554     -0.00000
     43       4.0725     -0.00000

 k-point     4 :       0.3333    0.5000    0.0000
  band No.  band energies     occupation 
      1      -7.6279      1.00000
      2      -7.5968      1.00000
      3      -7.2720      1.00000
      4      -7.2045      1.00000
      5      -7.1999      1.00000
      6      -7.1300      1.00000
      7      -0.4782      1.00000
      8      -0.4432      1.00000
      9      -0.4210      1.00000
     10      -0.2961      1.00000
     11      -0.2058      1.00000
     12      -0.1731      1.00000
     13      -0.0716      1.00000
     14      -0.0335      1.00000
     15       0.0007      1.00000
     16       0.0291      1.00000
     17       0.0847      1.00000
     18       0.1600      1.00000
     19       0.2477      1.00000
     20       0.2654      1.00000
     21       0.3466      1.00000
     22       0.3769      1.00000
     23       0.3834      1.00000
     24       0.4301      1.00000
     25       0.5300      1.00000
     26       1.0014      1.00000
     27       1.0661      1.00000
     28       1.2627      1.00000
     29       1.3856      1.00000
     30       1.5130      1.00000
     31       1.5749      1.00000
     32       1.8536      1.00000
     33       2.0007      1.00000
     34       2.1968      1.00000
     35       2.2620      1.00000
     36       2.5282      1.00187
     37       2.6129      1.02569
     38       2.8434      0.02023
     39       2.8646     -0.02223
     40       3.6052     -0.00000
     41       3.8657     -0.00000
     42       3.8996     -0.00000
     43       3.9777     -0.00000

 k-point     5 :       0.0000    0.0000    0.5000
  band No.  band energies     occupation 
      1      -7.8421      1.00000
      2      -7.7831      1.00000
      3      -7.4636      1.00000
      4      -7.4184      1.00000
      5      -7.3829      1.00000
      6      -7.3125      1.00000
      7      -0.5820      1.00000
      8      -0.5007      1.00000
      9      -0.3392      1.00000
     10      -0.3361      1.00000
     11      -0.2731      1.00000
     12      -0.1358      1.00000
     13      -0.1213      1.00000
     14      -0.0082      1.00000
     15       0.0107      1.00000
     16       0.0362      1.00000
     17       0.2125      1.00000
     18       0.2307      1.00000
     19       0.2420      1.00000
     20       0.3023      1.00000
     21       0.3733      1.00000
     22       0.4047      1.00000
     23       0.4620      1.00000
     24       0.6723      1.00000
     25       0.9190      1.00000
     26       1.1197      1.00000
     27       1.3644      1.00000
     28       1.6499      1.00000
     29       1.8034      1.00000
     30       1.9120      1.00000
     31       2.0839      1.00000
     32       2.1917      1.00000
     33       2.2993      1.00000
     34       2.3195      1.00000
     35       2.5029      1.00060
     36       3.1076     -0.00001
     37       3.2737     -0.00000
     38       3.4094     -0.00000
     39       3.7251     -0.00000
     40       3.8790     -0.00000
     41       3.9384     -0.00000
     42       4.0050     -0.00000
     43       4.0723     -0.00000

 k-point     6 :       0.3333    0.0000    0.5000
  band No.  band energies     occupation 
      1      -7.5645      1.00000
      2      -7.4896      1.00000
      3      -7.3504      1.00000
      4      -7.2676      1.00000
      5      -7.2079      1.00000
      6      -7.1657      1.00000
      7      -0.7251      1.00000
      8      -0.7024      1.00000
      9      -0.5052      1.00000
     10      -0.4180      1.00000
     11      -0.3245      1.00000
     12      -0.2945      1.00000
     13      -0.1038      1.00000
     14      -0.0232      1.00000
     15       0.0731      1.00000
     16       0.1458      1.00000
     17       0.1939      1.00000
     18       0.2081      1.00000
     19       0.2388      1.00000
     20       0.3100      1.00000
     21       0.3439      1.00000
     22       0.4632      1.00000
     23       0.4705      1.00000
     24       0.6140      1.00000
     25       0.6823      1.00000
     26       0.7790      1.00000
     27       0.8156      1.00000
     28       1.4408      1.00000
     29       1.6866      1.00000
     30       1.7411      1.00000
     31       1.8971      1.00000
     32       2.0241      1.00000
     33       2.0948      1.00000
     34       2.1573      1.00000
     35       2.4895      1.00031
     36       2.5154      1.00107
     37       2.6830      1.00006
     38       2.8702     -0.02798
     39       3.0893     -0.00003
     40       3.6404     -0.00000
     41       3.7188     -0.00000
     42       3.8706     -0.00000
     43       3.9316     -0.00000

 k-point     7 :       0.0000    0.5000    0.5000
  band No.  band energies     occupation 
      1      -7.7465      1.00000
      2      -7.6887      1.00000
      3      -7.6662      1.00000
      4      -7.6269      1.00000
      5      -7.2759      1.00000
      6      -7.1928      1.00000
      7      -0.5325      1.00000
      8      -0.3965      1.00000
      9      -0.3645      1.00000
     10      -0.3301      1.00000
     11      -0.2548      1.00000
     12      -0.1718      1.00000
     13      -0.1085      1.00000
     14      -0.0381      1.00000
     15      -0.0048      1.00000
     16       0.0532      1.00000
     17       0.0677      1.00000
     18       0.2456      1.00000
     19       0.2512      1.00000
     20       0.3029      1.00000
     21       0.3596      1.00000
     22       0.3859      1.00000
     23       0.4234      1.00000
     24       0.4406      1.00000
     25       1.0348      1.00000
     26       1.0856      1.00000
     27       1.4669      1.00000
[...]
     34       2.4970      1.00045
     35       2.9667     -0.00812
     36       2.9860     -0.00416
     37       3.4148     -0.00000
     38       3.4671     -0.00000
     39       3.6471     -0.00000
     40       3.8435     -0.00000
     41       4.0072     -0.00000
     42       4.0980     -0.00000
     43       4.1552     -0.00000

 k-point     8 :       0.3333    0.5000    0.5000
  band No.  band energies     occupation 
      1      -7.5085      1.00000
      2      -7.4763      1.00000
      3      -7.4148      1.00000
      4      -7.3487      1.00000
      5      -7.1934      1.00000
      6      -7.1039      1.00000
      7      -0.6524      1.00000
      8      -0.6182      1.00000
      9      -0.5142      1.00000
     10      -0.4613      1.00000
     11      -0.4114      1.00000
     12      -0.3949      1.00000
     13       0.0061      1.00000
     14       0.0179      1.00000
     15       0.1074      1.00000
     16       0.1532      1.00000
     17       0.1634      1.00000
     18       0.2193      1.00000
     19       0.2707      1.00000
     20       0.3093      1.00000
     21       0.3531      1.00000
     22       0.4603      1.00000
     23       0.4920      1.00000
     24       0.5690      1.00000
     25       0.6459      1.00000
     26       0.7660      1.00000
     27       0.9977      1.00000
     28       1.1108      1.00000
     29       1.2444      1.00000
     30       1.7556      1.00000
     31       1.9971      1.00000
     32       2.1294      1.00000
     33       2.1728      1.00000
     34       2.2264      1.00000
     35       2.3593      1.00000
     36       2.6524      1.03445
     37       2.8711     -0.02872
     38       2.9482     -0.01407
     39       3.0272     -0.00073
     40       3.6548     -0.00000
     41       3.7551     -0.00000
     42       3.8531     -0.00000
     43       3.8759     -0.00000


--------------------------------------------------------------------------------------------------------


 soft charge-density along one line, spin component           1
         0         1         2         3         4         5         6         7         8         9
 total charge-density along one line
 
 soft charge-density along one line, spin component           2
         0         1         2         3         4         5         6         7         8         9
 total charge-density along one line
 
 pseudopotential strength for first ion, spin component:           1
 -8.394   0.000  -0.000   0.023  -0.000  -8.911   0.000  -0.000
  0.000  -8.394  -0.004   0.000   0.073   0.000  -8.911  -0.004
 -0.000  -0.004  -8.362   0.000   0.015  -0.000  -0.004  -8.879
  0.023   0.000   0.000  -8.445  -0.000   0.023   0.000   0.000
 -0.000   0.073   0.015  -0.000  -8.366  -0.000   0.072   0.014
 -8.911   0.000  -0.000   0.023  -0.000  -9.403   0.000  -0.000
  0.000  -8.911  -0.004   0.000   0.072   0.000  -9.403  -0.004
 -0.000  -0.004  -8.879   0.000   0.014  -0.000  -0.004  -9.371
  0.023   0.000   0.000  -8.961  -0.000   0.023   0.000   0.000
 -0.000   0.072   0.014  -0.000  -8.883  -0.000   0.071   0.014
 -0.000   0.008   0.002  -0.000   0.006  -0.000   0.008   0.002
 -0.000   0.015   0.003  -0.000   0.011  -0.000   0.015   0.003
 -0.000   0.007  -0.002   0.000   0.006  -0.000   0.007  -0.002
  0.000   0.003  -0.011  -0.000  -0.000  -0.000   0.003  -0.011
  0.013   0.000   0.000   0.007  -0.000   0.012  -0.000   0.000
 -0.000   0.008  -0.001   0.000   0.008  -0.000   0.008  -0.001
  0.000   0.004  -0.013  -0.000  -0.000   0.000   0.004  -0.013
  0.014   0.000   0.000   0.008  -0.000   0.014   0.000   0.000
 pseudopotential strength for first ion, spin component:           2
 -6.156  -0.000   0.000  -0.082   0.000  -6.715  -0.000   0.000
 -0.000  -6.130  -0.016   0.000  -0.069  -0.000  -6.689  -0.016
  0.000  -0.016  -6.232  -0.000   0.021   0.000  -0.016  -6.790
 -0.082   0.000  -0.000  -6.125   0.000  -0.082   0.000  -0.000
  0.000  -0.069   0.021   0.000  -6.182   0.000  -0.069   0.021
 -6.715  -0.000   0.000  -0.082   0.000  -7.248  -0.000   0.000
 -0.000  -6.689  -0.016   0.000  -0.069  -0.000  -7.223  -0.016
  0.000  -0.016  -6.790  -0.000   0.021   0.000  -0.016  -7.323
 -0.082   0.000  -0.000  -6.683   0.000  -0.081   0.000  -0.000
  0.000  -0.069   0.021   0.000  -6.740   0.000  -0.068   0.021
  0.000   0.002   0.002  -0.000   0.002   0.000   0.002   0.002
  0.000   0.003   0.003  -0.000   0.004   0.000   0.003   0.003
 -0.000  -0.005  -0.005  -0.000  -0.012  -0.000  -0.005  -0.005
 -0.000   0.005   0.005  -0.000   0.000  -0.000   0.005   0.005
  0.002  -0.000   0.000  -0.005  -0.000   0.002  -0.000   0.000
 -0.000  -0.007  -0.006  -0.000  -0.016  -0.000  -0.007  -0.006
 -0.000   0.006   0.008  -0.000   0.000  -0.000   0.006   0.008
  0.001  -0.000   0.000  -0.007  -0.000   0.001  -0.000   0.000
 total augmentation occupancy for first ion, spin component:           1
  2.586  -0.000   0.000  -0.068  -0.000  -1.184   0.000  -0.000  -0.049   0.000   0.000  -0.000  -0.000   0.000  -0.105   0.000
 -0.000   2.668  -0.047  -0.000  -0.031   0.000  -1.168   0.036   0.000  -0.071  -0.037   0.017  -0.092  -0.012   0.000   0.004
  0.000  -0.047   2.590  -0.000   0.086  -0.000   0.034  -1.252   0.000  -0.056  -0.005   0.002  -0.014   0.159   0.000  -0.002
 -0.068  -0.000  -0.000   2.791  -0.000  -0.047   0.000   0.000  -1.252   0.000   0.000   0.000  -0.000  -0.000  -0.096  -0.000
 -0.000  -0.031   0.086  -0.000   2.816   0.000  -0.069  -0.057   0.000  -1.335  -0.033   0.016  -0.144   0.003  -0.000   0.003
 -1.184   0.000  -0.000  -0.047   0.000   0.907   0.000   0.000   0.194  -0.000  -0.000   0.000   0.000  -0.000   0.166  -0.000
  0.000  -1.168   0.034   0.000  -0.069   0.000   0.805  -0.021  -0.000   0.233   0.004  -0.006   0.134   0.007   0.000  -0.006
 -0.000   0.036  -1.252   0.000  -0.057   0.000  -0.021   1.085   0.000   0.036   0.002  -0.000   0.010  -0.226   0.000   0.000
 -0.049   0.000   0.000  -1.252   0.000   0.194  -0.000   0.000   0.827  -0.000  -0.000  -0.000  -0.000   0.000   0.134   0.000
  0.000  -0.071  -0.056   0.000  -1.335  -0.000   0.233   0.036  -0.000   1.042  -0.001  -0.005   0.200  -0.002   0.000  -0.008
  0.000  -0.037  -0.005   0.000  -0.033  -0.000   0.004   0.002  -0.000  -0.001   1.598  -0.100  -0.006  -0.000  -0.000   0.001
 -0.000   0.017   0.002   0.000   0.016   0.000  -0.006  -0.000  -0.000  -0.005  -0.100   0.016   0.000  -0.000  -0.000  -0.000
 -0.000  -0.092  -0.014  -0.000  -0.144   0.000   0.134   0.010  -0.000   0.200  -0.006   0.000   0.122  -0.001   0.000  -0.005
  0.000  -0.012   0.159  -0.000   0.003  -0.000   0.007  -0.226   0.000  -0.002  -0.000  -0.000  -0.001   0.116  -0.000   0.000
 -0.105   0.000   0.000  -0.096  -0.000   0.166   0.000   0.000   0.134   0.000  -0.000  -0.000   0.000  -0.000   0.108   0.000
  0.000   0.004  -0.002  -0.000   0.003  -0.000  -0.006   0.000   0.000  -0.008   0.001  -0.000  -0.005   0.000   0.000   0.000
 -0.000   0.003  -0.007   0.000  -0.000   0.000  -0.001   0.010  -0.000   0.000  -0.000   0.000   0.000  -0.005   0.000  -0.000
  0.008  -0.000  -0.000   0.003   0.000  -0.009   0.000   0.000  -0.005  -0.000   0.000   0.000   0.000   0.000  -0.005  -0.000
 total augmentation occupancy for first ion, spin component:           2
  2.347  -0.000   0.000  -0.175   0.000  -0.794   0.000  -0.000   0.116  -0.000  -0.000  -0.000  -0.000   0.000  -0.005   0.000
 -0.000   2.508  -0.048  -0.000  -0.142   0.000  -0.921   0.035   0.000   0.067  -0.008   0.016  -0.032  -0.006   0.000  -0.001
  0.000  -0.048   2.276  -0.000   0.087  -0.000   0.040  -0.775   0.000  -0.071  -0.010   0.002  -0.022   0.051   0.000  -0.001
 -0.175  -0.000  -0.000   2.637  -0.000   0.113   0.000   0.000  -1.005   0.000   0.000   0.000   0.000  -0.000  -0.032  -0.000
  0.000  -0.142   0.087  -0.000   2.574  -0.000   0.067  -0.067   0.000  -0.987  -0.004   0.014  -0.061   0.002  -0.000  -0.003
 -0.794   0.000  -0.000   0.113  -0.000   0.128  -0.000   0.000  -0.133   0.000   0.000   0.000   0.000  -0.000  -0.038  -0.000
  0.000  -0.921   0.040   0.000   0.067  -0.000   0.242  -0.034  -0.000  -0.108   0.016  -0.005  -0.008   0.005  -0.000   0.001
 -0.000   0.035  -0.775   0.000  -0.067   0.000  -0.034   0.076  -0.000   0.054   0.006  -0.001   0.015   0.011   0.000   0.000
  0.116   0.000   0.000  -1.005   0.000  -0.133  -0.000  -0.000   0.332   0.000  -0.000   0.000  -0.000   0.000  -0.006   0.000
 -0.000   0.067  -0.071   0.000  -0.987   0.000  -0.108   0.054   0.000   0.255   0.019  -0.005   0.001  -0.001   0.000   0.002
 -0.000  -0.008  -0.010   0.000  -0.004   0.000   0.016   0.006  -0.000   0.019  -0.124   0.084   0.007   0.000  -0.000   0.001
 -0.000   0.016   0.002   0.000   0.014   0.000  -0.005  -0.001   0.000  -0.005   0.084  -0.007   0.000   0.000   0.000  -0.000
 -0.000  -0.032  -0.022   0.000  -0.061   0.000  -0.008   0.015  -0.000   0.001   0.007   0.000   0.013  -0.002   0.000   0.000
  0.000  -0.006   0.051  -0.000   0.002  -0.000   0.005   0.011   0.000  -0.001   0.000   0.000  -0.002   0.013  -0.000   0.000
 -0.005   0.000   0.000  -0.032  -0.000  -0.038  -0.000   0.000  -0.006   0.000  -0.000   0.000   0.000  -0.000   0.006  -0.000
  0.000  -0.001  -0.001  -0.000  -0.003  -0.000   0.001   0.000   0.000   0.002   0.001  -0.000   0.000   0.000  -0.000  -0.000
 -0.000   0.003   0.000   0.000  -0.000   0.000  -0.001  -0.001  -0.000   0.000  -0.000   0.000   0.000   0.000   0.000  -0.000
  0.002  -0.000  -0.000  -0.001   0.000   0.001   0.000   0.000   0.001  -0.000   0.000   0.000   0.000  -0.000   0.000   0.000


------------------------ aborting loop because EDIFF is reached ----------------------------------------


 


 total charge     
 
# of ion       s       p       d       tot
------------------------------------------
    1        0.309   0.197   4.962   5.469
    2        0.311   0.199   4.954   5.463
    3        0.308   0.195   4.965   5.468
    4        0.309   0.197   4.962   5.469
    5        0.311   0.199   4.953   5.463
    6        0.308   0.195   4.965   5.468
    7        1.678   2.233   0.064   3.974
    8        1.681   2.223   0.065   3.968
    9        1.680   2.231   0.063   3.975
   10        1.678   2.233   0.064   3.974
   11        1.681   2.223   0.065   3.968
   12        1.680   2.231   0.063   3.975
--------------------------------------------------
tot         11.935  14.556  30.145  56.636
 


 magnetization (x)
 
# of ion       s       p       d       tot
------------------------------------------
    1        0.039   0.021   3.690   3.749
    2        0.045   0.022   3.728   3.795
    3        0.044   0.019   3.688   3.752
    4       -0.039  -0.021  -3.690  -3.749
    5       -0.045  -0.022  -3.728  -3.795
    6       -0.044  -0.019  -3.688  -3.752
    7       -0.000  -0.009   0.001  -0.008
    8        0.001   0.243  -0.017   0.227
    9        0.002   0.278  -0.018   0.263
   10        0.000   0.009  -0.001   0.008
   11       -0.001  -0.243   0.017  -0.227
   12       -0.002  -0.278   0.018  -0.263
--------------------------------------------------
tot         -0.000   0.000   0.000   0.000
 
    CHARGE:  cpu time    0.2697: real time    0.2703
    FORLOC:  cpu time    0.0160: real time    0.0160
    FORNL :  cpu time    1.4128: real time    1.4161
    STRESS:  cpu time    1.3847: real time    1.3883
    FORCOR:  cpu time    0.2803: real time    0.2810
    FORHAR:  cpu time    0.0381: real time    0.0382
    MIXING:  cpu time    0.0101: real time    0.0101
    OFIELD:  cpu time    0.0000: real time    0.0000

  FORCE on cell =-STRESS in cart. coord.  units (eV):
  Direction    XX          YY          ZZ          XY          YZ          ZX
  --------------------------------------------------------------------------------------
  Alpha Z   101.49541   101.49541   101.49541
  Ewald    -894.60019  -894.60028  -894.60037     0.00003     0.00004     0.00002
  Hartree   300.45973   303.89088   300.53965     0.00001    -1.90480     0.00002
  E(xc)    -340.44095  -341.55262  -340.69516     0.00000     0.43350    -0.00000
  Local    -147.83600  -163.05058  -149.57103    -0.00004     5.65110    -0.00005
  n-local   325.46911   332.27681   327.23136     0.00001    -1.04467    -0.00001
  augment    25.34787    23.96409    24.80314    -0.00000    -0.51373     0.00001
  Kinetic   626.96779   639.53811   629.88501    -0.00002    -3.87817     0.00002
  Fock        0.00000     0.00000     0.00000     0.00000     0.00000     0.00000
  -------------------------------------------------------------------------------------
  Total      -3.13723     1.96181    -0.91200    -0.00001    -1.25674    -0.00000
  in kB     -12.99636     8.12703    -3.77808    -0.00004    -5.20620    -0.00000
  external pressure =       -2.88 kB  Pullay stress =        0.00 kB


 VOLUME and BASIS-vectors are now :
 -----------------------------------------------------------------------------
  energy-cutoff  :      500.00
  volume of cell :      386.75
      direct lattice vectors                 reciprocal lattice vectors
     4.500557900  0.000000000  0.000000000     0.222194675  0.000000003  0.000000002
    -0.000000100  0.000000100 11.024070300     0.000000000  0.000000000  0.090710597
     0.000000100 -7.795195000  0.000000000     0.000000000 -0.128284155  0.000000001

  length of vectors
     4.500557900 11.024070300  7.795195000     0.222194675  0.090710597  0.128284155


 FORCES acting on ions
    electron-ion (+dipol)            ewald-force                    non-local-force                 convergence-correction
 -----------------------------------------------------------------------------------------------
   0.149E-04 -.169E+00 0.664E-01   -.285E-05 -.252E-05 -.119E-05   -.924E-05 0.259E+00 -.661E-01   -.714E-05 0.357E-03 -.142E-03
   -.111E-04 0.134E+00 0.106E+00   -.285E-05 -.258E-05 -.310E-05   0.138E-04 -.359E-01 -.225E-01   0.423E-05 0.472E-03 0.629E-03
   0.304E-05 -.149E+00 0.916E-01   -.285E-05 -.250E-05 -.202E-05   0.242E-05 0.124E+00 -.713E-01   0.160E-05 0.657E-04 -.411E-03
   0.948E-05 -.169E+00 0.667E-01   -.285E-05 -.252E-05 -.119E-05   -.238E-04 0.259E+00 -.661E-01   0.725E-05 -.375E-03 -.423E-03
   0.916E-05 0.135E+00 0.106E+00   -.285E-05 -.258E-05 -.310E-05   -.111E-04 -.358E-01 -.226E-01   0.539E-05 -.687E-03 0.511E-03
   0.841E-06 -.149E+00 0.915E-01   -.285E-05 -.250E-05 -.202E-05   0.351E-05 0.124E+00 -.713E-01   0.475E-06 -.135E-03 -.216E-03
   -.725E-06 -.804E-01 -.288E+00   0.285E-05 0.250E-05 0.202E-05   -.376E-05 0.111E+00 0.239E+00   -.923E-06 -.111E-02 -.721E-03
   -.449E-05 -.305E+00 -.148E+00   0.285E-05 0.258E-05 0.287E-05   -.907E-06 0.272E+00 0.144E+00   0.468E-06 -.580E-04 0.258E-03
   -.493E-05 -.677E-02 -.192E+00   0.285E-05 0.251E-05 0.143E-05   -.204E-05 -.153E+00 0.142E+00   -.115E-05 -.236E-03 -.174E-03
   -.192E-05 -.826E-01 -.288E+00   0.285E-05 0.250E-05 0.202E-05   0.153E-05 0.111E+00 0.239E+00   -.599E-06 0.113E-02 -.226E-03
   -.972E-05 -.305E+00 -.148E+00   0.285E-05 0.258E-05 0.287E-05   0.223E-05 0.272E+00 0.144E+00   0.369E-05 0.345E-04 -.562E-04
   -.974E-05 -.738E-02 -.194E+00   0.285E-05 0.251E-05 0.143E-05   0.720E-05 -.153E+00 0.142E+00   0.108E-05 0.315E-03 0.902E-03
 -----------------------------------------------------------------------------------------------
   -.517E-05 -.116E+01 -.730E+00   0.118E-13 0.748E-14 0.160E-13   -.201E-04 0.116E+01 0.730E+00   0.144E-04 -.226E-03 -.692E-04
 
 
 POSITION                                       TOTAL-FORCE (eV/Angst)
 -----------------------------------------------------------------------------------
      2.25028     -3.89760      2.75602        -0.000003      0.089927      0.000132
      0.00000     -2.59840      6.43071         0.000005      0.098093      0.084050
      2.25028     -1.29920     10.10540         0.000005     -0.025075      0.019915
      0.00000     -7.79519      2.75602        -0.000009      0.089949      0.000119
      2.25028     -6.49600      6.43071         0.000002      0.098138      0.084031
      0.00000     -5.19680     10.10540         0.000003     -0.025059      0.019949
      0.00000      0.00000      0.00000        -0.000002      0.029767     -0.049316
      2.25028     -6.49600      3.67469        -0.000001     -0.033035     -0.004013
      0.00000     -5.19680      7.34938        -0.000004     -0.159817     -0.050766
      2.25028     -3.89760      0.00000         0.000003      0.029831     -0.049369
      0.00000     -2.59840      3.67469        -0.000000     -0.032966     -0.004037
      2.25028     -1.29920      7.34938         0.000002     -0.159753     -0.050696
 -----------------------------------------------------------------------------------
    total drift:                               -0.000011      0.000188     -0.000079


--------------------------------------------------------------------------------------------------------



  FREE ENERGIE OF THE ION-ELECTRON SYSTEM (eV)
  ---------------------------------------------------
  free  energy   TOTEN  =       -68.68634756 eV

  energy  without entropy=      -68.69266476  energy(sigma->0) =      -68.68845329
 


--------------------------------------------------------------------------------------------------------


    POTLOK:  cpu time    0.2979: real time    0.2986


--------------------------------------------------------------------------------------------------------


     LOOP+:  cpu time   98.2682: real time   98.5388
    4ORBIT:  cpu time    0.0000: real time    0.0000
 


 total charge     
 
# of ion       s       p       d       tot
------------------------------------------
    1        0.309   0.197   4.962   5.469
    2        0.311   0.199   4.954   5.463
    3        0.308   0.195   4.965   5.468
    4        0.309   0.197   4.962   5.469
    5        0.311   0.199   4.953   5.463
    6        0.308   0.195   4.965   5.468
    7        1.678   2.233   0.064   3.974
    8        1.681   2.223   0.065   3.968
    9        1.680   2.231   0.063   3.975
   10        1.678   2.233   0.064   3.974
   11        1.681   2.223   0.065   3.968
   12        1.680   2.231   0.063   3.975
--------------------------------------------------
tot         11.935  14.556  30.145  56.636
 


 magnetization (x)
 
# of ion       s       p       d       tot
------------------------------------------
    1        0.039   0.021   3.690   3.749
    2        0.045   0.022   3.728   3.795
    3        0.044   0.019   3.688   3.752
    4       -0.039  -0.021  -3.690  -3.749
    5       -0.045  -0.022  -3.728  -3.795
    6       -0.044  -0.019  -3.688  -3.752
    7       -0.000  -0.009   0.001  -0.008
    8        0.001   0.243  -0.017   0.227
    9        0.002   0.278  -0.018   0.263
   10        0.000   0.009  -0.001   0.008
   11       -0.001  -0.243   0.017  -0.227
   12       -0.002  -0.278   0.018  -0.263
--------------------------------------------------
tot         -0.000   0.000   0.000   0.000
 

 total amount of memory used by VASP MPI-rank0    70050. kBytes
=======================================================================

   base      :      30000. kBytes
   nonl-proj :       3159. kBytes
   fftplans  :       6611. kBytes
   grid      :      15941. kBytes
   one-center:         62. kBytes
   wavefun   :      14277. kBytes
 
  
  
 General timing and accounting informations for this job:
 ========================================================
  
                  Total CPU time used (sec):      100.252
                            User time (sec):       99.854
                          System time (sec):        0.398
                         Elapsed time (sec):      101.788
  
                   Maximum memory used (kb):       97836.
                   Average memory used (kb):           0.
  
                          Minor page faults:       122762
                          Major page faults:            0
                 Voluntary context switches:         1413
