=========================================
SLURM_JOB_ID = 51754196
SLURM_JOB_NODELIST = lnode59
SLURM_GPUS = 
SLURM_CPUS_ON_NODE = 24
SLURM_JOB_PARTITION = lenovo
SLURM_TASK_PID = 1115659
CUDA_VISIBLE_DEVICES = 
==========================================
 running on   24 total cores
 distrk:  each k-point on   24 cores,    1 groups
 distr:  one band on    4 cores,    6 groups
 using from now: INCAR     
 vasp.5.4.4.18Apr17-6-g9f103f2a35 (build Apr 28 2018 00:24:27) complex          
  
 POSCAR found type information on POSCAR  Fe
 POSCAR found :  1 types and       2 ions
 scaLAPACK will be used

 ----------------------------------------------------------------------------- 
|                                                                             |
|  ADVICE TO THIS USER RUNNING 'VASP/VAMP'   (HEAR YOUR MASTER'S VOICE ...):  |
|                                                                             |
|      You have a (more or less) 'small supercell' and for smaller cells      |
|      it is recommended  to use the reciprocal-space projection scheme!      |
|      The real space optimization is not  efficient for small cells and it   |
|      is also less accurate ...                                              |
|      Therefore set LREAL=.FALSE. in the  INCAR file                         |
|                                                                             |
 ----------------------------------------------------------------------------- 

 LDA part: xc-table for Pade appr. of Perdew
 generate k-points for:   28   28   28
 POSCAR, INCAR and KPOINTS ok, starting setup
 FFT: planning ...
 WAVECAR not read
 entering main loop
       N       E                     dE             d eps       ncg     rms          rms(c)
DAV:   1     0.267047074590E+03    0.26705E+03   -0.24195E+04 66300   0.264E+03
DAV:   2    -0.823660672420E+01   -0.27528E+03   -0.26413E+03 66624   0.486E+02
DAV:   3    -0.162015457966E+02   -0.79649E+01   -0.79470E+01 71112   0.887E+01
DAV:   4    -0.162717108892E+02   -0.70165E-01   -0.70161E-01 76452   0.795E+00
DAV:   5    -0.162730059423E+02   -0.12951E-02   -0.12951E-02 71040   0.102E+00    0.249E+01
DAV:   6    -0.164619952784E+02   -0.18899E+00   -0.74528E+00 66456   0.398E+01    0.687E+00
DAV:   7    -0.165139672171E+02   -0.51972E-01   -0.61653E-01 66804   0.990E+00    0.433E+00
DAV:   8    -0.165239848774E+02   -0.10018E-01   -0.14755E-02 73704   0.148E+00    0.137E+00
DAV:   9    -0.165156786473E+02    0.83062E-02   -0.50942E-03 71388   0.885E-01    0.347E-01
DAV:  10    -0.165153395240E+02    0.33912E-03   -0.22221E-03 67860   0.613E-01    0.444E-02
DAV:  11    -0.165153850430E+02   -0.45519E-04   -0.55219E-05 70080   0.709E-02    0.250E-02
DAV:  12    -0.165153837285E+02    0.13145E-05   -0.47854E-06 75804   0.238E-02    0.986E-03
DAV:  13    -0.165153841018E+02   -0.37332E-06   -0.20301E-06 68844   0.150E-02    0.140E-03
DAV:  14    -0.165153843906E+02   -0.28876E-06   -0.99587E-08 63648   0.276E-03    0.564E-04
DAV:  15    -0.165153843756E+02    0.15014E-07   -0.78020E-09 34992   0.106E-03
   1 F= -.16515384E+02 E0= -.16515384E+02  d E =0.000000E+00  mag=     4.4299
