 vasp.5.4.4.18Apr17-6-g9f103f2a35 (build Apr 28 2018 00:24:27) complex          
  
 executed on             LinuxIFC date 2021.09.07  01:12:16
 running on   24 total cores
 distrk:  each k-point on   24 cores,    1 groups
 distr:  one band on NCORES_PER_BAND=   4 cores,    6 groups


--------------------------------------------------------------------------------------------------------


 INCAR:
 POTCAR:    PAW_PBE Fe_pv 02Aug2007               
 POTCAR:    PAW_PBE Fe_pv 02Aug2007               
   VRHFIN =Fe:  3pd7s1                                                          
   LEXCH  = PE                                                                  
   EATOM  =  2457.4239 eV,  180.6156 Ry                                         
                                                                                
   TITEL  = PAW_PBE Fe_pv 02Aug2007                                             
   LULTRA =        F    use ultrasoft PP ?                                      
   IUNSCR =        1    unscreen: 0-lin 1-nonlin 2-no                           
   RPACOR =    1.750    partial core radius                                     
   POMASS =   55.847; ZVAL   =   14.000    mass and valenz                      
   RCORE  =    2.200    outmost cutoff radius                                   
   RWIGS  =    2.200; RWIGS  =    1.164    wigner-seitz radius (au A)           
   ENMAX  =  293.238; ENMIN  =  219.928 eV                                      
   ICORE  =        3    local potential                                         
   LCOR   =        T    correct aug charges                                     
   LPAW   =        T    paw PP                                                  
   EAUG   =  578.342                                                            
   DEXC   =    0.000                                                            
   RMAX   =    2.249    core radius for proj-oper                               
   RAUG   =    1.300    factor for augmentation sphere                          
   RDEP   =    2.296    radius for radial grids                                 
   RDEPT  =    1.766    core radius for aug-charge                              
                                                                                
   Atomic configuration                                                         
    8 entries                                                                   
     n  l   j            E        occ.                                          
     1  0  0.50     -6993.8440   2.0000                                         
     2  0  0.50      -814.6047   2.0000                                         
     2  1  1.50      -693.3689   6.0000                                         
     3  0  0.50       -89.4732   2.0000                                         
     3  1  1.50       -55.6373   6.0000                                         
     3  2  2.50        -3.8151   7.0000                                         
     4  0  0.50        -4.2551   1.0000                                         
     4  3  2.50        -1.3606   0.0000                                         
   Description                                                                  
     l       E           TYP  RCUT    TYP  RCUT                                 
     1    -55.6372668     23  2.000                                             
     1     -5.4423304     23  2.000                                             
     2     -3.8151096     23  2.200                                             
     2     -5.1756922     23  2.200                                             
     0     -4.2550951     23  2.200                                             
     0     27.2116520     23  2.200                                             
     3     -1.3605826     23  2.200                                             
  local pseudopotential read in
  partial core-charges read in
  partial kinetic energy density read in
  atomic valenz-charges read in
  non local Contribution for L=           1  read in
    real space projection operators read in
  non local Contribution for L=           1  read in
    real space projection operators read in
  non local Contribution for L=           2  read in
    real space projection operators read in
  non local Contribution for L=           2  read in
    real space projection operators read in
  non local Contribution for L=           0  read in
    real space projection operators read in
  non local Contribution for L=           0  read in
    real space projection operators read in
    PAW grid and wavefunctions read in
 
   number of l-projection  operators is LMAX  =           6
   number of lm-projection operators is LMMAX =          18
 

 ----------------------------------------------------------------------------- 
|                                                                             |
|  ADVICE TO THIS USER RUNNING 'VASP/VAMP'   (HEAR YOUR MASTER'S VOICE ...):  |
|                                                                             |
|      You have a (more or less) 'small supercell' and for smaller cells      |
|      it is recommended  to use the reciprocal-space projection scheme!      |
|      The real space optimization is not  efficient for small cells and it   |
|      is also less accurate ...                                              |
|      Therefore set LREAL=.FALSE. in the  INCAR file                         |
|                                                                             |
 ----------------------------------------------------------------------------- 

 Optimization of the real space projectors (new method)

 maximal supplied QI-value         = 17.01
 optimisation between [QCUT,QGAM] = [ 15.48, 30.95] = [ 67.08,268.30] Ry 
 Optimized for a Real-space Cutoff    1.26 Angstroem

   l    n(q)    QCUT    max X(q) W(low)/X(q) W(high)/X(q)  e(spline) 
   1     11    15.477     4.267    0.90E-04    0.14E-03    0.59E-06
   1     11    15.477     5.750    0.14E-03    0.21E-03    0.81E-06
   2     11    15.477    53.656    0.97E-04    0.12E-03    0.26E-06
   2     11    15.477    49.521    0.10E-03    0.12E-03    0.27E-06
   0     12    15.477    31.246    0.35E-04    0.34E-04    0.27E-06
   0     12    15.477    12.201    0.29E-04    0.28E-04    0.22E-06
  PAW_PBE Fe_pv 02Aug2007               :
 energy of atom  1       EATOM=-2457.4239
 kinetic energy error for atom=    0.0010 (will be added to EATOM!!)
 
 
 POSCAR: Fe2                                     
  positions in direct lattice
  No initial velocities read in
 exchange correlation table for  LEXCH =        8
   RHO(1)=    0.500       N(1)  =     2000
   RHO(2)=  100.500       N(2)  =     4000
 


--------------------------------------------------------------------------------------------------------


 ion  position               nearest neighbor table
   1  0.000  0.000  0.000-   2 2.46   2 2.46   2 2.46   2 2.46   2 2.46   2 2.46   2 2.46   2 2.46

   2  0.500  0.500  0.500-   1 2.46   1 2.46   1 2.46   1 2.46   1 2.46   1 2.46   1 2.46   1 2.46

 
  LATTYP: Found a simple cubic cell.
 ALAT       =     2.8400520000
  
  Lattice vectors:
  
 A1 = (   2.8400520000,   0.0000000000,   0.0000000000)
 A2 = (   0.0000000000,   2.8400520000,   0.0000000000)
 A3 = (   0.0000000000,   0.0000000000,   2.8400520000)


Analysis of symmetry for initial positions (statically):
=====================================================================
 Subroutine PRICEL returns following result:
 
  LATTYP: Found a body centered cubic cell.
 ALAT       =     2.8400520000
  
  Lattice vectors:
  
 A1 = (   1.4200260000,   1.4200260000,   1.4200260000)
 A2 = (   1.4200260000,  -1.4200260000,  -1.4200260000)
 A3 = (  -1.4200260000,   1.4200260000,  -1.4200260000)
 
   2 primitive cells build up your supercell.
 

 Routine SETGRP: Setting up the symmetry group for a 
 simple cubic supercell.


 Subroutine GETGRP returns: Found 48 space group operations
 (whereof 48 operations were pure point group operations)
 out of a pool of 48 trial point group operations.


The static configuration has the point symmetry O_h .


Analysis of symmetry for dynamics (positions and initial velocities):
=====================================================================
 Subroutine PRICEL returns following result:
 
  LATTYP: Found a body centered cubic cell.
 ALAT       =     2.8400520000
  
  Lattice vectors:
  
 A1 = (   1.4200260000,   1.4200260000,   1.4200260000)
 A2 = (   1.4200260000,  -1.4200260000,  -1.4200260000)
 A3 = (  -1.4200260000,   1.4200260000,  -1.4200260000)
 
   2 primitive cells build up your supercell.
 

 Routine SETGRP: Setting up the symmetry group for a 
 simple cubic supercell.


 Subroutine GETGRP returns: Found 48 space group operations
 (whereof 48 operations were pure point group operations)
 out of a pool of 48 trial point group operations.


The dynamic configuration has the point symmetry O_h .


Analysis of structural, dynamic, and magnetic symmetry:
=====================================================================
 Subroutine PRICEL returns following result:
 
  LATTYP: Found a body centered cubic cell.
 ALAT       =     2.8400520000
  
  Lattice vectors:
  
 A1 = (   1.4200260000,   1.4200260000,   1.4200260000)
 A2 = (   1.4200260000,  -1.4200260000,  -1.4200260000)
 A3 = (  -1.4200260000,   1.4200260000,  -1.4200260000)
 
   2 primitive cells build up your supercell.
 

 Routine SETGRP: Setting up the symmetry group for a 
 simple cubic supercell.


 Subroutine GETGRP returns: Found 48 space group operations
 (whereof 48 operations were pure point group operations)
 out of a pool of 48 trial point group operations.


The magnetic configuration has the point symmetry O_h .


 Subroutine INISYM returns: Found 48 space group operations
 (whereof 48 operations are pure point group operations),
 and found     2 'primitive' translations

 
 
 KPOINTS: Automatic mesh                          

Automatic generation of k-mesh.
 generate k-points for:   28   28   28
Space group operators:
 irot       det(A)        alpha          n_x          n_y          n_z        tau_x        tau_y        tau_z
    1     1.000000     0.000000     1.000000     0.000000     0.000000     0.000000     0.000000     0.000000
    2    -1.000000     0.000000     1.000000     0.000000     0.000000     0.000000     0.000000     0.000000
    3     1.000000   120.000000    -0.577350    -0.577350    -0.577350     0.000000     0.000000     0.000000
    4    -1.000000   120.000000    -0.577350    -0.577350    -0.577350     0.000000     0.000000     0.000000
    5     1.000000   120.000000     0.577350     0.577350     0.577350     0.000000     0.000000     0.000000
    6    -1.000000   120.000000     0.577350     0.577350     0.577350     0.000000     0.000000     0.000000
    7     1.000000    90.000000     0.000000     0.000000    -1.000000     0.000000     0.000000     0.000000
    8    -1.000000    90.000000     0.000000     0.000000    -1.000000     0.000000     0.000000     0.000000
    9     1.000000   180.000000     0.000000     0.707107     0.707107     0.000000     0.000000     0.000000
   10    -1.000000   180.000000     0.000000     0.707107     0.707107     0.000000     0.000000     0.000000
   11     1.000000    90.000000     0.000000     1.000000     0.000000     0.000000     0.000000     0.000000
   12    -1.000000    90.000000     0.000000     1.000000     0.000000     0.000000     0.000000     0.000000
   13     1.000000   180.000000     0.000000     0.000000     1.000000     0.000000     0.000000     0.000000
   14    -1.000000   180.000000     0.000000     0.000000     1.000000     0.000000     0.000000     0.000000
   15     1.000000   120.000000    -0.577350     0.577350     0.577350     0.000000     0.000000     0.000000
   16    -1.000000   120.000000    -0.577350     0.577350     0.577350     0.000000     0.000000     0.000000
   17     1.000000   120.000000    -0.577350     0.577350    -0.577350     0.000000     0.000000     0.000000
   18    -1.000000   120.000000    -0.577350     0.577350    -0.577350     0.000000     0.000000     0.000000
   19     1.000000    90.000000     0.000000     0.000000     1.000000     0.000000     0.000000     0.000000
   20    -1.000000    90.000000     0.000000     0.000000     1.000000     0.000000     0.000000     0.000000
   21     1.000000    90.000000    -1.000000     0.000000     0.000000     0.000000     0.000000     0.000000
   22    -1.000000    90.000000    -1.000000     0.000000     0.000000     0.000000     0.000000     0.000000
   23     1.000000   180.000000     0.707107     0.000000     0.707107     0.000000     0.000000     0.000000
   24    -1.000000   180.000000     0.707107     0.000000     0.707107     0.000000     0.000000     0.000000
   25     1.000000   120.000000     0.577350    -0.577350     0.577350     0.000000     0.000000     0.000000
   26    -1.000000   120.000000     0.577350    -0.577350     0.577350     0.000000     0.000000     0.000000
   27     1.000000   120.000000    -0.577350    -0.577350     0.577350     0.000000     0.000000     0.000000
   28    -1.000000   120.000000    -0.577350    -0.577350     0.577350     0.000000     0.000000     0.000000
   29     1.000000   180.000000     1.000000     0.000000     0.000000     0.000000     0.000000     0.000000
   30    -1.000000   180.000000     1.000000     0.000000     0.000000     0.000000     0.000000     0.000000
   31     1.000000    90.000000     0.000000    -1.000000     0.000000     0.000000     0.000000     0.000000
   32    -1.000000    90.000000     0.000000    -1.000000     0.000000     0.000000     0.000000     0.000000
   33     1.000000   180.000000     0.707107     0.707107     0.000000     0.000000     0.000000     0.000000
   34    -1.000000   180.000000     0.707107     0.707107     0.000000     0.000000     0.000000     0.000000
   35     1.000000    90.000000     1.000000     0.000000     0.000000     0.000000     0.000000     0.000000
   36    -1.000000    90.000000     1.000000     0.000000     0.000000     0.000000     0.000000     0.000000
   37     1.000000   120.000000     0.577350    -0.577350    -0.577350     0.000000     0.000000     0.000000
   38    -1.000000   120.000000     0.577350    -0.577350    -0.577350     0.000000     0.000000     0.000000
   39     1.000000   180.000000     0.000000     1.000000     0.000000     0.000000     0.000000     0.000000
   40    -1.000000   180.000000     0.000000     1.000000     0.000000     0.000000     0.000000     0.000000
   41     1.000000   120.000000     0.577350     0.577350    -0.577350     0.000000     0.000000     0.000000
   42    -1.000000   120.000000     0.577350     0.577350    -0.577350     0.000000     0.000000     0.000000
   43     1.000000   180.000000     0.000000    -0.707107     0.707107     0.000000     0.000000     0.000000
   44    -1.000000   180.000000     0.000000    -0.707107     0.707107     0.000000     0.000000     0.000000
   45     1.000000   180.000000     0.707107    -0.707107     0.000000     0.000000     0.000000     0.000000
   46    -1.000000   180.000000     0.707107    -0.707107     0.000000     0.000000     0.000000     0.000000
   47     1.000000   180.000000     0.707107     0.000000    -0.707107     0.000000     0.000000     0.000000
   48    -1.000000   180.000000     0.707107     0.000000    -0.707107     0.000000     0.000000     0.000000
 
 Subroutine IBZKPT returns following result:
 ===========================================
 
 Found    680 irreducible k-points:
 
 Following reciprocal coordinates:
            Coordinates               Weight
  0.000000  0.000000  0.000000      1.000000
  0.035714  0.000000  0.000000      6.000000
  0.071429  0.000000  0.000000      6.000000
  0.107143  0.000000  0.000000      6.000000
  0.142857  0.000000  0.000000      6.000000
  0.178571  0.000000  0.000000      6.000000
  0.214286  0.000000  0.000000      6.000000
  0.250000  0.000000  0.000000      6.000000
  0.285714  0.000000  0.000000      6.000000
  0.321429  0.000000  0.000000      6.000000
  0.357143  0.000000  0.000000      6.000000
  0.392857  0.000000  0.000000      6.000000
  0.428571  0.000000  0.000000      6.000000
  0.464286  0.000000  0.000000      6.000000
  0.500000  0.000000  0.000000      3.000000
  0.035714  0.035714  0.000000     12.000000
  0.071429  0.035714  0.000000     24.000000
  0.107143  0.035714  0.000000     24.000000
  0.142857  0.035714  0.000000     24.000000
  0.178571  0.035714  0.000000     24.000000
  0.214286  0.035714  0.000000     24.000000
  0.250000  0.035714  0.000000     24.000000
  0.285714  0.035714  0.000000     24.000000
  0.321429  0.035714  0.000000     24.000000
  0.357143  0.035714  0.000000     24.000000
  0.392857  0.035714  0.000000     24.000000
  0.428571  0.035714  0.000000     24.000000
  0.464286  0.035714  0.000000     24.000000
  0.500000  0.035714  0.000000     12.000000
  0.071429  0.071429  0.000000     12.000000
  0.107143  0.071429  0.000000     24.000000
  0.142857  0.071429  0.000000     24.000000
  0.178571  0.071429  0.000000     24.000000
  0.214286  0.071429  0.000000     24.000000
  0.250000  0.071429  0.000000     24.000000
  0.285714  0.071429  0.000000     24.000000
  0.321429  0.071429  0.000000     24.000000
  0.357143  0.071429  0.000000     24.000000
  0.392857  0.071429  0.000000     24.000000
  0.428571  0.071429  0.000000     24.000000
  0.464286  0.071429  0.000000     24.000000
  0.500000  0.071429  0.000000     12.000000
  0.107143  0.107143  0.000000     12.000000
  0.142857  0.107143  0.000000     24.000000
  0.178571  0.107143  0.000000     24.000000
  0.214286  0.107143  0.000000     24.000000
  0.250000  0.107143  0.000000     24.000000
  0.285714  0.107143  0.000000     24.000000
  0.321429  0.107143  0.000000     24.000000
  0.357143  0.107143  0.000000     24.000000
  0.392857  0.107143  0.000000     24.000000
  0.428571  0.107143  0.000000     24.000000
  0.464286  0.107143  0.000000     24.000000
  0.500000  0.107143  0.000000     12.000000
  0.142857  0.142857  0.000000     12.000000
  0.178571  0.142857  0.000000     24.000000
  0.214286  0.142857  0.000000     24.000000
  0.250000  0.142857  0.000000     24.000000
  0.285714  0.142857  0.000000     24.000000
  0.321429  0.142857  0.000000     24.000000
  0.357143  0.142857  0.000000     24.000000
  0.392857  0.142857  0.000000     24.000000
  0.428571  0.142857  0.000000     24.000000
  0.464286  0.142857  0.000000     24.000000
  0.500000  0.142857  0.000000     12.000000
  0.178571  0.178571  0.000000     12.000000
  0.214286  0.178571  0.000000     24.000000
  0.250000  0.178571  0.000000     24.000000
  0.285714  0.178571  0.000000     24.000000
  0.321429  0.178571  0.000000     24.000000
  0.357143  0.178571  0.000000     24.000000
  0.392857  0.178571  0.000000     24.000000
  0.428571  0.178571  0.000000     24.000000
  0.464286  0.178571  0.000000     24.000000
  0.500000  0.178571  0.000000     12.000000
  0.214286  0.214286  0.000000     12.000000
  0.250000  0.214286  0.000000     24.000000
  0.285714  0.214286  0.000000     24.000000
  0.321429  0.214286  0.000000     24.000000
  0.357143  0.214286  0.000000     24.000000
  0.392857  0.214286  0.000000     24.000000
  0.428571  0.214286  0.000000     24.000000
  0.464286  0.214286  0.000000     24.000000
  0.500000  0.214286  0.000000     12.000000
  0.250000  0.250000  0.000000     12.000000
  0.285714  0.250000  0.000000     24.000000
  0.321429  0.250000  0.000000     24.000000
  0.357143  0.250000  0.000000     24.000000
  0.392857  0.250000  0.000000     24.000000
  0.428571  0.250000  0.000000     24.000000
  0.464286  0.250000  0.000000     24.000000
  0.500000  0.250000  0.000000     12.000000
  0.285714  0.285714  0.000000     12.000000
  0.321429  0.285714  0.000000     24.000000
  0.357143  0.285714  0.000000     24.000000
  0.392857  0.285714  0.000000     24.000000
  0.428571  0.285714  0.000000     24.000000
  0.464286  0.285714  0.000000     24.000000
  0.500000  0.285714  0.000000     12.000000
  0.321429  0.321429  0.000000     12.000000
  0.357143  0.321429  0.000000     24.000000
  0.392857  0.321429  0.000000     24.000000
  0.428571  0.321429  0.000000     24.000000
  0.464286  0.321429  0.000000     24.000000
  0.500000  0.321429  0.000000     12.000000
  0.357143  0.357143  0.000000     12.000000
  0.392857  0.357143  0.000000     24.000000
  0.428571  0.357143  0.000000     24.000000
  0.464286  0.357143  0.000000     24.000000
  0.500000  0.357143  0.000000     12.000000
  0.392857  0.392857  0.000000     12.000000
  0.428571  0.392857  0.000000     24.000000
  0.464286  0.392857  0.000000     24.000000
  0.500000  0.392857  0.000000     12.000000
  0.428571  0.428571  0.000000     12.000000
  0.464286  0.428571  0.000000     24.000000
  0.500000  0.428571  0.000000     12.000000
  0.464286  0.464286  0.000000     12.000000
  0.500000  0.464286  0.000000     12.000000
  0.500000  0.500000  0.000000      3.000000
  0.035714  0.035714  0.035714      8.000000
  0.071429  0.035714  0.035714     24.000000
  0.107143  0.035714  0.035714     24.000000
  0.142857  0.035714  0.035714     24.000000
  0.178571  0.035714  0.035714     24.000000
  0.214286  0.035714  0.035714     24.000000
  0.250000  0.035714  0.035714     24.000000
  0.285714  0.035714  0.035714     24.000000
  0.321429  0.035714  0.035714     24.000000
  0.357143  0.035714  0.035714     24.000000
  0.392857  0.035714  0.035714     24.000000
  0.428571  0.035714  0.035714     24.000000
  0.464286  0.035714  0.035714     24.000000
  0.500000  0.035714  0.035714     12.000000
  0.071429  0.071429  0.035714     24.000000
  0.107143  0.071429  0.035714     48.000000
  0.142857  0.071429  0.035714     48.000000
  0.178571  0.071429  0.035714     48.000000
  0.214286  0.071429  0.035714     48.000000
  0.250000  0.071429  0.035714     48.000000
  0.285714  0.071429  0.035714     48.000000
  0.321429  0.071429  0.035714     48.000000
  0.357143  0.071429  0.035714     48.000000
  0.392857  0.071429  0.035714     48.000000
  0.428571  0.071429  0.035714     48.000000
  0.464286  0.071429  0.035714     48.000000
  0.500000  0.071429  0.035714     24.000000
  0.107143  0.107143  0.035714     24.000000
  0.142857  0.107143  0.035714     48.000000
  0.178571  0.107143  0.035714     48.000000
  0.214286  0.107143  0.035714     48.000000
  0.250000  0.107143  0.035714     48.000000
  0.285714  0.107143  0.035714     48.000000
  0.321429  0.107143  0.035714     48.000000
  0.357143  0.107143  0.035714     48.000000
  0.392857  0.107143  0.035714     48.000000
  0.428571  0.107143  0.035714     48.000000
  0.464286  0.107143  0.035714     48.000000
  0.500000  0.107143  0.035714     24.000000
  0.142857  0.142857  0.035714     24.000000
  0.178571  0.142857  0.035714     48.000000
  0.214286  0.142857  0.035714     48.000000
  0.250000  0.142857  0.035714     48.000000
  0.285714  0.142857  0.035714     48.000000
  0.321429  0.142857  0.035714     48.000000
  0.357143  0.142857  0.035714     48.000000
  0.392857  0.142857  0.035714     48.000000
  0.428571  0.142857  0.035714     48.000000
  0.464286  0.142857  0.035714     48.000000
  0.500000  0.142857  0.035714     24.000000
  0.178571  0.178571  0.035714     24.000000
  0.214286  0.178571  0.035714     48.000000
  0.250000  0.178571  0.035714     48.000000
  0.285714  0.178571  0.035714     48.000000
  0.321429  0.178571  0.035714     48.000000
  0.357143  0.178571  0.035714     48.000000
  0.392857  0.178571  0.035714     48.000000
  0.428571  0.178571  0.035714     48.000000
  0.464286  0.178571  0.035714     48.000000
  0.500000  0.178571  0.035714     24.000000
  0.214286  0.214286  0.035714     24.000000
  0.250000  0.214286  0.035714     48.000000
  0.285714  0.214286  0.035714     48.000000
  0.321429  0.214286  0.035714     48.000000
  0.357143  0.214286  0.035714     48.000000
  0.392857  0.214286  0.035714     48.000000
  0.428571  0.214286  0.035714     48.000000
  0.464286  0.214286  0.035714     48.000000
  0.500000  0.214286  0.035714     24.000000
  0.250000  0.250000  0.035714     24.000000
  0.285714  0.250000  0.035714     48.000000
  0.321429  0.250000  0.035714     48.000000
  0.357143  0.250000  0.035714     48.000000
  0.392857  0.250000  0.035714     48.000000
  0.428571  0.250000  0.035714     48.000000
  0.464286  0.250000  0.035714     48.000000
  0.500000  0.250000  0.035714     24.000000
  0.285714  0.285714  0.035714     24.000000
  0.321429  0.285714  0.035714     48.000000
  0.357143  0.285714  0.035714     48.000000
  0.392857  0.285714  0.035714     48.000000
  0.428571  0.285714  0.035714     48.000000
  0.464286  0.285714  0.035714     48.000000
  0.500000  0.285714  0.035714     24.000000
  0.321429  0.321429  0.035714     24.000000
  0.357143  0.321429  0.035714     48.000000
  0.392857  0.321429  0.035714     48.000000
  0.428571  0.321429  0.035714     48.000000
  0.464286  0.321429  0.035714     48.000000
  0.500000  0.321429  0.035714     24.000000
  0.357143  0.357143  0.035714     24.000000
  0.392857  0.357143  0.035714     48.000000
  0.428571  0.357143  0.035714     48.000000
  0.464286  0.357143  0.035714     48.000000
  0.500000  0.357143  0.035714     24.000000
  0.392857  0.392857  0.035714     24.000000
  0.428571  0.392857  0.035714     48.000000
  0.464286  0.392857  0.035714     48.000000
  0.500000  0.392857  0.035714     24.000000
  0.428571  0.428571  0.035714     24.000000
  0.464286  0.428571  0.035714     48.000000
  0.500000  0.428571  0.035714     24.000000
  0.464286  0.464286  0.035714     24.000000
  0.500000  0.464286  0.035714     24.000000
  0.500000  0.500000  0.035714      6.000000
  0.071429  0.071429  0.071429      8.000000
  0.107143  0.071429  0.071429     24.000000
  0.142857  0.071429  0.071429     24.000000
  0.178571  0.071429  0.071429     24.000000
  0.214286  0.071429  0.071429     24.000000
  0.250000  0.071429  0.071429     24.000000
  0.285714  0.071429  0.071429     24.000000
  0.321429  0.071429  0.071429     24.000000
  0.357143  0.071429  0.071429     24.000000
  0.392857  0.071429  0.071429     24.000000
  0.428571  0.071429  0.071429     24.000000
  0.464286  0.071429  0.071429     24.000000
  0.500000  0.071429  0.071429     12.000000
  0.107143  0.107143  0.071429     24.000000
  0.142857  0.107143  0.071429     48.000000
  0.178571  0.107143  0.071429     48.000000
  0.214286  0.107143  0.071429     48.000000
  0.250000  0.107143  0.071429     48.000000
  0.285714  0.107143  0.071429     48.000000
  0.321429  0.107143  0.071429     48.000000
  0.357143  0.107143  0.071429     48.000000
  0.392857  0.107143  0.071429     48.000000
  0.428571  0.107143  0.071429     48.000000
  0.464286  0.107143  0.071429     48.000000
  0.500000  0.107143  0.071429     24.000000
  0.142857  0.142857  0.071429     24.000000
  0.178571  0.142857  0.071429     48.000000
  0.214286  0.142857  0.071429     48.000000
  0.250000  0.142857  0.071429     48.000000
  0.285714  0.142857  0.071429     48.000000
  0.321429  0.142857  0.071429     48.000000
  0.357143  0.142857  0.071429     48.000000
  0.392857  0.142857  0.071429     48.000000
  0.428571  0.142857  0.071429     48.000000
  0.464286  0.142857  0.071429     48.000000
  0.500000  0.142857  0.071429     24.000000
  0.178571  0.178571  0.071429     24.000000
  0.214286  0.178571  0.071429     48.000000
  0.250000  0.178571  0.071429     48.000000
  0.285714  0.178571  0.071429     48.000000
  0.321429  0.178571  0.071429     48.000000
  0.357143  0.178571  0.071429     48.000000
  0.392857  0.178571  0.071429     48.000000
  0.428571  0.178571  0.071429     48.000000
  0.464286  0.178571  0.071429     48.000000
  0.500000  0.178571  0.071429     24.000000
  0.214286  0.214286  0.071429     24.000000
  0.250000  0.214286  0.071429     48.000000
  0.285714  0.214286  0.071429     48.000000
  0.321429  0.214286  0.071429     48.000000
  0.357143  0.214286  0.071429     48.000000
  0.392857  0.214286  0.071429     48.000000
  0.428571  0.214286  0.071429     48.000000
  0.464286  0.214286  0.071429     48.000000
  0.500000  0.214286  0.071429     24.000000
  0.250000  0.250000  0.071429     24.000000
  0.285714  0.250000  0.071429     48.000000
  0.321429  0.250000  0.071429     48.000000
  0.357143  0.250000  0.071429     48.000000
  0.392857  0.250000  0.071429     48.000000
  0.428571  0.250000  0.071429     48.000000
  0.464286  0.250000  0.071429     48.000000
  0.500000  0.250000  0.071429     24.000000
  0.285714  0.285714  0.071429     24.000000
  0.321429  0.285714  0.071429     48.000000
  0.357143  0.285714  0.071429     48.000000
  0.392857  0.285714  0.071429     48.000000
  0.428571  0.285714  0.071429     48.000000
  0.464286  0.285714  0.071429     48.000000
  0.500000  0.285714  0.071429     24.000000
  0.321429  0.321429  0.071429     24.000000
  0.357143  0.321429  0.071429     48.000000
  0.392857  0.321429  0.071429     48.000000
  0.428571  0.321429  0.071429     48.000000
  0.464286  0.321429  0.071429     48.000000
  0.500000  0.321429  0.071429     24.000000
  0.357143  0.357143  0.071429     24.000000
  0.392857  0.357143  0.071429     48.000000
  0.428571  0.357143  0.071429     48.000000
  0.464286  0.357143  0.071429     48.000000
  0.500000  0.357143  0.071429     24.000000
  0.392857  0.392857  0.071429     24.000000
  0.428571  0.392857  0.071429     48.000000
  0.464286  0.392857  0.071429     48.000000
  0.500000  0.392857  0.071429     24.000000
  0.428571  0.428571  0.071429     24.000000
  0.464286  0.428571  0.071429     48.000000
  0.500000  0.428571  0.071429     24.000000
  0.464286  0.464286  0.071429     24.000000
  0.500000  0.464286  0.071429     24.000000
  0.500000  0.500000  0.071429      6.000000
  0.107143  0.107143  0.107143      8.000000
  0.142857  0.107143  0.107143     24.000000
  0.178571  0.107143  0.107143     24.000000
  0.214286  0.107143  0.107143     24.000000
  0.250000  0.107143  0.107143     24.000000
  0.285714  0.107143  0.107143     24.000000
  0.321429  0.107143  0.107143     24.000000
  0.357143  0.107143  0.107143     24.000000
  0.392857  0.107143  0.107143     24.000000
  0.428571  0.107143  0.107143     24.000000
  0.464286  0.107143  0.107143     24.000000
  0.500000  0.107143  0.107143     12.000000
  0.142857  0.142857  0.107143     24.000000
  0.178571  0.142857  0.107143     48.000000
  0.214286  0.142857  0.107143     48.000000
  0.250000  0.142857  0.107143     48.000000
  0.285714  0.142857  0.107143     48.000000
  0.321429  0.142857  0.107143     48.000000
  0.357143  0.142857  0.107143     48.000000
  0.392857  0.142857  0.107143     48.000000
  0.428571  0.142857  0.107143     48.000000
  0.464286  0.142857  0.107143     48.000000
  0.500000  0.142857  0.107143     24.000000
  0.178571  0.178571  0.107143     24.000000
  0.214286  0.178571  0.107143     48.000000
  0.250000  0.178571  0.107143     48.000000
  0.285714  0.178571  0.107143     48.000000
  0.321429  0.178571  0.107143     48.000000
  0.357143  0.178571  0.107143     48.000000
  0.392857  0.178571  0.107143     48.000000
  0.428571  0.178571  0.107143     48.000000
  0.464286  0.178571  0.107143     48.000000
  0.500000  0.178571  0.107143     24.000000
  0.214286  0.214286  0.107143     24.000000
  0.250000  0.214286  0.107143     48.000000
  0.285714  0.214286  0.107143     48.000000
  0.321429  0.214286  0.107143     48.000000
  0.357143  0.214286  0.107143     48.000000
  0.392857  0.214286  0.107143     48.000000
  0.428571  0.214286  0.107143     48.000000
  0.464286  0.214286  0.107143     48.000000
  0.500000  0.214286  0.107143     24.000000
  0.250000  0.250000  0.107143     24.000000
  0.285714  0.250000  0.107143     48.000000
  0.321429  0.250000  0.107143     48.000000
  0.357143  0.250000  0.107143     48.000000
  0.392857  0.250000  0.107143     48.000000
  0.428571  0.250000  0.107143     48.000000
  0.464286  0.250000  0.107143     48.000000
  0.500000  0.250000  0.107143     24.000000
  0.285714  0.285714  0.107143     24.000000
  0.321429  0.285714  0.107143     48.000000
  0.357143  0.285714  0.107143     48.000000
  0.392857  0.285714  0.107143     48.000000
  0.428571  0.285714  0.107143     48.000000
  0.464286  0.285714  0.107143     48.000000
  0.500000  0.285714  0.107143     24.000000
  0.321429  0.321429  0.107143     24.000000
  0.357143  0.321429  0.107143     48.000000
  0.392857  0.321429  0.107143     48.000000
  0.428571  0.321429  0.107143     48.000000
  0.464286  0.321429  0.107143     48.000000
  0.500000  0.321429  0.107143     24.000000
  0.357143  0.357143  0.107143     24.000000
  0.392857  0.357143  0.107143     48.000000
  0.428571  0.357143  0.107143     48.000000
  0.464286  0.357143  0.107143     48.000000
  0.500000  0.357143  0.107143     24.000000
  0.392857  0.392857  0.107143     24.000000
  0.428571  0.392857  0.107143     48.000000
  0.464286  0.392857  0.107143     48.000000
  0.500000  0.392857  0.107143     24.000000
  0.428571  0.428571  0.107143     24.000000
  0.464286  0.428571  0.107143     48.000000
  0.500000  0.428571  0.107143     24.000000
  0.464286  0.464286  0.107143     24.000000
  0.500000  0.464286  0.107143     24.000000
  0.500000  0.500000  0.107143      6.000000
  0.142857  0.142857  0.142857      8.000000
  0.178571  0.142857  0.142857     24.000000
  0.214286  0.142857  0.142857     24.000000
  0.250000  0.142857  0.142857     24.000000
  0.285714  0.142857  0.142857     24.000000
  0.321429  0.142857  0.142857     24.000000
  0.357143  0.142857  0.142857     24.000000
  0.392857  0.142857  0.142857     24.000000
  0.428571  0.142857  0.142857     24.000000
  0.464286  0.142857  0.142857     24.000000
  0.500000  0.142857  0.142857     12.000000
  0.178571  0.178571  0.142857     24.000000
  0.214286  0.178571  0.142857     48.000000
  0.250000  0.178571  0.142857     48.000000
  0.285714  0.178571  0.142857     48.000000
  0.321429  0.178571  0.142857     48.000000
  0.357143  0.178571  0.142857     48.000000
  0.392857  0.178571  0.142857     48.000000
  0.428571  0.178571  0.142857     48.000000
  0.464286  0.178571  0.142857     48.000000
  0.500000  0.178571  0.142857     24.000000
  0.214286  0.214286  0.142857     24.000000
  0.250000  0.214286  0.142857     48.000000
  0.285714  0.214286  0.142857     48.000000
  0.321429  0.214286  0.142857     48.000000
  0.357143  0.214286  0.142857     48.000000
  0.392857  0.214286  0.142857     48.000000
  0.428571  0.214286  0.142857     48.000000
  0.464286  0.214286  0.142857     48.000000
  0.500000  0.214286  0.142857     24.000000
  0.250000  0.250000  0.142857     24.000000
  0.285714  0.250000  0.142857     48.000000
  0.321429  0.250000  0.142857     48.000000
  0.357143  0.250000  0.142857     48.000000
  0.392857  0.250000  0.142857     48.000000
  0.428571  0.250000  0.142857     48.000000
  0.464286  0.250000  0.142857     48.000000
  0.500000  0.250000  0.142857     24.000000
  0.285714  0.285714  0.142857     24.000000
  0.321429  0.285714  0.142857     48.000000
  0.357143  0.285714  0.142857     48.000000
  0.392857  0.285714  0.142857     48.000000
  0.428571  0.285714  0.142857     48.000000
  0.464286  0.285714  0.142857     48.000000
  0.500000  0.285714  0.142857     24.000000
  0.321429  0.321429  0.142857     24.000000
  0.357143  0.321429  0.142857     48.000000
  0.392857  0.321429  0.142857     48.000000
  0.428571  0.321429  0.142857     48.000000
  0.464286  0.321429  0.142857     48.000000
  0.500000  0.321429  0.142857     24.000000
  0.357143  0.357143  0.142857     24.000000
  0.392857  0.357143  0.142857     48.000000
  0.428571  0.357143  0.142857     48.000000
  0.464286  0.357143  0.142857     48.000000
  0.500000  0.357143  0.142857     24.000000
  0.392857  0.392857  0.142857     24.000000
  0.428571  0.392857  0.142857     48.000000
  0.464286  0.392857  0.142857     48.000000
  0.500000  0.392857  0.142857     24.000000
  0.428571  0.428571  0.142857     24.000000
  0.464286  0.428571  0.142857     48.000000
  0.500000  0.428571  0.142857     24.000000
  0.464286  0.464286  0.142857     24.000000
  0.500000  0.464286  0.142857     24.000000
  0.500000  0.500000  0.142857      6.000000
  0.178571  0.178571  0.178571      8.000000
  0.214286  0.178571  0.178571     24.000000
  0.250000  0.178571  0.178571     24.000000
  0.285714  0.178571  0.178571     24.000000
  0.321429  0.178571  0.178571     24.000000
  0.357143  0.178571  0.178571     24.000000
  0.392857  0.178571  0.178571     24.000000
  0.428571  0.178571  0.178571     24.000000
  0.464286  0.178571  0.178571     24.000000
  0.500000  0.178571  0.178571     12.000000
  0.214286  0.214286  0.178571     24.000000
  0.250000  0.214286  0.178571     48.000000
  0.285714  0.214286  0.178571     48.000000
  0.321429  0.214286  0.178571     48.000000
  0.357143  0.214286  0.178571     48.000000
  0.392857  0.214286  0.178571     48.000000
  0.428571  0.214286  0.178571     48.000000
  0.464286  0.214286  0.178571     48.000000
  0.500000  0.214286  0.178571     24.000000
  0.250000  0.250000  0.178571     24.000000
  0.285714  0.250000  0.178571     48.000000
  0.321429  0.250000  0.178571     48.000000
  0.357143  0.250000  0.178571     48.000000
  0.392857  0.250000  0.178571     48.000000
  0.428571  0.250000  0.178571     48.000000
  0.464286  0.250000  0.178571     48.000000
  0.500000  0.250000  0.178571     24.000000
  0.285714  0.285714  0.178571     24.000000
  0.321429  0.285714  0.178571     48.000000
  0.357143  0.285714  0.178571     48.000000
  0.392857  0.285714  0.178571     48.000000
  0.428571  0.285714  0.178571     48.000000
  0.464286  0.285714  0.178571     48.000000
  0.500000  0.285714  0.178571     24.000000
  0.321429  0.321429  0.178571     24.000000
  0.357143  0.321429  0.178571     48.000000
  0.392857  0.321429  0.178571     48.000000
  0.428571  0.321429  0.178571     48.000000
  0.464286  0.321429  0.178571     48.000000
  0.500000  0.321429  0.178571     24.000000
  0.357143  0.357143  0.178571     24.000000
  0.392857  0.357143  0.178571     48.000000
  0.428571  0.357143  0.178571     48.000000
  0.464286  0.357143  0.178571     48.000000
  0.500000  0.357143  0.178571     24.000000
  0.392857  0.392857  0.178571     24.000000
  0.428571  0.392857  0.178571     48.000000
  0.464286  0.392857  0.178571     48.000000
  0.500000  0.392857  0.178571     24.000000
  0.428571  0.428571  0.178571     24.000000
  0.464286  0.428571  0.178571     48.000000
  0.500000  0.428571  0.178571     24.000000
  0.464286  0.464286  0.178571     24.000000
  0.500000  0.464286  0.178571     24.000000
  0.500000  0.500000  0.178571      6.000000
  0.214286  0.214286  0.214286      8.000000
  0.250000  0.214286  0.214286     24.000000
  0.285714  0.214286  0.214286     24.000000
  0.321429  0.214286  0.214286     24.000000
  0.357143  0.214286  0.214286     24.000000
  0.392857  0.214286  0.214286     24.000000
  0.428571  0.214286  0.214286     24.000000
  0.464286  0.214286  0.214286     24.000000
  0.500000  0.214286  0.214286     12.000000
  0.250000  0.250000  0.214286     24.000000
  0.285714  0.250000  0.214286     48.000000
  0.321429  0.250000  0.214286     48.000000
  0.357143  0.250000  0.214286     48.000000
  0.392857  0.250000  0.214286     48.000000
  0.428571  0.250000  0.214286     48.000000
  0.464286  0.250000  0.214286     48.000000
  0.500000  0.250000  0.214286     24.000000
  0.285714  0.285714  0.214286     24.000000
  0.321429  0.285714  0.214286     48.000000
  0.357143  0.285714  0.214286     48.000000
  0.392857  0.285714  0.214286     48.000000
  0.428571  0.285714  0.214286     48.000000
  0.464286  0.285714  0.214286     48.000000
  0.500000  0.285714  0.214286     24.000000
  0.321429  0.321429  0.214286     24.000000
  0.357143  0.321429  0.214286     48.000000
  0.392857  0.321429  0.214286     48.000000
  0.428571  0.321429  0.214286     48.000000
  0.464286  0.321429  0.214286     48.000000
  0.500000  0.321429  0.214286     24.000000
  0.357143  0.357143  0.214286     24.000000
  0.392857  0.357143  0.214286     48.000000
  0.428571  0.357143  0.214286     48.000000
  0.464286  0.357143  0.214286     48.000000
  0.500000  0.357143  0.214286     24.000000
  0.392857  0.392857  0.214286     24.000000
  0.428571  0.392857  0.214286     48.000000
  0.464286  0.392857  0.214286     48.000000
  0.500000  0.392857  0.214286     24.000000
  0.428571  0.428571  0.214286     24.000000
  0.464286  0.428571  0.214286     48.000000
  0.500000  0.428571  0.214286     24.000000
  0.464286  0.464286  0.214286     24.000000
  0.500000  0.464286  0.214286     24.000000
  0.500000  0.500000  0.214286      6.000000
  0.250000  0.250000  0.250000      8.000000
  0.285714  0.250000  0.250000     24.000000
  0.321429  0.250000  0.250000     24.000000
  0.357143  0.250000  0.250000     24.000000
  0.392857  0.250000  0.250000     24.000000
  0.428571  0.250000  0.250000     24.000000
  0.464286  0.250000  0.250000     24.000000
  0.500000  0.250000  0.250000     12.000000
  0.285714  0.285714  0.250000     24.000000
  0.321429  0.285714  0.250000     48.000000
  0.357143  0.285714  0.250000     48.000000
  0.392857  0.285714  0.250000     48.000000
  0.428571  0.285714  0.250000     48.000000
  0.464286  0.285714  0.250000     48.000000
  0.500000  0.285714  0.250000     24.000000
  0.321429  0.321429  0.250000     24.000000
  0.357143  0.321429  0.250000     48.000000
  0.392857  0.321429  0.250000     48.000000
  0.428571  0.321429  0.250000     48.000000
  0.464286  0.321429  0.250000     48.000000
  0.500000  0.321429  0.250000     24.000000
  0.357143  0.357143  0.250000     24.000000
  0.392857  0.357143  0.250000     48.000000
  0.428571  0.357143  0.250000     48.000000
  0.464286  0.357143  0.250000     48.000000
  0.500000  0.357143  0.250000     24.000000
  0.392857  0.392857  0.250000     24.000000
  0.428571  0.392857  0.250000     48.000000
  0.464286  0.392857  0.250000     48.000000
  0.500000  0.392857  0.250000     24.000000
  0.428571  0.428571  0.250000     24.000000
  0.464286  0.428571  0.250000     48.000000
  0.500000  0.428571  0.250000     24.000000
  0.464286  0.464286  0.250000     24.000000
  0.500000  0.464286  0.250000     24.000000
  0.500000  0.500000  0.250000      6.000000
  0.285714  0.285714  0.285714      8.000000
  0.321429  0.285714  0.285714     24.000000
  0.357143  0.285714  0.285714     24.000000
  0.392857  0.285714  0.285714     24.000000
  0.428571  0.285714  0.285714     24.000000
  0.464286  0.285714  0.285714     24.000000
  0.500000  0.285714  0.285714     12.000000
  0.321429  0.321429  0.285714     24.000000
  0.357143  0.321429  0.285714     48.000000
  0.392857  0.321429  0.285714     48.000000
  0.428571  0.321429  0.285714     48.000000
  0.464286  0.321429  0.285714     48.000000
  0.500000  0.321429  0.285714     24.000000
  0.357143  0.357143  0.285714     24.000000
  0.392857  0.357143  0.285714     48.000000
  0.428571  0.357143  0.285714     48.000000
  0.464286  0.357143  0.285714     48.000000
  0.500000  0.357143  0.285714     24.000000
  0.392857  0.392857  0.285714     24.000000
  0.428571  0.392857  0.285714     48.000000
  0.464286  0.392857  0.285714     48.000000
  0.500000  0.392857  0.285714     24.000000
  0.428571  0.428571  0.285714     24.000000
  0.464286  0.428571  0.285714     48.000000
  0.500000  0.428571  0.285714     24.000000
  0.464286  0.464286  0.285714     24.000000
  0.500000  0.464286  0.285714     24.000000
  0.500000  0.500000  0.285714      6.000000
  0.321429  0.321429  0.321429      8.000000
  0.357143  0.321429  0.321429     24.000000
  0.392857  0.321429  0.321429     24.000000
  0.428571  0.321429  0.321429     24.000000
  0.464286  0.321429  0.321429     24.000000
  0.500000  0.321429  0.321429     12.000000
  0.357143  0.357143  0.321429     24.000000
  0.392857  0.357143  0.321429     48.000000
  0.428571  0.357143  0.321429     48.000000
  0.464286  0.357143  0.321429     48.000000
  0.500000  0.357143  0.321429     24.000000
  0.392857  0.392857  0.321429     24.000000
  0.428571  0.392857  0.321429     48.000000
  0.464286  0.392857  0.321429     48.000000
  0.500000  0.392857  0.321429     24.000000
  0.428571  0.428571  0.321429     24.000000
  0.464286  0.428571  0.321429     48.000000
  0.500000  0.428571  0.321429     24.000000
  0.464286  0.464286  0.321429     24.000000
  0.500000  0.464286  0.321429     24.000000
  0.500000  0.500000  0.321429      6.000000
  0.357143  0.357143  0.357143      8.000000
  0.392857  0.357143  0.357143     24.000000
  0.428571  0.357143  0.357143     24.000000
  0.464286  0.357143  0.357143     24.000000
  0.500000  0.357143  0.357143     12.000000
  0.392857  0.392857  0.357143     24.000000
  0.428571  0.392857  0.357143     48.000000
  0.464286  0.392857  0.357143     48.000000
  0.500000  0.392857  0.357143     24.000000
  0.428571  0.428571  0.357143     24.000000
  0.464286  0.428571  0.357143     48.000000
  0.500000  0.428571  0.357143     24.000000
  0.464286  0.464286  0.357143     24.000000
  0.500000  0.464286  0.357143     24.000000
  0.500000  0.500000  0.357143      6.000000
  0.392857  0.392857  0.392857      8.000000
  0.428571  0.392857  0.392857     24.000000
  0.464286  0.392857  0.392857     24.000000
  0.500000  0.392857  0.392857     12.000000
  0.428571  0.428571  0.392857     24.000000
  0.464286  0.428571  0.392857     48.000000
  0.500000  0.428571  0.392857     24.000000
  0.464286  0.464286  0.392857     24.000000
  0.500000  0.464286  0.392857     24.000000
  0.500000  0.500000  0.392857      6.000000
  0.428571  0.428571  0.428571      8.000000
  0.464286  0.428571  0.428571     24.000000
  0.500000  0.428571  0.428571     12.000000
  0.464286  0.464286  0.428571     24.000000
  0.500000  0.464286  0.428571     24.000000
  0.500000  0.500000  0.428571      6.000000
  0.464286  0.464286  0.464286      8.000000
  0.500000  0.464286  0.464286     12.000000
  0.500000  0.500000  0.464286      6.000000
  0.500000  0.500000  0.500000      1.000000
 
 Following cartesian coordinates:
            Coordinates               Weight
  0.000000  0.000000  0.000000      1.000000
  0.012575  0.000000  0.000000      6.000000
  0.025150  0.000000  0.000000      6.000000
  0.037726  0.000000  0.000000      6.000000
  0.050301  0.000000  0.000000      6.000000
  0.062876  0.000000  0.000000      6.000000
  0.075451  0.000000  0.000000      6.000000
  0.088027  0.000000  0.000000      6.000000
  0.100602  0.000000  0.000000      6.000000
  0.113177  0.000000  0.000000      6.000000
  0.125752  0.000000  0.000000      6.000000
  0.138327  0.000000  0.000000      6.000000
  0.150903  0.000000  0.000000      6.000000
  0.163478  0.000000  0.000000      6.000000
  0.176053  0.000000  0.000000      3.000000
  0.012575  0.012575  0.000000     12.000000
  0.025150  0.012575  0.000000     24.000000
  0.037726  0.012575  0.000000     24.000000
  0.050301  0.012575  0.000000     24.000000
  0.062876  0.012575  0.000000     24.000000
  0.075451  0.012575  0.000000     24.000000
  0.088027  0.012575  0.000000     24.000000
  0.100602  0.012575  0.000000     24.000000
  0.113177  0.012575  0.000000     24.000000
  0.125752  0.012575  0.000000     24.000000
  0.138327  0.012575  0.000000     24.000000
  0.150903  0.012575  0.000000     24.000000
  0.163478  0.012575  0.000000     24.000000
  0.176053  0.012575  0.000000     12.000000
  0.025150  0.025150  0.000000     12.000000
  0.037726  0.025150  0.000000     24.000000
  0.050301  0.025150  0.000000     24.000000
  0.062876  0.025150  0.000000     24.000000
  0.075451  0.025150  0.000000     24.000000
  0.088027  0.025150  0.000000     24.000000
  0.100602  0.025150  0.000000     24.000000
  0.113177  0.025150  0.000000     24.000000
  0.125752  0.025150  0.000000     24.000000
  0.138327  0.025150  0.000000     24.000000
  0.150903  0.025150  0.000000     24.000000
  0.163478  0.025150  0.000000     24.000000
  0.176053  0.025150  0.000000     12.000000
  0.037726  0.037726  0.000000     12.000000
  0.050301  0.037726  0.000000     24.000000
  0.062876  0.037726  0.000000     24.000000
  0.075451  0.037726  0.000000     24.000000
  0.088027  0.037726  0.000000     24.000000
  0.100602  0.037726  0.000000     24.000000
  0.113177  0.037726  0.000000     24.000000
  0.125752  0.037726  0.000000     24.000000
  0.138327  0.037726  0.000000     24.000000
  0.150903  0.037726  0.000000     24.000000
  0.163478  0.037726  0.000000     24.000000
  0.176053  0.037726  0.000000     12.000000
  0.050301  0.050301  0.000000     12.000000
  0.062876  0.050301  0.000000     24.000000
  0.075451  0.050301  0.000000     24.000000
  0.088027  0.050301  0.000000     24.000000
  0.100602  0.050301  0.000000     24.000000
  0.113177  0.050301  0.000000     24.000000
  0.125752  0.050301  0.000000     24.000000
  0.138327  0.050301  0.000000     24.000000
  0.150903  0.050301  0.000000     24.000000
  0.163478  0.050301  0.000000     24.000000
  0.176053  0.050301  0.000000     12.000000
  0.062876  0.062876  0.000000     12.000000
  0.075451  0.062876  0.000000     24.000000
  0.088027  0.062876  0.000000     24.000000
  0.100602  0.062876  0.000000     24.000000
  0.113177  0.062876  0.000000     24.000000
  0.125752  0.062876  0.000000     24.000000
  0.138327  0.062876  0.000000     24.000000
  0.150903  0.062876  0.000000     24.000000
  0.163478  0.062876  0.000000     24.000000
  0.176053  0.062876  0.000000     12.000000
  0.075451  0.075451  0.000000     12.000000
  0.088027  0.075451  0.000000     24.000000
  0.100602  0.075451  0.000000     24.000000
  0.113177  0.075451  0.000000     24.000000
  0.125752  0.075451  0.000000     24.000000
  0.138327  0.075451  0.000000     24.000000
  0.150903  0.075451  0.000000     24.000000
  0.163478  0.075451  0.000000     24.000000
  0.176053  0.075451  0.000000     12.000000
  0.088027  0.088027  0.000000     12.000000
  0.100602  0.088027  0.000000     24.000000
  0.113177  0.088027  0.000000     24.000000
  0.125752  0.088027  0.000000     24.000000
  0.138327  0.088027  0.000000     24.000000
  0.150903  0.088027  0.000000     24.000000
  0.163478  0.088027  0.000000     24.000000
  0.176053  0.088027  0.000000     12.000000
  0.100602  0.100602  0.000000     12.000000
  0.113177  0.100602  0.000000     24.000000
  0.125752  0.100602  0.000000     24.000000
  0.138327  0.100602  0.000000     24.000000
  0.150903  0.100602  0.000000     24.000000
  0.163478  0.100602  0.000000     24.000000
  0.176053  0.100602  0.000000     12.000000
  0.113177  0.113177  0.000000     12.000000
  0.125752  0.113177  0.000000     24.000000
  0.138327  0.113177  0.000000     24.000000
  0.150903  0.113177  0.000000     24.000000
  0.163478  0.113177  0.000000     24.000000
  0.176053  0.113177  0.000000     12.000000
  0.125752  0.125752  0.000000     12.000000
  0.138327  0.125752  0.000000     24.000000
  0.150903  0.125752  0.000000     24.000000
  0.163478  0.125752  0.000000     24.000000
  0.176053  0.125752  0.000000     12.000000
  0.138327  0.138327  0.000000     12.000000
  0.150903  0.138327  0.000000     24.000000
  0.163478  0.138327  0.000000     24.000000
  0.176053  0.138327  0.000000     12.000000
  0.150903  0.150903  0.000000     12.000000
  0.163478  0.150903  0.000000     24.000000
  0.176053  0.150903  0.000000     12.000000
  0.163478  0.163478  0.000000     12.000000
  0.176053  0.163478  0.000000     12.000000
  0.176053  0.176053  0.000000      3.000000
  0.012575  0.012575  0.012575      8.000000
  0.025150  0.012575  0.012575     24.000000
  0.037726  0.012575  0.012575     24.000000
  0.050301  0.012575  0.012575     24.000000
  0.062876  0.012575  0.012575     24.000000
  0.075451  0.012575  0.012575     24.000000
  0.088027  0.012575  0.012575     24.000000
  0.100602  0.012575  0.012575     24.000000
  0.113177  0.012575  0.012575     24.000000
  0.125752  0.012575  0.012575     24.000000
  0.138327  0.012575  0.012575     24.000000
  0.150903  0.012575  0.012575     24.000000
  0.163478  0.012575  0.012575     24.000000
  0.176053  0.012575  0.012575     12.000000
  0.025150  0.025150  0.012575     24.000000
  0.037726  0.025150  0.012575     48.000000
  0.050301  0.025150  0.012575     48.000000
  0.062876  0.025150  0.012575     48.000000
  0.075451  0.025150  0.012575     48.000000
  0.088027  0.025150  0.012575     48.000000
  0.100602  0.025150  0.012575     48.000000
  0.113177  0.025150  0.012575     48.000000
  0.125752  0.025150  0.012575     48.000000
  0.138327  0.025150  0.012575     48.000000
  0.150903  0.025150  0.012575     48.000000
  0.163478  0.025150  0.012575     48.000000
  0.176053  0.025150  0.012575     24.000000
  0.037726  0.037726  0.012575     24.000000
  0.050301  0.037726  0.012575     48.000000
  0.062876  0.037726  0.012575     48.000000
  0.075451  0.037726  0.012575     48.000000
  0.088027  0.037726  0.012575     48.000000
  0.100602  0.037726  0.012575     48.000000
  0.113177  0.037726  0.012575     48.000000
  0.125752  0.037726  0.012575     48.000000
  0.138327  0.037726  0.012575     48.000000
  0.150903  0.037726  0.012575     48.000000
  0.163478  0.037726  0.012575     48.000000
  0.176053  0.037726  0.012575     24.000000
  0.050301  0.050301  0.012575     24.000000
  0.062876  0.050301  0.012575     48.000000
  0.075451  0.050301  0.012575     48.000000
  0.088027  0.050301  0.012575     48.000000
  0.100602  0.050301  0.012575     48.000000
  0.113177  0.050301  0.012575     48.000000
  0.125752  0.050301  0.012575     48.000000
  0.138327  0.050301  0.012575     48.000000
  0.150903  0.050301  0.012575     48.000000
  0.163478  0.050301  0.012575     48.000000
  0.176053  0.050301  0.012575     24.000000
  0.062876  0.062876  0.012575     24.000000
  0.075451  0.062876  0.012575     48.000000
  0.088027  0.062876  0.012575     48.000000
  0.100602  0.062876  0.012575     48.000000
  0.113177  0.062876  0.012575     48.000000
  0.125752  0.062876  0.012575     48.000000
  0.138327  0.062876  0.012575     48.000000
  0.150903  0.062876  0.012575     48.000000
  0.163478  0.062876  0.012575     48.000000
  0.176053  0.062876  0.012575     24.000000
  0.075451  0.075451  0.012575     24.000000
  0.088027  0.075451  0.012575     48.000000
  0.100602  0.075451  0.012575     48.000000
  0.113177  0.075451  0.012575     48.000000
  0.125752  0.075451  0.012575     48.000000
  0.138327  0.075451  0.012575     48.000000
  0.150903  0.075451  0.012575     48.000000
  0.163478  0.075451  0.012575     48.000000
  0.176053  0.075451  0.012575     24.000000
  0.088027  0.088027  0.012575     24.000000
  0.100602  0.088027  0.012575     48.000000
  0.113177  0.088027  0.012575     48.000000
  0.125752  0.088027  0.012575     48.000000
  0.138327  0.088027  0.012575     48.000000
  0.150903  0.088027  0.012575     48.000000
  0.163478  0.088027  0.012575     48.000000
  0.176053  0.088027  0.012575     24.000000
  0.100602  0.100602  0.012575     24.000000
  0.113177  0.100602  0.012575     48.000000
  0.125752  0.100602  0.012575     48.000000
  0.138327  0.100602  0.012575     48.000000
  0.150903  0.100602  0.012575     48.000000
  0.163478  0.100602  0.012575     48.000000
  0.176053  0.100602  0.012575     24.000000
  0.113177  0.113177  0.012575     24.000000
  0.125752  0.113177  0.012575     48.000000
  0.138327  0.113177  0.012575     48.000000
  0.150903  0.113177  0.012575     48.000000
  0.163478  0.113177  0.012575     48.000000
  0.176053  0.113177  0.012575     24.000000
  0.125752  0.125752  0.012575     24.000000
  0.138327  0.125752  0.012575     48.000000
  0.150903  0.125752  0.012575     48.000000
  0.163478  0.125752  0.012575     48.000000
  0.176053  0.125752  0.012575     24.000000
  0.138327  0.138327  0.012575     24.000000
  0.150903  0.138327  0.012575     48.000000
  0.163478  0.138327  0.012575     48.000000
  0.176053  0.138327  0.012575     24.000000
  0.150903  0.150903  0.012575     24.000000
  0.163478  0.150903  0.012575     48.000000
  0.176053  0.150903  0.012575     24.000000
  0.163478  0.163478  0.012575     24.000000
  0.176053  0.163478  0.012575     24.000000
  0.176053  0.176053  0.012575      6.000000
  0.025150  0.025150  0.025150      8.000000
  0.037726  0.025150  0.025150     24.000000
  0.050301  0.025150  0.025150     24.000000
  0.062876  0.025150  0.025150     24.000000
  0.075451  0.025150  0.025150     24.000000
  0.088027  0.025150  0.025150     24.000000
  0.100602  0.025150  0.025150     24.000000
  0.113177  0.025150  0.025150     24.000000
  0.125752  0.025150  0.025150     24.000000
  0.138327  0.025150  0.025150     24.000000
  0.150903  0.025150  0.025150     24.000000
  0.163478  0.025150  0.025150     24.000000
  0.176053  0.025150  0.025150     12.000000
  0.037726  0.037726  0.025150     24.000000
  0.050301  0.037726  0.025150     48.000000
  0.062876  0.037726  0.025150     48.000000
  0.075451  0.037726  0.025150     48.000000
  0.088027  0.037726  0.025150     48.000000
  0.100602  0.037726  0.025150     48.000000
  0.113177  0.037726  0.025150     48.000000
  0.125752  0.037726  0.025150     48.000000
  0.138327  0.037726  0.025150     48.000000
  0.150903  0.037726  0.025150     48.000000
  0.163478  0.037726  0.025150     48.000000
  0.176053  0.037726  0.025150     24.000000
  0.050301  0.050301  0.025150     24.000000
  0.062876  0.050301  0.025150     48.000000
  0.075451  0.050301  0.025150     48.000000
  0.088027  0.050301  0.025150     48.000000
  0.100602  0.050301  0.025150     48.000000
  0.113177  0.050301  0.025150     48.000000
  0.125752  0.050301  0.025150     48.000000
  0.138327  0.050301  0.025150     48.000000
  0.150903  0.050301  0.025150     48.000000
  0.163478  0.050301  0.025150     48.000000
  0.176053  0.050301  0.025150     24.000000
  0.062876  0.062876  0.025150     24.000000
  0.075451  0.062876  0.025150     48.000000
  0.088027  0.062876  0.025150     48.000000
  0.100602  0.062876  0.025150     48.000000
  0.113177  0.062876  0.025150     48.000000
  0.125752  0.062876  0.025150     48.000000
  0.138327  0.062876  0.025150     48.000000
  0.150903  0.062876  0.025150     48.000000
  0.163478  0.062876  0.025150     48.000000
  0.176053  0.062876  0.025150     24.000000
  0.075451  0.075451  0.025150     24.000000
  0.088027  0.075451  0.025150     48.000000
  0.100602  0.075451  0.025150     48.000000
  0.113177  0.075451  0.025150     48.000000
  0.125752  0.075451  0.025150     48.000000
  0.138327  0.075451  0.025150     48.000000
  0.150903  0.075451  0.025150     48.000000
  0.163478  0.075451  0.025150     48.000000
  0.176053  0.075451  0.025150     24.000000
  0.088027  0.088027  0.025150     24.000000
  0.100602  0.088027  0.025150     48.000000
  0.113177  0.088027  0.025150     48.000000
  0.125752  0.088027  0.025150     48.000000
  0.138327  0.088027  0.025150     48.000000
  0.150903  0.088027  0.025150     48.000000
  0.163478  0.088027  0.025150     48.000000
  0.176053  0.088027  0.025150     24.000000
  0.100602  0.100602  0.025150     24.000000
  0.113177  0.100602  0.025150     48.000000
  0.125752  0.100602  0.025150     48.000000
  0.138327  0.100602  0.025150     48.000000
  0.150903  0.100602  0.025150     48.000000
  0.163478  0.100602  0.025150     48.000000
  0.176053  0.100602  0.025150     24.000000
  0.113177  0.113177  0.025150     24.000000
  0.125752  0.113177  0.025150     48.000000
  0.138327  0.113177  0.025150     48.000000
  0.150903  0.113177  0.025150     48.000000
  0.163478  0.113177  0.025150     48.000000
  0.176053  0.113177  0.025150     24.000000
  0.125752  0.125752  0.025150     24.000000
  0.138327  0.125752  0.025150     48.000000
  0.150903  0.125752  0.025150     48.000000
  0.163478  0.125752  0.025150     48.000000
  0.176053  0.125752  0.025150     24.000000
  0.138327  0.138327  0.025150     24.000000
  0.150903  0.138327  0.025150     48.000000
  0.163478  0.138327  0.025150     48.000000
  0.176053  0.138327  0.025150     24.000000
  0.150903  0.150903  0.025150     24.000000
  0.163478  0.150903  0.025150     48.000000
  0.176053  0.150903  0.025150     24.000000
  0.163478  0.163478  0.025150     24.000000
  0.176053  0.163478  0.025150     24.000000
  0.176053  0.176053  0.025150      6.000000
  0.037726  0.037726  0.037726      8.000000
  0.050301  0.037726  0.037726     24.000000
  0.062876  0.037726  0.037726     24.000000
  0.075451  0.037726  0.037726     24.000000
  0.088027  0.037726  0.037726     24.000000
  0.100602  0.037726  0.037726     24.000000
  0.113177  0.037726  0.037726     24.000000
  0.125752  0.037726  0.037726     24.000000
  0.138327  0.037726  0.037726     24.000000
  0.150903  0.037726  0.037726     24.000000
  0.163478  0.037726  0.037726     24.000000
  0.176053  0.037726  0.037726     12.000000
  0.050301  0.050301  0.037726     24.000000
  0.062876  0.050301  0.037726     48.000000
  0.075451  0.050301  0.037726     48.000000
  0.088027  0.050301  0.037726     48.000000
  0.100602  0.050301  0.037726     48.000000
  0.113177  0.050301  0.037726     48.000000
  0.125752  0.050301  0.037726     48.000000
  0.138327  0.050301  0.037726     48.000000
  0.150903  0.050301  0.037726     48.000000
  0.163478  0.050301  0.037726     48.000000
  0.176053  0.050301  0.037726     24.000000
  0.062876  0.062876  0.037726     24.000000
  0.075451  0.062876  0.037726     48.000000
  0.088027  0.062876  0.037726     48.000000
  0.100602  0.062876  0.037726     48.000000
  0.113177  0.062876  0.037726     48.000000
  0.125752  0.062876  0.037726     48.000000
  0.138327  0.062876  0.037726     48.000000
  0.150903  0.062876  0.037726     48.000000
  0.163478  0.062876  0.037726     48.000000
  0.176053  0.062876  0.037726     24.000000
  0.075451  0.075451  0.037726     24.000000
  0.088027  0.075451  0.037726     48.000000
  0.100602  0.075451  0.037726     48.000000
  0.113177  0.075451  0.037726     48.000000
  0.125752  0.075451  0.037726     48.000000
  0.138327  0.075451  0.037726     48.000000
  0.150903  0.075451  0.037726     48.000000
  0.163478  0.075451  0.037726     48.000000
  0.176053  0.075451  0.037726     24.000000
  0.088027  0.088027  0.037726     24.000000
  0.100602  0.088027  0.037726     48.000000
  0.113177  0.088027  0.037726     48.000000
  0.125752  0.088027  0.037726     48.000000
  0.138327  0.088027  0.037726     48.000000
  0.150903  0.088027  0.037726     48.000000
  0.163478  0.088027  0.037726     48.000000
  0.176053  0.088027  0.037726     24.000000
  0.100602  0.100602  0.037726     24.000000
  0.113177  0.100602  0.037726     48.000000
  0.125752  0.100602  0.037726     48.000000
  0.138327  0.100602  0.037726     48.000000
  0.150903  0.100602  0.037726     48.000000
  0.163478  0.100602  0.037726     48.000000
  0.176053  0.100602  0.037726     24.000000
  0.113177  0.113177  0.037726     24.000000
  0.125752  0.113177  0.037726     48.000000
  0.138327  0.113177  0.037726     48.000000
  0.150903  0.113177  0.037726     48.000000
  0.163478  0.113177  0.037726     48.000000
  0.176053  0.113177  0.037726     24.000000
  0.125752  0.125752  0.037726     24.000000
  0.138327  0.125752  0.037726     48.000000
  0.150903  0.125752  0.037726     48.000000
  0.163478  0.125752  0.037726     48.000000
  0.176053  0.125752  0.037726     24.000000
  0.138327  0.138327  0.037726     24.000000
  0.150903  0.138327  0.037726     48.000000
  0.163478  0.138327  0.037726     48.000000
  0.176053  0.138327  0.037726     24.000000
  0.150903  0.150903  0.037726     24.000000
  0.163478  0.150903  0.037726     48.000000
  0.176053  0.150903  0.037726     24.000000
  0.163478  0.163478  0.037726     24.000000
  0.176053  0.163478  0.037726     24.000000
  0.176053  0.176053  0.037726      6.000000
  0.050301  0.050301  0.050301      8.000000
  0.062876  0.050301  0.050301     24.000000
  0.075451  0.050301  0.050301     24.000000
  0.088027  0.050301  0.050301     24.000000
  0.100602  0.050301  0.050301     24.000000
  0.113177  0.050301  0.050301     24.000000
  0.125752  0.050301  0.050301     24.000000
  0.138327  0.050301  0.050301     24.000000
  0.150903  0.050301  0.050301     24.000000
  0.163478  0.050301  0.050301     24.000000
  0.176053  0.050301  0.050301     12.000000
  0.062876  0.062876  0.050301     24.000000
  0.075451  0.062876  0.050301     48.000000
  0.088027  0.062876  0.050301     48.000000
  0.100602  0.062876  0.050301     48.000000
  0.113177  0.062876  0.050301     48.000000
  0.125752  0.062876  0.050301     48.000000
  0.138327  0.062876  0.050301     48.000000
  0.150903  0.062876  0.050301     48.000000
  0.163478  0.062876  0.050301     48.000000
  0.176053  0.062876  0.050301     24.000000
  0.075451  0.075451  0.050301     24.000000
  0.088027  0.075451  0.050301     48.000000
  0.100602  0.075451  0.050301     48.000000
  0.113177  0.075451  0.050301     48.000000
  0.125752  0.075451  0.050301     48.000000
  0.138327  0.075451  0.050301     48.000000
  0.150903  0.075451  0.050301     48.000000
  0.163478  0.075451  0.050301     48.000000
  0.176053  0.075451  0.050301     24.000000
  0.088027  0.088027  0.050301     24.000000
  0.100602  0.088027  0.050301     48.000000
  0.113177  0.088027  0.050301     48.000000
  0.125752  0.088027  0.050301     48.000000
  0.138327  0.088027  0.050301     48.000000
  0.150903  0.088027  0.050301     48.000000
  0.163478  0.088027  0.050301     48.000000
  0.176053  0.088027  0.050301     24.000000
  0.100602  0.100602  0.050301     24.000000
  0.113177  0.100602  0.050301     48.000000
  0.125752  0.100602  0.050301     48.000000
  0.138327  0.100602  0.050301     48.000000
  0.150903  0.100602  0.050301     48.000000
  0.163478  0.100602  0.050301     48.000000
  0.176053  0.100602  0.050301     24.000000
  0.113177  0.113177  0.050301     24.000000
  0.125752  0.113177  0.050301     48.000000
  0.138327  0.113177  0.050301     48.000000
  0.150903  0.113177  0.050301     48.000000
  0.163478  0.113177  0.050301     48.000000
  0.176053  0.113177  0.050301     24.000000
  0.125752  0.125752  0.050301     24.000000
  0.138327  0.125752  0.050301     48.000000
  0.150903  0.125752  0.050301     48.000000
  0.163478  0.125752  0.050301     48.000000
  0.176053  0.125752  0.050301     24.000000
  0.138327  0.138327  0.050301     24.000000
  0.150903  0.138327  0.050301     48.000000
  0.163478  0.138327  0.050301     48.000000
  0.176053  0.138327  0.050301     24.000000
  0.150903  0.150903  0.050301     24.000000
  0.163478  0.150903  0.050301     48.000000
  0.176053  0.150903  0.050301     24.000000
  0.163478  0.163478  0.050301     24.000000
  0.176053  0.163478  0.050301     24.000000
  0.176053  0.176053  0.050301      6.000000
  0.062876  0.062876  0.062876      8.000000
  0.075451  0.062876  0.062876     24.000000
  0.088027  0.062876  0.062876     24.000000
  0.100602  0.062876  0.062876     24.000000
  0.113177  0.062876  0.062876     24.000000
  0.125752  0.062876  0.062876     24.000000
  0.138327  0.062876  0.062876     24.000000
  0.150903  0.062876  0.062876     24.000000
  0.163478  0.062876  0.062876     24.000000
  0.176053  0.062876  0.062876     12.000000
  0.075451  0.075451  0.062876     24.000000
  0.088027  0.075451  0.062876     48.000000
  0.100602  0.075451  0.062876     48.000000
  0.113177  0.075451  0.062876     48.000000
  0.125752  0.075451  0.062876     48.000000
  0.138327  0.075451  0.062876     48.000000
  0.150903  0.075451  0.062876     48.000000
  0.163478  0.075451  0.062876     48.000000
  0.176053  0.075451  0.062876     24.000000
  0.088027  0.088027  0.062876     24.000000
  0.100602  0.088027  0.062876     48.000000
  0.113177  0.088027  0.062876     48.000000
  0.125752  0.088027  0.062876     48.000000
  0.138327  0.088027  0.062876     48.000000
  0.150903  0.088027  0.062876     48.000000
  0.163478  0.088027  0.062876     48.000000
  0.176053  0.088027  0.062876     24.000000
  0.100602  0.100602  0.062876     24.000000
  0.113177  0.100602  0.062876     48.000000
  0.125752  0.100602  0.062876     48.000000
  0.138327  0.100602  0.062876     48.000000
  0.150903  0.100602  0.062876     48.000000
  0.163478  0.100602  0.062876     48.000000
  0.176053  0.100602  0.062876     24.000000
  0.113177  0.113177  0.062876     24.000000
  0.125752  0.113177  0.062876     48.000000
  0.138327  0.113177  0.062876     48.000000
  0.150903  0.113177  0.062876     48.000000
  0.163478  0.113177  0.062876     48.000000
  0.176053  0.113177  0.062876     24.000000
  0.125752  0.125752  0.062876     24.000000
  0.138327  0.125752  0.062876     48.000000
  0.150903  0.125752  0.062876     48.000000
  0.163478  0.125752  0.062876     48.000000
  0.176053  0.125752  0.062876     24.000000
  0.138327  0.138327  0.062876     24.000000
  0.150903  0.138327  0.062876     48.000000
  0.163478  0.138327  0.062876     48.000000
  0.176053  0.138327  0.062876     24.000000
  0.150903  0.150903  0.062876     24.000000
  0.163478  0.150903  0.062876     48.000000
  0.176053  0.150903  0.062876     24.000000
  0.163478  0.163478  0.062876     24.000000
  0.176053  0.163478  0.062876     24.000000
  0.176053  0.176053  0.062876      6.000000
  0.075451  0.075451  0.075451      8.000000
  0.088027  0.075451  0.075451     24.000000
  0.100602  0.075451  0.075451     24.000000
  0.113177  0.075451  0.075451     24.000000
  0.125752  0.075451  0.075451     24.000000
  0.138327  0.075451  0.075451     24.000000
  0.150903  0.075451  0.075451     24.000000
  0.163478  0.075451  0.075451     24.000000
  0.176053  0.075451  0.075451     12.000000
  0.088027  0.088027  0.075451     24.000000
  0.100602  0.088027  0.075451     48.000000
  0.113177  0.088027  0.075451     48.000000
  0.125752  0.088027  0.075451     48.000000
  0.138327  0.088027  0.075451     48.000000
  0.150903  0.088027  0.075451     48.000000
  0.163478  0.088027  0.075451     48.000000
  0.176053  0.088027  0.075451     24.000000
  0.100602  0.100602  0.075451     24.000000
  0.113177  0.100602  0.075451     48.000000
  0.125752  0.100602  0.075451     48.000000
  0.138327  0.100602  0.075451     48.000000
  0.150903  0.100602  0.075451     48.000000
  0.163478  0.100602  0.075451     48.000000
  0.176053  0.100602  0.075451     24.000000
  0.113177  0.113177  0.075451     24.000000
  0.125752  0.113177  0.075451     48.000000
  0.138327  0.113177  0.075451     48.000000
  0.150903  0.113177  0.075451     48.000000
  0.163478  0.113177  0.075451     48.000000
  0.176053  0.113177  0.075451     24.000000
  0.125752  0.125752  0.075451     24.000000
  0.138327  0.125752  0.075451     48.000000
  0.150903  0.125752  0.075451     48.000000
  0.163478  0.125752  0.075451     48.000000
  0.176053  0.125752  0.075451     24.000000
  0.138327  0.138327  0.075451     24.000000
  0.150903  0.138327  0.075451     48.000000
  0.163478  0.138327  0.075451     48.000000
  0.176053  0.138327  0.075451     24.000000
  0.150903  0.150903  0.075451     24.000000
  0.163478  0.150903  0.075451     48.000000
  0.176053  0.150903  0.075451     24.000000
  0.163478  0.163478  0.075451     24.000000
  0.176053  0.163478  0.075451     24.000000
  0.176053  0.176053  0.075451      6.000000
  0.088027  0.088027  0.088027      8.000000
  0.100602  0.088027  0.088027     24.000000
  0.113177  0.088027  0.088027     24.000000
  0.125752  0.088027  0.088027     24.000000
  0.138327  0.088027  0.088027     24.000000
  0.150903  0.088027  0.088027     24.000000
  0.163478  0.088027  0.088027     24.000000
  0.176053  0.088027  0.088027     12.000000
  0.100602  0.100602  0.088027     24.000000
  0.113177  0.100602  0.088027     48.000000
  0.125752  0.100602  0.088027     48.000000
  0.138327  0.100602  0.088027     48.000000
  0.150903  0.100602  0.088027     48.000000
  0.163478  0.100602  0.088027     48.000000
  0.176053  0.100602  0.088027     24.000000
  0.113177  0.113177  0.088027     24.000000
  0.125752  0.113177  0.088027     48.000000
  0.138327  0.113177  0.088027     48.000000
  0.150903  0.113177  0.088027     48.000000
  0.163478  0.113177  0.088027     48.000000
  0.176053  0.113177  0.088027     24.000000
  0.125752  0.125752  0.088027     24.000000
  0.138327  0.125752  0.088027     48.000000
  0.150903  0.125752  0.088027     48.000000
  0.163478  0.125752  0.088027     48.000000
  0.176053  0.125752  0.088027     24.000000
  0.138327  0.138327  0.088027     24.000000
  0.150903  0.138327  0.088027     48.000000
  0.163478  0.138327  0.088027     48.000000
  0.176053  0.138327  0.088027     24.000000
  0.150903  0.150903  0.088027     24.000000
  0.163478  0.150903  0.088027     48.000000
  0.176053  0.150903  0.088027     24.000000
  0.163478  0.163478  0.088027     24.000000
  0.176053  0.163478  0.088027     24.000000
  0.176053  0.176053  0.088027      6.000000
  0.100602  0.100602  0.100602      8.000000
  0.113177  0.100602  0.100602     24.000000
  0.125752  0.100602  0.100602     24.000000
  0.138327  0.100602  0.100602     24.000000
  0.150903  0.100602  0.100602     24.000000
  0.163478  0.100602  0.100602     24.000000
  0.176053  0.100602  0.100602     12.000000
  0.113177  0.113177  0.100602     24.000000
  0.125752  0.113177  0.100602     48.000000
  0.138327  0.113177  0.100602     48.000000
  0.150903  0.113177  0.100602     48.000000
  0.163478  0.113177  0.100602     48.000000
  0.176053  0.113177  0.100602     24.000000
  0.125752  0.125752  0.100602     24.000000
  0.138327  0.125752  0.100602     48.000000
  0.150903  0.125752  0.100602     48.000000
  0.163478  0.125752  0.100602     48.000000
  0.176053  0.125752  0.100602     24.000000
  0.138327  0.138327  0.100602     24.000000
  0.150903  0.138327  0.100602     48.000000
  0.163478  0.138327  0.100602     48.000000
  0.176053  0.138327  0.100602     24.000000
  0.150903  0.150903  0.100602     24.000000
  0.163478  0.150903  0.100602     48.000000
  0.176053  0.150903  0.100602     24.000000
  0.163478  0.163478  0.100602     24.000000
  0.176053  0.163478  0.100602     24.000000
  0.176053  0.176053  0.100602      6.000000
  0.113177  0.113177  0.113177      8.000000
  0.125752  0.113177  0.113177     24.000000
  0.138327  0.113177  0.113177     24.000000
  0.150903  0.113177  0.113177     24.000000
  0.163478  0.113177  0.113177     24.000000
  0.176053  0.113177  0.113177     12.000000
  0.125752  0.125752  0.113177     24.000000
  0.138327  0.125752  0.113177     48.000000
  0.150903  0.125752  0.113177     48.000000
  0.163478  0.125752  0.113177     48.000000
  0.176053  0.125752  0.113177     24.000000
  0.138327  0.138327  0.113177     24.000000
  0.150903  0.138327  0.113177     48.000000
  0.163478  0.138327  0.113177     48.000000
  0.176053  0.138327  0.113177     24.000000
  0.150903  0.150903  0.113177     24.000000
  0.163478  0.150903  0.113177     48.000000
  0.176053  0.150903  0.113177     24.000000
  0.163478  0.163478  0.113177     24.000000
  0.176053  0.163478  0.113177     24.000000
  0.176053  0.176053  0.113177      6.000000
  0.125752  0.125752  0.125752      8.000000
  0.138327  0.125752  0.125752     24.000000
  0.150903  0.125752  0.125752     24.000000
  0.163478  0.125752  0.125752     24.000000
  0.176053  0.125752  0.125752     12.000000
  0.138327  0.138327  0.125752     24.000000
  0.150903  0.138327  0.125752     48.000000
  0.163478  0.138327  0.125752     48.000000
  0.176053  0.138327  0.125752     24.000000
  0.150903  0.150903  0.125752     24.000000
  0.163478  0.150903  0.125752     48.000000
  0.176053  0.150903  0.125752     24.000000
  0.163478  0.163478  0.125752     24.000000
  0.176053  0.163478  0.125752     24.000000
  0.176053  0.176053  0.125752      6.000000
  0.138327  0.138327  0.138327      8.000000
  0.150903  0.138327  0.138327     24.000000
  0.163478  0.138327  0.138327     24.000000
  0.176053  0.138327  0.138327     12.000000
  0.150903  0.150903  0.138327     24.000000
  0.163478  0.150903  0.138327     48.000000
  0.176053  0.150903  0.138327     24.000000
  0.163478  0.163478  0.138327     24.000000
  0.176053  0.163478  0.138327     24.000000
  0.176053  0.176053  0.138327      6.000000
  0.150903  0.150903  0.150903      8.000000
  0.163478  0.150903  0.150903     24.000000
  0.176053  0.150903  0.150903     12.000000
  0.163478  0.163478  0.150903     24.000000
  0.176053  0.163478  0.150903     24.000000
  0.176053  0.176053  0.150903      6.000000
  0.163478  0.163478  0.163478      8.000000
  0.176053  0.163478  0.163478     12.000000
  0.176053  0.176053  0.163478      6.000000
  0.176053  0.176053  0.176053      1.000000
 
 TETIRR: Found  10950 inequivalent tetrahedra from   131712


--------------------------------------------------------------------------------------------------------




 Dimension of arrays:
   k-points           NKPTS =    680   k-points in BZ     NKDIM =    680   number of bands    NBANDS=     24
   number of dos      NEDOS =    301   number of ions     NIONS =      2
   non local maximal  LDIM  =      6   non local SUM 2l+1 LMDIM =     18
   total plane-waves  NPLWV =  21952
   max r-space proj   IRMAX =   8080   max aug-charges    IRDMAX=  28578
   dimension x,y,z NGX =    28 NGY =   28 NGZ =   28
   dimension x,y,z NGXF=    56 NGYF=   56 NGZF=   56
   support grid    NGXF=    56 NGYF=   56 NGZF=   56
   ions per type =               2
   NGX,Y,Z   is equivalent  to a cutoff of  16.39, 16.39, 16.39 a.u.
   NGXF,Y,Z  is equivalent  to a cutoff of  32.78, 32.78, 32.78 a.u.

 SYSTEM =  unknown system                          
 POSCAR =  Fe2                                     

 Startparameter for this run:
   NWRITE =      2    write-flag & timer
   PREC   = accura    normal or accurate (medium, high low for compatibility)
   ISTART =      0    job   : 0-new  1-cont  2-samecut
   ICHARG =      2    charge: 1-file 2-atom 10-const
   ISPIN  =      2    spin polarized calculation?
   LNONCOLLINEAR =      F non collinear calculations
   LSORBIT =      F    spin-orbit coupling
   INIWAV =      1    electr: 0-lowe 1-rand  2-diag
   LASPH  =      F    aspherical Exc in radial PAW
   METAGGA=      F    non-selfconsistent MetaGGA calc.

 Electronic Relaxation 1
   ENCUT  =  920.0 eV  67.62 Ry    8.22 a.u.   7.02  7.02  7.02*2*pi/ulx,y,z
   ENINI  =  920.0     initial cutoff
   ENAUG  =  578.3 eV  augmentation charge cutoff
   NELM   =    100;   NELMIN=  2; NELMDL= -5     # of ELM steps 
   EDIFF  = 0.1E-06   stopping-criterion for ELM
   LREAL  =      T    real-space projection
   NLSPLINE    = F    spline interpolate recip. space projectors
   LCOMPAT=      F    compatible to vasp.4.4
   GGA_COMPAT  = T    GGA compatible to vasp.4.4-vasp.4.6
   LMAXPAW     = -100 max onsite density
   LMAXMIX     =    2 max onsite mixed and CHGCAR
   VOSKOWN=      0    Vosko Wilk Nusair interpolation
   ROPT   =   -0.00025
 Ionic relaxation
   EDIFFG = 0.1E-05   stopping-criterion for IOM
   NSW    =      0    number of steps for IOM
   NBLOCK =      1;   KBLOCK =      1    inner block; outer block 
   IBRION =     -1    ionic relax: 0-MD 1-quasi-New 2-CG
   NFREE  =      0    steps in history (QN), initial steepest desc. (CG)
   ISIF   =      3    stress and relaxation
   IWAVPR =     10    prediction:  0-non 1-charg 2-wave 3-comb
   ISYM   =      2    0-nonsym 1-usesym 2-fastsym
   LCORR  =      T    Harris-Foulkes like correction to forces

   POTIM  = 0.5000    time-step for ionic-motion
   TEIN   =    0.0    initial temperature
   TEBEG  =    0.0;   TEEND  =   0.0 temperature during run
   SMASS  =  -3.00    Nose mass-parameter (am)
[...]
     19      18.7044      0.00000
     20      19.6433      0.00000
     21      20.1721      0.00000
     22      20.5434      0.00000
     23      21.6205      0.00000
     24      22.2244      0.00000

 k-point   675 :       0.5000    0.4643    0.4286
  band No.  band energies     occupation 
      1     -41.9160      1.00000
      2     -41.9160      1.00000
      3     -41.8592      1.00000
      4     -41.8592      1.00000
      5     -41.8071      1.00000
      6     -41.8071      1.00000
      7       7.7326      1.00000
      8       7.7326      1.00000
      9       7.8428      1.00000
     10       7.8428      1.00000
     11       8.0168      1.00000
     12       8.0168      1.00000
     13      11.5458      0.00000
     14      11.5458      0.00000
     15      11.5666      0.00000
     16      11.5666      0.00000
     17      17.6303      0.00000
     18      17.6303      0.00000
     19      19.1171      0.00000
     20      19.1171      0.00000
     21      20.3897      0.00000
     22      20.3897      0.00000
     23      21.7743      0.00000
     24      21.7743      0.00000

 k-point   676 :       0.5000    0.5000    0.4286
  band No.  band energies     occupation 
      1     -41.9113      1.00000
      2     -41.9113      1.00000
      3     -41.8586      1.00000
      4     -41.8586      1.00000
      5     -41.8131      1.00000
      6     -41.8131      1.00000
      7       7.7689      1.00000
      8       7.7689      1.00000
      9       7.8022      1.00000
     10       7.8022      1.00000
     11       8.0283      1.00000
     12       8.0283      1.00000
     13      11.5485      0.00000
     14      11.5485      0.00000
     15      11.5709      0.00000
     16      11.5709      0.00000
     17      17.8375      0.00000
     18      17.8375      0.00000
     19      18.9414      0.00000
     20      18.9414      0.00000
     21      20.4961      0.00000
     22      20.4961      0.00000
     23      21.5431      0.00000
     24      21.5431      0.00000

 k-point   677 :       0.4643    0.4643    0.4643
  band No.  band energies     occupation 
      1     -41.9098      1.00000
      2     -41.8859      1.00000
      3     -41.8859      1.00000
      4     -41.8366      1.00000
      5     -41.8366      1.00000
      6     -41.8126      1.00000
      7       7.7361      1.00000
      8       7.8307      1.00000
      9       7.8307      1.00000
     10       7.9338      1.00000
     11       7.9375      1.00000
     12       7.9375      1.00000
     13      11.5623      0.00000
     14      11.5623      0.00000
     15      11.5634      0.00000
     16      11.5634      0.00000
     17      17.7024      0.00000
     18      18.5332      0.00000
     19      18.5332      0.00000
     20      19.8600      0.00000
     21      19.8600      0.00000
     22      19.9620      0.00000
     23      21.3139      0.00000
     24      21.6958      0.00000

 k-point   678 :       0.5000    0.4643    0.4643
  band No.  band energies     occupation 
      1     -41.8964      1.00000
      2     -41.8964      1.00000
      3     -41.8612      1.00000
      4     -41.8612      1.00000
      5     -41.8269      1.00000
      6     -41.8269      1.00000
      7       7.7881      1.00000
      8       7.7881      1.00000
      9       7.8740      1.00000
     10       7.8740      1.00000
     11       7.9478      1.00000
     12       7.9478      1.00000
     13      11.5633      0.00000
     14      11.5633      0.00000
     15      11.5693      0.00000
     16      11.5693      0.00000
     17      18.1637      0.00000
     18      18.1637      0.00000
     19      19.1895      0.00000
     20      19.1895      0.00000
     21      19.9396      0.00000
     22      19.9396      0.00000
     23      21.3448      0.00000
     24      21.3448      0.00000

 k-point   679 :       0.5000    0.5000    0.4643
  band No.  band energies     occupation 
      1     -41.8868      1.00000
      2     -41.8868      1.00000
      3     -41.8611      1.00000
      4     -41.8611      1.00000
      5     -41.8373      1.00000
      6     -41.8373      1.00000
      7       7.8287      1.00000
      8       7.8287      1.00000
      9       7.8474      1.00000
     10       7.8474      1.00000
     11       7.9403      1.00000
     12       7.9403      1.00000
     13      11.5669      0.00000
     14      11.5669      0.00000
     15      11.5727      0.00000
     16      11.5727      0.00000
     17      18.4807      0.00000
     18      18.4807      0.00000
     19      19.0794      0.00000
     20      19.0794      0.00000
     21      19.8113      0.00000
     22      19.8113      0.00000
     23      21.1738      0.00000
     24      21.1738      0.00000

 k-point   680 :       0.5000    0.5000    0.5000
  band No.  band energies     occupation 
      1     -41.8620      1.00000
      2     -41.8620      1.00000
      3     -41.8620      1.00000
      4     -41.8620      1.00000
      5     -41.8620      1.00000
      6     -41.8620      1.00000
      7       7.8742      1.00000
      8       7.8742      1.00000
      9       7.8742      1.00000
     10       7.8742      1.00000
     11       7.8742      1.00000
     12       7.8742      1.00000
     13      11.5733      0.00000
     14      11.5733      0.00000
     15      11.5733      0.00000
     16      11.5733      0.00000
     17      19.1391      0.00000
     18      19.1391      0.00000
     19      19.1391      0.00000
     20      19.1391      0.00000
     21      19.1391      0.00000
     22      19.1391      0.00000
     23      21.0360      0.00000
     24      21.0360      0.00000


--------------------------------------------------------------------------------------------------------


 soft charge-density along one line, spin component           1
         0         1         2         3         4         5         6         7         8         9
 total charge-density along one line
 
 soft charge-density along one line, spin component           2
         0         1         2         3         4         5         6         7         8         9
 total charge-density along one line
 
 pseudopotential strength for first ion, spin component:           1
-44.850  -0.000   0.000   7.567   0.000  -0.000  -0.000  -0.000
 -0.000 -44.850  -0.000   0.000   7.567   0.000  -0.000  -0.000
  0.000  -0.000 -44.850  -0.000   0.000   7.567  -0.000  -0.000
  7.567   0.000  -0.000   5.639   0.000  -0.000   0.000   0.000
  0.000   7.567   0.000   0.000   5.639   0.000   0.000   0.000
 -0.000   0.000   7.567  -0.000   0.000   5.639   0.000   0.000
 -0.000  -0.000  -0.000   0.000   0.000   0.000  -1.976  -0.000
 -0.000  -0.000  -0.000   0.000   0.000   0.000  -0.000  -1.976
  0.000  -0.000   0.000  -0.000   0.000  -0.000  -0.000  -0.000
 -0.000  -0.000  -0.000   0.000   0.000   0.000  -0.000   0.000
  0.000  -0.000  -0.000  -0.000   0.000   0.000  -0.000   0.000
 -0.000  -0.000  -0.000   0.000   0.000   0.000  -2.491  -0.000
 -0.000  -0.000  -0.000   0.000   0.000   0.000  -0.000  -2.491
  0.000  -0.000  -0.000  -0.000   0.000  -0.000  -0.000  -0.000
 -0.000  -0.000  -0.000   0.000   0.000   0.000  -0.000   0.000
  0.000  -0.000  -0.000  -0.000   0.000   0.000  -0.000   0.000
  0.000   0.000   0.000   0.000   0.000   0.000  -0.000   0.000
  0.000   0.000   0.000   0.000   0.000   0.000  -0.000   0.000
 pseudopotential strength for first ion, spin component:           2
-42.873  -0.000   0.000   6.731   0.000  -0.000  -0.000  -0.000
 -0.000 -42.873  -0.000   0.000   6.731   0.000  -0.000  -0.000
  0.000  -0.000 -42.873  -0.000   0.000   6.731  -0.000  -0.000
  6.731   0.000  -0.000   5.868   0.000  -0.000   0.000   0.000
  0.000   6.731   0.000   0.000   5.868   0.000   0.000   0.000
 -0.000   0.000   6.731  -0.000   0.000   5.868   0.000   0.000
 -0.000  -0.000  -0.000   0.000   0.000   0.000  -0.442  -0.000
 -0.000  -0.000  -0.000   0.000   0.000   0.000  -0.000  -0.442
  0.000  -0.000   0.000  -0.000   0.000  -0.000  -0.000  -0.000
 -0.000  -0.000  -0.000   0.000   0.000   0.000  -0.000   0.000
  0.000  -0.000  -0.000  -0.000   0.000   0.000  -0.000   0.000
 -0.000  -0.000  -0.000   0.000   0.000   0.000  -0.983  -0.000
 -0.000  -0.000  -0.000   0.000   0.000   0.000  -0.000  -0.983
  0.000  -0.000   0.000  -0.000   0.000  -0.000  -0.000  -0.000
 -0.000  -0.000  -0.000   0.000   0.000   0.000  -0.000   0.000
  0.000  -0.000  -0.000  -0.000   0.000   0.000  -0.000   0.000
  0.000   0.000   0.000   0.000   0.000   0.000  -0.000   0.000
  0.000   0.000   0.000   0.000   0.000   0.000  -0.000   0.000
 total augmentation occupancy for first ion, spin component:           1
  1.992   0.000   0.000  -0.026   0.000   0.000   0.000   0.000   0.000   0.000   0.000   0.000   0.000   0.000   0.000   0.000
  0.000   1.992   0.000  -0.000  -0.026  -0.000   0.000   0.000   0.000   0.000   0.000   0.000   0.000   0.000   0.000   0.000
  0.000   0.000   1.992  -0.000   0.000  -0.026   0.000   0.000   0.000   0.000  -0.000  -0.000   0.000  -0.000   0.000   0.000
 -0.026   0.000  -0.000   0.201  -0.000   0.000   0.000   0.000   0.000   0.000   0.000   0.000   0.000   0.000   0.000   0.000
  0.000  -0.026   0.000  -0.000   0.201   0.000   0.000   0.000   0.000   0.000   0.000   0.000   0.000   0.000   0.000   0.000
  0.000   0.000  -0.026   0.000  -0.000   0.201   0.000   0.000   0.000   0.000   0.000   0.000   0.000   0.000   0.000   0.000
  0.000   0.000   0.000   0.000   0.000   0.000   2.193   0.000   0.000  -0.000  -0.000  -1.241   0.000  -0.000   0.000   0.000
  0.000   0.000   0.000   0.000   0.000   0.000   0.000   2.193   0.000  -0.000  -0.000  -0.000  -1.241   0.000  -0.000   0.000
  0.000   0.000   0.000   0.000   0.000   0.000   0.000   0.000   3.387   0.000   0.000   0.000   0.000  -2.173   0.000   0.000
  0.000   0.000   0.000   0.000   0.000   0.000  -0.000  -0.000   0.000   2.193  -0.000   0.000   0.000   0.000  -1.241   0.000
  0.000   0.000   0.000   0.000   0.000   0.000   0.000  -0.000   0.000  -0.000   3.387   0.000   0.000   0.000  -0.000  -2.173
  0.000   0.000  -0.000   0.000   0.000   0.000  -1.241  -0.000   0.000  -0.000  -0.000   1.666  -0.000   0.000  -0.000   0.000
  0.000   0.000   0.000   0.000   0.000   0.000  -0.000  -1.241   0.000  -0.000   0.000   0.000   1.666  -0.000   0.000  -0.000
  0.000   0.000  -0.000   0.000   0.000   0.000   0.000   0.000  -2.173   0.000  -0.000  -0.000   0.000   2.219   0.000   0.000
  0.000   0.000   0.000   0.000   0.000   0.000   0.000   0.000   0.000  -1.241   0.000   0.000  -0.000  -0.000   1.666  -0.000
  0.000   0.000   0.000   0.000   0.000   0.000  -0.000   0.000  -0.000   0.000  -2.173  -0.000  -0.000  -0.000  -0.000   2.219
  0.000   0.000   0.000   0.000   0.000   0.000   0.000   0.000  -0.000   0.000  -0.000  -0.000  -0.000   0.000   0.000   0.000
  0.000   0.000   0.000   0.000   0.000   0.000   0.000  -0.000  -0.000  -0.000  -0.000  -0.000   0.000  -0.000   0.000   0.000
 total augmentation occupancy for first ion, spin component:           2
 -0.002   0.000   0.000  -0.009  -0.000   0.000   0.000   0.000   0.000   0.000   0.000   0.000   0.000   0.000   0.000   0.000
  0.000  -0.002   0.000   0.000  -0.009   0.000   0.000   0.000   0.000   0.000   0.000   0.000   0.000   0.000   0.000   0.000
  0.000   0.000  -0.002   0.000  -0.000  -0.009   0.000   0.000   0.000   0.000   0.000  -0.000   0.000   0.000   0.000   0.000
 -0.009  -0.000   0.000  -0.019  -0.000  -0.000   0.000   0.000   0.000   0.000   0.000   0.000   0.000  -0.000   0.000  -0.000
  0.000  -0.009   0.000  -0.000  -0.019   0.000   0.000   0.000   0.000   0.000   0.000   0.000   0.000   0.000   0.000   0.000
 -0.000   0.000  -0.009  -0.000   0.000  -0.019   0.000   0.000  -0.000   0.000   0.000   0.000   0.000   0.000   0.000   0.000
  0.000   0.000   0.000   0.000   0.000   0.000   1.782   0.000   0.000   0.000   0.000  -0.674   0.000   0.000  -0.000  -0.000
  0.000   0.000   0.000   0.000   0.000   0.000   0.000   1.782   0.000  -0.000  -0.000  -0.000  -0.674   0.000   0.000  -0.000
  0.000   0.000   0.000   0.000   0.000   0.000   0.000   0.000   2.799   0.000  -0.000   0.000   0.000  -1.147   0.000  -0.000
  0.000   0.000   0.000   0.000   0.000   0.000   0.000  -0.000   0.000   1.782  -0.000  -0.000  -0.000   0.000  -0.674   0.000
  0.000   0.000   0.000   0.000   0.000   0.000   0.000   0.000   0.000  -0.000   2.799  -0.000   0.000  -0.000   0.000  -1.147
  0.000   0.000  -0.000   0.000   0.000   0.000  -0.674  -0.000   0.000  -0.000  -0.000   0.001  -0.000   0.000  -0.000   0.000
  0.000   0.000   0.000   0.000   0.000   0.000   0.000  -0.674   0.000  -0.000   0.000   0.000   0.001  -0.000  -0.000  -0.000
 -0.000   0.000   0.000   0.000   0.000   0.000   0.000   0.000  -1.147  -0.000   0.000   0.000  -0.000   0.228  -0.000  -0.000
  0.000   0.000   0.000   0.000   0.000   0.000  -0.000  -0.000   0.000  -0.674  -0.000  -0.000  -0.000  -0.000   0.001  -0.000
  0.000   0.000   0.000   0.000   0.000   0.000   0.000  -0.000   0.000   0.000  -1.147   0.000  -0.000   0.000  -0.000   0.228
  0.000   0.000   0.000   0.000   0.000   0.000  -0.000   0.000   0.000   0.000  -0.000  -0.000  -0.000  -0.000   0.000   0.000
  0.000   0.000  -0.000  -0.000   0.000  -0.000   0.000  -0.000  -0.000   0.000   0.000   0.000   0.000   0.000  -0.000   0.000


------------------------ aborting loop because EDIFF is reached ----------------------------------------


 


 total charge     
 
# of ion       s       p       d       tot
------------------------------------------
    1        0.385   6.376   6.078  12.839
    2        0.385   6.376   6.077  12.838
--------------------------------------------------
tot          0.770  12.752  12.155  25.677
 


 magnetization (x)
 
# of ion       s       p       d       tot
------------------------------------------
    1       -0.008  -0.039   2.299   2.252
    2       -0.008  -0.039   2.299   2.252
--------------------------------------------------
tot         -0.016  -0.078   4.599   4.505
 
    CHARGE:  cpu time    0.2512: real time    0.2519
    FORLOC:  cpu time    0.0002: real time    0.0002
    FORNL :  cpu time    1.9769: real time    1.9826
    STRESS:  cpu time    5.9638: real time    5.9790
    FORCOR:  cpu time    0.0099: real time    0.0099
    FORHAR:  cpu time    0.0011: real time    0.0011
    MIXING:  cpu time    0.0006: real time    0.0006
    OFIELD:  cpu time    0.0000: real time    0.0000

  FORCE on cell =-STRESS in cart. coord.  units (eV):
  Direction    XX          YY          ZZ          XY          YZ          ZX
  --------------------------------------------------------------------------------------
  Alpha Z   218.87049   218.87049   218.87049
  Ewald   -1205.52018 -1205.52018 -1205.52018    -0.00000    -0.00000    -0.00000
  Hartree   363.40928   363.40928   363.40928    -0.00000    -0.00000    -0.00000
  E(xc)    -179.80227  -179.80227  -179.80227    -0.00000     0.00000     0.00000
  Local     289.66560   289.66560   289.66560     0.00000    -0.00000    -0.00000
  n-local   -60.34661   -54.15399   -50.47939     2.75872    -1.46668     0.59466
  augment   285.34767   285.34767   285.34767    -0.00000     0.00000    -0.00000
  Kinetic   283.91275   282.59391   281.97181     3.01626    -0.74595     0.04254
  Fock        0.00000     0.00000     0.00000     0.00000     0.00000     0.00000
  -------------------------------------------------------------------------------------
  Total      -0.19659    -0.19659    -0.19659    -0.00000    -0.00000    -0.00000
  in kB     -13.74956   -13.74956   -13.74956    -0.00000    -0.00000    -0.00000
  external pressure =      -13.75 kB  Pullay stress =        0.00 kB


 VOLUME and BASIS-vectors are now :
 -----------------------------------------------------------------------------
  energy-cutoff  :      920.00
  volume of cell :       22.91
      direct lattice vectors                 reciprocal lattice vectors
     2.840052000  0.000000000  0.000000000     0.352106229  0.000000000  0.000000000
     0.000000000  2.840052000  0.000000000     0.000000000  0.352106229  0.000000000
     0.000000000  0.000000000  2.840052000     0.000000000  0.000000000  0.352106229

  length of vectors
     2.840052000  2.840052000  2.840052000     0.352106229  0.352106229  0.352106229


 FORCES acting on ions
    electron-ion (+dipol)            ewald-force                    non-local-force                 convergence-correction
 -----------------------------------------------------------------------------------------------
   -.233E-13 -.228E-13 -.316E-13   -.529E-15 -.103E-14 -.897E-14   -.323E-26 0.000E+00 0.000E+00   -.605E-13 0.630E-14 -.313E-13
   0.866E-12 0.747E-11 0.864E-11   0.472E-14 0.447E-14 0.926E-14   0.000E+00 -.242E-26 0.000E+00   0.960E-14 0.289E-15 -.968E-13
 -----------------------------------------------------------------------------------------------
   0.843E-12 0.744E-11 0.861E-11   0.419E-14 0.343E-14 0.284E-15   -.323E-26 -.242E-26 0.000E+00   -.509E-13 0.659E-14 -.128E-12
 
 
 POSITION                                       TOTAL-FORCE (eV/Angst)
 -----------------------------------------------------------------------------------
      0.00000      0.00000      0.00000        -0.000000     -0.000000     -0.000000
      1.42003      1.42003      1.42003         0.000000      0.000000      0.000000
 -----------------------------------------------------------------------------------
    total drift:                                0.000000      0.000000      0.000000


--------------------------------------------------------------------------------------------------------



  FREE ENERGIE OF THE ION-ELECTRON SYSTEM (eV)
  ---------------------------------------------------
  free  energy   TOTEN  =       -16.51538438 eV

  energy  without entropy=      -16.51538438  energy(sigma->0) =      -16.51538438
 


--------------------------------------------------------------------------------------------------------


    POTLOK:  cpu time    0.0154: real time    0.0155


--------------------------------------------------------------------------------------------------------


     LOOP+:  cpu time  174.8294: real time  175.2868
    4ORBIT:  cpu time    0.0000: real time    0.0000
 


 total charge     
 
# of ion       s       p       d       tot
------------------------------------------
    1        0.385   6.376   6.078  12.839
    2        0.385   6.376   6.077  12.838
--------------------------------------------------
tot          0.770  12.752  12.155  25.677
 


 magnetization (x)
 
# of ion       s       p       d       tot
------------------------------------------
    1       -0.008  -0.039   2.299   2.252
    2       -0.008  -0.039   2.299   2.252
--------------------------------------------------
tot         -0.016  -0.078   4.599   4.505
 
 BZINTS: Fermi energy:  9.638724; 28.000000 electrons
         Band energy:-399.010291;  BLOECHL correction: -0.007217

 total amount of memory used by VASP MPI-rank0    66540. kBytes
=======================================================================

   base      :      30000. kBytes
   nonlr-proj:        945. kBytes
   fftplans  :        478. kBytes
   grid      :       1141. kBytes
   one-center:         31. kBytes
   wavefun   :      33945. kBytes
 
  
  
 General timing and accounting informations for this job:
 ========================================================
  
                  Total CPU time used (sec):      183.012
                            User time (sec):      181.244
                          System time (sec):        1.768
                         Elapsed time (sec):      183.534
  
                   Maximum memory used (kb):      126000.
                   Average memory used (kb):           0.
  
                          Minor page faults:        52601
                          Major page faults:            0
                 Voluntary context switches:          276
