=========================================
SLURM_JOB_ID = 63599683
SLURM_JOB_NODELIST = lnode20
SLURM_GPUS = 
SLURM_CPUS_ON_NODE = 8
SLURM_JOB_PARTITION = lenovo
SLURM_TASK_PID = 3767605
CUDA_VISIBLE_DEVICES = 
==========================================
 running on    8 total cores
 distrk:  each k-point on    8 cores,    1 groups
 distr:  one band on    4 cores,    2 groups
 using from now: INCAR     
 vasp.5.4.4.18Apr17-6-g9f103f2a35 (build Apr 28 2018 00:24:27) complex          
  
 POSCAR found type information on POSCAR  Co
 POSCAR found :  1 types and       2 ions
 scaLAPACK will be used
 LDA part: xc-table for Pade appr. of Perdew
 WARNING: stress and forces are not correct
 POSCAR, INCAR and KPOINTS ok, starting setup
 FFT: planning ...
 WAVECAR not read
 charge-density read from file: unknown                                 
 magnetization density read from file 1
 entering main loop
       N       E                     dE             d eps       ncg     rms          rms(c)
DAV:   1     0.483771203830E+02    0.48377E+02   -0.54501E+03  5810   0.799E+02
DAV:   2    -0.151649640221E+02   -0.63542E+02   -0.57564E+02  5540   0.170E+02
DAV:   3    -0.169783827753E+02   -0.18134E+01   -0.17865E+01  6228   0.348E+01
DAV:   4    -0.170019799868E+02   -0.23597E-01   -0.23590E-01  6754   0.346E+00
DAV:   5    -0.170025274709E+02   -0.54748E-03   -0.54747E-03  6348   0.476E-01
DAV:   6    -0.170025566837E+02   -0.29213E-04   -0.29212E-04  7096   0.850E-02
DAV:   7    -0.170025568885E+02   -0.20476E-06   -0.20527E-06  5030   0.616E-03
   1 F= -.17002557E+02 E0= -.16983470E+02  d E =-.381730E-01  mag=     3.2116
 writing wavefunctions
