       N       E                     dE             d eps       ncg     rms          rms(c)
DAV:   1     0.483771203830E+02    0.48377E+02   -0.54501E+03  5810   0.799E+02
DAV:   2    -0.151649640221E+02   -0.63542E+02   -0.57564E+02  5540   0.170E+02
DAV:   3    -0.169783827753E+02   -0.18134E+01   -0.17865E+01  6228   0.348E+01
DAV:   4    -0.170019799868E+02   -0.23597E-01   -0.23590E-01  6754   0.346E+00
DAV:   5    -0.170025274709E+02   -0.54748E-03   -0.54747E-03  6348   0.476E-01
DAV:   6    -0.170025566837E+02   -0.29213E-04   -0.29212E-04  7096   0.850E-02
DAV:   7    -0.170025568885E+02   -0.20476E-06   -0.20527E-06  5030   0.616E-03
   1 F= -.17002557E+02 E0= -.16983470E+02  d E =-.381730E-01  mag=     3.2116
