=========================================
SLURM_JOB_ID = 30574118
SLURM_JOB_NODELIST = lnode49
SLURM_GPUS = 
SLURM_CPUS_ON_NODE = 8
SLURM_JOB_PARTITION = lenovo
SLURM_TASK_PID = 1154379
CUDA_VISIBLE_DEVICES = 
==========================================
 running on    8 total cores
 distrk:  each k-point on    8 cores,    1 groups
 distr:  one band on    4 cores,    2 groups
 using from now: INCAR     
 vasp.5.4.4.18Apr17-6-g9f103f2a35 (build Apr 28 2018 00:24:27) complex          
  
 POSCAR found type information on POSCAR  Co
 POSCAR found :  1 types and       4 ions
 scaLAPACK will be used
 LDA part: xc-table for Pade appr. of Perdew


 VERY BAD NEWS! internal error in subroutine IBZKPT:
 Reciprocal lattice and k-lattice belong to different class of lattices. Often results are still useful...      48


 VERY BAD NEWS! internal error in subroutine IBZKPT:
 Reciprocal lattice and k-lattice belong to different class of lattices. Often results are still useful...      48


 VERY BAD NEWS! internal error in subroutine IBZKPT:
 Reciprocal lattice and k-lattice belong to different class of lattices. Often results are still useful...      48


 VERY BAD NEWS! internal error in subroutine IBZKPT:
 Reciprocal lattice and k-lattice belong to different class of lattices. Often results are still useful...      48


 VERY BAD NEWS! internal error in subroutine IBZKPT:
 Reciprocal lattice and k-lattice belong to different class of lattices. Often results are still useful...      48



 VERY BAD NEWS! internal error in subroutine IBZKPT:
 Reciprocal lattice and k-lattice belong to different class of lattices. Often results are still useful...      48

 VERY BAD NEWS! internal error in subroutine IBZKPT:
 Reciprocal lattice and k-lattice belong to different class of lattices. Often results are still useful...      48


 VERY BAD NEWS! internal error in subroutine IBZKPT:
 Reciprocal lattice and k-lattice belong to different class of lattices. Often results are still useful...      48
 POSCAR, INCAR and KPOINTS ok, starting setup
 FFT: planning ...
 WAVECAR not read
 entering main loop
       N       E                     dE             d eps       ncg     rms          rms(c)
DAV:   1     0.234480635607E+03    0.23448E+03   -0.16563E+04 23072   0.224E+03
DAV:   2    -0.150060100688E+02   -0.24949E+03   -0.24268E+03 23332   0.395E+02
DAV:   3    -0.312903769510E+02   -0.16284E+02   -0.15418E+02 28728   0.129E+02
DAV:   4    -0.323488825857E+02   -0.10585E+01   -0.10100E+01 29236   0.282E+01
DAV:   5    -0.323798027466E+02   -0.30920E-01   -0.30780E-01 31860   0.428E+00    0.208E+01
DAV:   6    -0.285035397803E+02    0.38763E+01   -0.57953E+01 26492   0.105E+02    0.103E+01
DAV:   7    -0.277095541089E+02    0.79399E+00   -0.70989E+00 25380   0.365E+01    0.506E+00
DAV:   8    -0.276904628575E+02    0.19091E-01   -0.14104E-01 30050   0.449E+00    0.232E+00
DAV:   9    -0.276568369772E+02    0.33626E-01   -0.50734E-02 33506   0.300E+00    0.704E-01
DAV:  10    -0.276562307299E+02    0.60625E-03   -0.86157E-03 26234   0.977E-01    0.130E-01
DAV:  11    -0.276569771731E+02   -0.74644E-03   -0.26617E-03 29656   0.731E-01    0.926E-02
DAV:  12    -0.276569838907E+02   -0.67176E-05   -0.12423E-04 24970   0.138E-01    0.365E-02
DAV:  13    -0.276569924633E+02   -0.85726E-05   -0.39392E-05 34460   0.607E-02    0.171E-02
DAV:  14    -0.276570063308E+02   -0.13867E-04   -0.42774E-06 20738   0.347E-02    0.593E-03
DAV:  15    -0.276570039961E+02    0.23347E-05   -0.15452E-06 12494   0.190E-02    0.139E-03
DAV:  16    -0.276570032175E+02    0.77860E-06   -0.18435E-07 12302   0.345E-03
   1 F= -.27657003E+02 E0= -.27657003E+02  d E =0.000000E+00  mag=     0.0000
