 vasp.5.4.4.18Apr17-6-g9f103f2a35 (build Apr 28 2018 00:24:27) complex          
  
 executed on             LinuxIFC date 2021.03.19  23:54:46
 running on    8 total cores
 distrk:  each k-point on    8 cores,    1 groups
 distr:  one band on NCORES_PER_BAND=   4 cores,    2 groups


--------------------------------------------------------------------------------------------------------


 INCAR:
 POTCAR:    PAW_PBE Co 02Aug2007                  
 POTCAR:    PAW_PBE Co 02Aug2007                  
   SHA256 =  0e690c60710354995174544f52f9f2c30879afabeffe3b3fbd4001cb294e56d4 Co
   COPYR  = (c) Copyright 02Aug2007 Georg Kresse                                
   COPYR  = This file is part of the software VASP. Any use, copying, and all ot
   COPYR  = If you do not have a valid VASP license, you may not use, copy or di
   VRHFIN =Co: d8 s1                                                            
   LEXCH  = PE                                                                  
   EATOM  =   813.3670 eV,   59.7808 Ry                                         
                                                                                
   TITEL  = PAW_PBE Co 02Aug2007                                                
   LULTRA =        F    use ultrasoft PP ?                                      
   IUNSCR =        1    unscreen: 0-lin 1-nonlin 2-no                           
   RPACOR =    2.000    partial core radius                                     
   POMASS =   58.933; ZVAL   =    9.000    mass and valenz                      
   RCORE  =    2.300    outmost cutoff radius                                   
   RWIGS  =    2.460; RWIGS  =    1.302    wigner-seitz radius (au A)           
   ENMAX  =  267.968; ENMIN  =  200.976 eV                                      
   RCLOC  =    1.203    cutoff for local pot                                    
   LCOR   =        T    correct aug charges                                     
   LPAW   =        T    paw PP                                                  
   EAUG   =  477.818                                                            
   DEXC   =    0.000                                                            
   RMAX   =    2.360    core radius for proj-oper                               
   RAUG   =    1.300    factor for augmentation sphere                          
   RDEP   =    2.393    radius for radial grids                                 
   RDEPT  =    1.864    core radius for aug-charge                              
                                                                                
   Atomic configuration                                                         
    9 entries                                                                   
     n  l   j            E        occ.                                          
     1  0  0.50     -7587.6674   2.0000                                         
     2  0  0.50      -893.6084   2.0000                                         
     2  1  1.50      -764.5805   6.0000                                         
     3  0  0.50       -97.5973   2.0000                                         
     3  1  1.50       -60.9648   6.0000                                         
     3  2  2.50        -4.2382   8.0000                                         
     4  0  0.50        -4.3746   1.0000                                         
     4  1  1.50        -4.0817   0.0000                                         
     4  3  2.50        -1.3606   0.0000                                         
   Description                                                                  
     l       E           TYP  RCUT    TYP  RCUT                                 
     2     -4.2382362     23  2.300                                             
     2     -5.5988188     23  2.300                                             
     0     -4.3745797     23  2.300                                             
     0      5.7660125     23  2.300                                             
     1     -2.7211652     23  2.300                                             
     1     16.9860234     23  2.300                                             
  local pseudopotential read in
  partial core-charges read in
  partial kinetic energy density read in
  atomic valenz-charges read in
  non local Contribution for L=           2  read in
    real space projection operators read in
  non local Contribution for L=           2  read in
    real space projection operators read in
  non local Contribution for L=           0  read in
    real space projection operators read in
  non local Contribution for L=           0  read in
    real space projection operators read in
  non local Contribution for L=           1  read in
    real space projection operators read in
  non local Contribution for L=           1  read in
    real space projection operators read in
    PAW grid and wavefunctions read in
 
   number of l-projection  operators is LMAX  =           6
   number of lm-projection operators is LMMAX =          18
 
  PAW_PBE Co 02Aug2007                  :
 energy of atom  1       EATOM= -813.3670
 kinetic energy error for atom=    0.0028 (will be added to EATOM!!)
 
 
 POSCAR: Co2 str #: 2                            
  positions in direct lattice
  No initial velocities read in
 exchange correlation table for  LEXCH =        8
   RHO(1)=    0.500       N(1)  =     2000
   RHO(2)=  100.500       N(2)  =     4000
 


--------------------------------------------------------------------------------------------------------


 ion  position               nearest neighbor table
   1  0.667  0.375  0.667-   2 2.47   2 2.47   4 2.47   4 2.47   2 2.47   4 2.47
   2  0.333  0.125  0.333-   1 2.47   1 2.47   3 2.47   3 2.47   1 2.47   3 2.47
   3  0.667  0.875  0.667-   4 2.47   4 2.47   2 2.47   2 2.47   4 2.47   2 2.47
   4  0.333  0.625  0.333-   3 2.47   3 2.47   1 2.47   1 2.47   3 2.47   1 2.47
 
  LATTYP: Found a hexagonal cell.
 ALAT       =     2.4918167332
 C/A-ratio  =     3.2230281999
  
  Lattice vectors:
  
 A1 = (   1.2459087000,   2.1579764000,   0.0000000000)
 A2 = (   1.2459083000,  -2.1579764000,   0.0000000000)
 A3 = (   0.0000000000,   0.0000000000,  -8.0311956000)


Analysis of symmetry for initial positions (statically):
=====================================================================
 Subroutine PRICEL returns following result:
 
  LATTYP: Found a hexagonal cell.
 ALAT       =     2.4918167332
 C/A-ratio  =     1.6115141000
  
  Lattice vectors:
  
 A1 = (   1.2459087000,   2.1579764000,   0.0000000000)
 A2 = (   1.2459083000,  -2.1579764000,   0.0000000000)
 A3 = (   0.0000000000,   0.0000000000,  -4.0155978000)
 
   2 primitive cells build up your supercell.
 

 Routine SETGRP: Setting up the symmetry group for a 
 hexagonal supercell.


 Subroutine GETGRP returns: Found 24 space group operations
 (whereof 12 operations were pure point group operations)
 out of a pool of 24 trial point group operations.


The static configuration has the point symmetry D_3d.
 The point group associated with its full space group is D_6h.


Analysis of symmetry for dynamics (positions and initial velocities):
=====================================================================
 Subroutine PRICEL returns following result:
 
  LATTYP: Found a hexagonal cell.
 ALAT       =     2.4918167332
 C/A-ratio  =     1.6115141000
  
  Lattice vectors:
  
 A1 = (   1.2459087000,   2.1579764000,   0.0000000000)
 A2 = (   1.2459083000,  -2.1579764000,   0.0000000000)
 A3 = (   0.0000000000,   0.0000000000,  -4.0155978000)
 
   2 primitive cells build up your supercell.
 

 Routine SETGRP: Setting up the symmetry group for a 
 hexagonal supercell.


 Subroutine GETGRP returns: Found 24 space group operations
 (whereof 12 operations were pure point group operations)
 out of a pool of 24 trial point group operations.


The dynamic configuration has the point symmetry D_3d.
 The point group associated with its full space group is D_6h.


Analysis of structural, dynamic, and magnetic symmetry:
=====================================================================
 Subroutine PRICEL returns following result:
 
  LATTYP: Found a hexagonal cell.
 ALAT       =     2.4918167332
 C/A-ratio  =     1.6115141000
  
  Lattice vectors:
  
 A1 = (   1.2459087000,   2.1579764000,   0.0000000000)
 A2 = (   1.2459083000,  -2.1579764000,   0.0000000000)
 A3 = (   0.0000000000,   0.0000000000,  -4.0155978000)
 
   2 primitive cells build up your supercell.
 

 Routine SETGRP: Setting up the symmetry group for a 
 hexagonal supercell.


 Subroutine GETGRP returns: Found 12 space group operations
 (whereof 12 operations were pure point group operations)
 out of a pool of 24 trial point group operations.


The magnetic configuration has the point symmetry D_3d.


 Subroutine INISYM returns: Found 12 space group operations
 (whereof 12 operations are pure point group operations),
 and found     2 'primitive' translations

 
 
 KPOINTS: pymatgen v2021.2.8.1 with grid density =

Automatic generation of k-mesh.
Space group operators:
 irot       det(A)        alpha          n_x          n_y          n_z        tau_x        tau_y        tau_z
    1     1.000000     0.000000     1.000000     0.000000     0.000000     0.000000     0.000000     0.000000
    2    -1.000000     0.000000     1.000000     0.000000     0.000000     0.000000     0.000000     0.000000
    3     1.000000   120.000000     0.000000     0.000000     1.000000     0.000000     0.000000     0.000000
    4    -1.000000   120.000000     0.000000     0.000000     1.000000     0.000000     0.000000     0.000000
    5     1.000000   120.000000     0.000000     0.000000    -1.000000     0.000000     0.000000     0.000000
    6    -1.000000   120.000000     0.000000     0.000000    -1.000000     0.000000     0.000000     0.000000
    7     1.000000   179.999999    -0.500000    -0.866025     0.000000     0.000000     0.000000     0.000000
    8    -1.000000   179.999999    -0.500000    -0.866025     0.000000     0.000000     0.000000     0.000000
    9     1.000000   180.000000     0.500000    -0.866025     0.000000     0.000000     0.000000     0.000000
   10    -1.000000   180.000000     0.500000    -0.866025     0.000000     0.000000     0.000000     0.000000
   11     1.000000   180.000000     1.000000    -0.000000     0.000000     0.000000     0.000000     0.000000
   12    -1.000000   180.000000     1.000000    -0.000000     0.000000     0.000000     0.000000     0.000000
 
 Subroutine IBZKPT returns following result:
 ===========================================
 
 Found    262 irreducible k-points:
 
 Following reciprocal coordinates:
            Coordinates               Weight
  0.000000  0.000000  0.000000      1.000000
  0.100000  0.000000 -0.000000      2.000000
  0.200000  0.000000  0.000000      2.000000
  0.300000  0.000000  0.000000      2.000000
  0.400000  0.000000  0.000000      2.000000
  0.500000  0.000000  0.000000      3.000000
  0.000000  0.100000  0.000000      2.000000
  0.100000  0.100000 -0.000000      2.000000
  0.200000  0.100000  0.000000      2.000000
  0.300000  0.100000  0.000000      2.000000
  0.400000  0.100000  0.000000      2.000000
  0.500000  0.100000  0.000000      6.000000
 -0.400000  0.100000 -0.000000      2.000000
 -0.300000  0.100000 -0.000000      2.000000
 -0.200000  0.100000 -0.000000      2.000000
 -0.100000  0.100000  0.000000      2.000000
  0.000000  0.200000  0.000000      2.000000
  0.100000  0.200000 -0.000000      2.000000
  0.200000  0.200000  0.000000      2.000000
  0.300000  0.200000  0.000000      2.000000
  0.400000  0.200000  0.000000      2.000000
  0.500000  0.200000  0.000000      6.000000
 -0.400000  0.200000 -0.000000      2.000000
 -0.300000  0.200000 -0.000000      2.000000
 -0.200000  0.200000 -0.000000      2.000000
 -0.100000  0.200000  0.000000      2.000000
  0.000000  0.300000  0.000000      2.000000
  0.100000  0.300000 -0.000000      2.000000
  0.200000  0.300000  0.000000      2.000000
  0.300000  0.300000  0.000000      2.000000
  0.400000  0.300000  0.000000      2.000000
  0.500000  0.300000  0.000000      6.000000
 -0.400000  0.300000 -0.000000      2.000000
 -0.300000  0.300000 -0.000000      2.000000
 -0.200000  0.300000 -0.000000      2.000000
 -0.100000  0.300000  0.000000      2.000000
  0.000000  0.400000  0.000000      2.000000
  0.100000  0.400000 -0.000000      2.000000
  0.200000  0.400000  0.000000      2.000000
  0.300000  0.400000  0.000000      2.000000
  0.400000  0.400000  0.000000      2.000000
  0.500000  0.400000  0.000000      6.000000
 -0.400000  0.400000 -0.000000      2.000000
 -0.300000  0.400000 -0.000000      2.000000
 -0.200000  0.400000 -0.000000      2.000000
 -0.100000  0.400000  0.000000      2.000000
  0.000000  0.500000  0.000000      1.000000
  0.100000  0.500000 -0.000000      2.000000
  0.200000  0.500000  0.000000      2.000000
  0.300000  0.500000  0.000000      2.000000
  0.400000  0.500000  0.000000      2.000000
  0.500000  0.500000  0.000000      3.000000
  0.000000  0.000000  0.166667      2.000000
  0.100000  0.000000  0.166667      2.000000
  0.200000  0.000000  0.166667      2.000000
  0.300000  0.000000  0.166667      2.000000
  0.400000  0.000000  0.166667      2.000000
  0.500000  0.000000  0.166667      4.000000
 -0.400000  0.000000  0.166667      2.000000
 -0.300000  0.000000  0.166667      2.000000
 -0.200000  0.000000  0.166667      2.000000
 -0.100000  0.000000  0.166667      2.000000
  0.000000  0.100000  0.166667      2.000000
  0.100000  0.100000  0.166667      2.000000
  0.200000  0.100000  0.166667      2.000000
  0.300000  0.100000  0.166667      2.000000
  0.400000  0.100000  0.166667      2.000000
  0.500000  0.100000  0.166667      4.000000
 -0.400000  0.100000  0.166667      2.000000
 -0.300000  0.100000  0.166667      2.000000
 -0.200000  0.100000  0.166667      2.000000
 -0.100000  0.100000  0.166667      2.000000
  0.000000  0.200000  0.166667      2.000000
  0.100000  0.200000  0.166667      2.000000
  0.200000  0.200000  0.166667      2.000000
  0.300000  0.200000  0.166667      2.000000
  0.400000  0.200000  0.166667      2.000000
  0.500000  0.200000  0.166667      4.000000
 -0.400000  0.200000  0.166667      2.000000
 -0.300000  0.200000  0.166667      2.000000
 -0.200000  0.200000  0.166667      2.000000
 -0.100000  0.200000  0.166667      2.000000
  0.000000  0.300000  0.166667      2.000000
  0.100000  0.300000  0.166667      2.000000
  0.200000  0.300000  0.166667      2.000000
  0.300000  0.300000  0.166667      2.000000
  0.400000  0.300000  0.166667      2.000000
  0.500000  0.300000  0.166667      4.000000
 -0.400000  0.300000  0.166667      2.000000
 -0.300000  0.300000  0.166667      2.000000
 -0.200000  0.300000  0.166667      2.000000
 -0.100000  0.300000  0.166667      2.000000
  0.000000  0.400000  0.166667      2.000000
  0.100000  0.400000  0.166667      2.000000
  0.200000  0.400000  0.166667      2.000000
  0.300000  0.400000  0.166667      2.000000
  0.400000  0.400000  0.166667      2.000000
  0.500000  0.400000  0.166667      4.000000
 -0.400000  0.400000  0.166667      2.000000
 -0.300000  0.400000  0.166667      2.000000
 -0.200000  0.400000  0.166667      2.000000
 -0.100000  0.400000  0.166667      2.000000
  0.000000  0.500000  0.166667      2.000000
  0.100000  0.500000  0.166667      2.000000
  0.200000  0.500000  0.166667      2.000000
  0.300000  0.500000  0.166667      2.000000
  0.400000  0.500000  0.166667      2.000000
  0.500000  0.500000  0.166667      4.000000
 -0.400000  0.500000  0.166667      2.000000
 -0.300000  0.500000  0.166667      2.000000
 -0.200000  0.500000  0.166667      2.000000
 -0.100000  0.500000  0.166667      2.000000
  0.000000 -0.400000  0.166667      2.000000
  0.100000 -0.400000  0.166667      2.000000
  0.200000 -0.400000  0.166667      2.000000
  0.300000 -0.400000  0.166667      2.000000
  0.400000 -0.400000  0.166667      2.000000
  0.500000 -0.400000  0.166667      4.000000
 -0.400000 -0.400000  0.166667      2.000000
 -0.300000 -0.400000  0.166667      2.000000
 -0.200000 -0.400000  0.166667      2.000000
 -0.100000 -0.400000  0.166667      2.000000
  0.000000 -0.300000  0.166667      2.000000
  0.100000 -0.300000  0.166667      2.000000
  0.200000 -0.300000  0.166667      2.000000
  0.300000 -0.300000  0.166667      2.000000
  0.400000 -0.300000  0.166667      2.000000
  0.500000 -0.300000  0.166667      4.000000
 -0.400000 -0.300000  0.166667      2.000000
 -0.300000 -0.300000  0.166667      2.000000
 -0.200000 -0.300000  0.166667      2.000000
 -0.100000 -0.300000  0.166667      2.000000
  0.000000 -0.200000  0.166667      2.000000
  0.100000 -0.200000  0.166667      2.000000
  0.200000 -0.200000  0.166667      2.000000
  0.300000 -0.200000  0.166667      2.000000
  0.400000 -0.200000  0.166667      2.000000
  0.500000 -0.200000  0.166667      4.000000
 -0.400000 -0.200000  0.166667      2.000000
 -0.300000 -0.200000  0.166667      2.000000
 -0.200000 -0.200000  0.166667      2.000000
 -0.100000 -0.200000  0.166667      2.000000
  0.000000 -0.100000  0.166667      2.000000
  0.100000 -0.100000  0.166667      2.000000
  0.200000 -0.100000  0.166667      2.000000
  0.300000 -0.100000  0.166667      2.000000
  0.400000 -0.100000  0.166667      2.000000
  0.500000 -0.100000  0.166667      4.000000
 -0.400000 -0.100000  0.166667      2.000000
 -0.300000 -0.100000  0.166667      2.000000
 -0.200000 -0.100000  0.166667      2.000000
 -0.100000 -0.100000  0.166667      2.000000
  0.000000  0.000000  0.333333      2.000000
  0.100000  0.000000  0.333333      2.000000
  0.200000  0.000000  0.333333      2.000000
  0.300000  0.000000  0.333333      2.000000
  0.400000  0.000000  0.333333      2.000000
 -0.400000  0.000000  0.333333      2.000000
 -0.300000  0.000000  0.333333      2.000000
 -0.200000  0.000000  0.333333      2.000000
 -0.100000  0.000000  0.333333      2.000000
  0.000000  0.100000  0.333333      2.000000
  0.100000  0.100000  0.333333      2.000000
  0.200000  0.100000  0.333333      2.000000
  0.300000  0.100000  0.333333      2.000000
  0.400000  0.100000  0.333333      2.000000
 -0.400000  0.100000  0.333333      2.000000
 -0.300000  0.100000  0.333333      2.000000
 -0.200000  0.100000  0.333333      2.000000
 -0.100000  0.100000  0.333333      2.000000
  0.000000  0.200000  0.333333      2.000000
  0.100000  0.200000  0.333333      2.000000
  0.200000  0.200000  0.333333      2.000000
  0.300000  0.200000  0.333333      2.000000
  0.400000  0.200000  0.333333      2.000000
 -0.400000  0.200000  0.333333      2.000000
 -0.300000  0.200000  0.333333      2.000000
 -0.200000  0.200000  0.333333      2.000000
 -0.100000  0.200000  0.333333      2.000000
  0.000000  0.300000  0.333333      2.000000
  0.100000  0.300000  0.333333      2.000000
  0.200000  0.300000  0.333333      2.000000
  0.300000  0.300000  0.333333      2.000000
  0.400000  0.300000  0.333333      2.000000
 -0.400000  0.300000  0.333333      2.000000
 -0.300000  0.300000  0.333333      2.000000
 -0.200000  0.300000  0.333333      2.000000
 -0.100000  0.300000  0.333333      2.000000
  0.000000  0.400000  0.333333      2.000000
  0.100000  0.400000  0.333333      2.000000
  0.200000  0.400000  0.333333      2.000000
  0.300000  0.400000  0.333333      2.000000
  0.400000  0.400000  0.333333      2.000000
 -0.400000  0.400000  0.333333      2.000000
 -0.300000  0.400000  0.333333      2.000000
 -0.200000  0.400000  0.333333      2.000000
 -0.100000  0.400000  0.333333      2.000000
  0.000000  0.500000  0.333333      2.000000
  0.100000  0.500000  0.333333      2.000000
  0.200000  0.500000  0.333333      2.000000
  0.300000  0.500000  0.333333      2.000000
  0.400000  0.500000  0.333333      2.000000
 -0.400000  0.500000  0.333333      2.000000
 -0.300000  0.500000  0.333333      2.000000
 -0.200000  0.500000  0.333333      2.000000
 -0.100000  0.500000  0.333333      2.000000
  0.000000 -0.400000  0.333333      2.000000
  0.100000 -0.400000  0.333333      2.000000
  0.200000 -0.400000  0.333333      2.000000
  0.300000 -0.400000  0.333333      2.000000
  0.400000 -0.400000  0.333333      2.000000
 -0.400000 -0.400000  0.333333      2.000000
 -0.300000 -0.400000  0.333333      2.000000
 -0.200000 -0.400000  0.333333      2.000000
 -0.100000 -0.400000  0.333333      2.000000
  0.000000 -0.300000  0.333333      2.000000
  0.100000 -0.300000  0.333333      2.000000
  0.200000 -0.300000  0.333333      2.000000
  0.300000 -0.300000  0.333333      2.000000
  0.400000 -0.300000  0.333333      2.000000
 -0.400000 -0.300000  0.333333      2.000000
 -0.300000 -0.300000  0.333333      2.000000
 -0.200000 -0.300000  0.333333      2.000000
 -0.100000 -0.300000  0.333333      2.000000
  0.000000 -0.200000  0.333333      2.000000
  0.100000 -0.200000  0.333333      2.000000
  0.200000 -0.200000  0.333333      2.000000
  0.300000 -0.200000  0.333333      2.000000
  0.400000 -0.200000  0.333333      2.000000
 -0.400000 -0.200000  0.333333      2.000000
 -0.300000 -0.200000  0.333333      2.000000
 -0.200000 -0.200000  0.333333      2.000000
 -0.100000 -0.200000  0.333333      2.000000
  0.000000 -0.100000  0.333333      2.000000
  0.100000 -0.100000  0.333333      2.000000
  0.200000 -0.100000  0.333333      2.000000
  0.300000 -0.100000  0.333333      2.000000
  0.400000 -0.100000  0.333333      2.000000
 -0.400000 -0.100000  0.333333      2.000000
 -0.300000 -0.100000  0.333333      2.000000
 -0.200000 -0.100000  0.333333      2.000000
 -0.100000 -0.100000  0.333333      2.000000
  0.100000  0.000000  0.500000      4.000000
  0.200000  0.000000  0.500000      4.000000
  0.100000  0.100000  0.500000      4.000000
  0.200000  0.100000  0.500000      4.000000
  0.300000  0.100000  0.500000      4.000000
  0.400000  0.100000  0.500000      4.000000
  0.100000  0.200000  0.500000      4.000000
  0.200000  0.200000  0.500000      4.000000
  0.300000  0.200000  0.500000      4.000000
  0.400000  0.200000  0.500000      4.000000
  0.100000  0.300000  0.500000      4.000000
  0.200000  0.300000  0.500000      4.000000
  0.300000  0.300000  0.500000      4.000000
  0.400000  0.300000  0.500000      4.000000
  0.100000  0.400000  0.500000      4.000000
  0.200000  0.400000  0.500000      4.000000
  0.300000  0.400000  0.500000      4.000000
  0.400000  0.400000  0.500000      4.000000
  0.100000  0.500000  0.500000      4.000000
  0.200000  0.500000  0.500000      4.000000
 
 Following cartesian coordinates:
            Coordinates               Weight
  0.000000  0.000000  0.000000      1.000000
 -0.040131  0.023170  0.000000      2.000000
 -0.080263  0.046340  0.000000      2.000000
 -0.120394  0.069510  0.000000      2.000000
 -0.160525  0.092679  0.000000      2.000000
 -0.200657  0.115849  0.000000      3.000000
  0.000000  0.000000  0.012451      2.000000
 -0.040131  0.023170  0.012451      2.000000
 -0.080263  0.046340  0.012451      2.000000
 -0.120394  0.069510  0.012451      2.000000
 -0.160525  0.092679  0.012451      2.000000
 -0.200657  0.115849  0.012451      6.000000
  0.160525 -0.092679  0.012451      2.000000
  0.120394 -0.069510  0.012451      2.000000
  0.080263 -0.046340  0.012451      2.000000
  0.040131 -0.023170  0.012451      2.000000
  0.000000  0.000000  0.024903      2.000000
 -0.040131  0.023170  0.024903      2.000000
 -0.080263  0.046340  0.024903      2.000000
 -0.120394  0.069510  0.024903      2.000000
 -0.160525  0.092679  0.024903      2.000000
 -0.200657  0.115849  0.024903      6.000000
  0.160525 -0.092679  0.024903      2.000000
  0.120394 -0.069510  0.024903      2.000000
  0.080263 -0.046340  0.024903      2.000000
  0.040131 -0.023170  0.024903      2.000000
  0.000000  0.000000  0.037354      2.000000
 -0.040131  0.023170  0.037354      2.000000
 -0.080263  0.046340  0.037354      2.000000
 -0.120394  0.069510  0.037354      2.000000
 -0.160525  0.092679  0.037354      2.000000
 -0.200657  0.115849  0.037354      6.000000
  0.160525 -0.092679  0.037354      2.000000
  0.120394 -0.069510  0.037354      2.000000
  0.080263 -0.046340  0.037354      2.000000
  0.040131 -0.023170  0.037354      2.000000
  0.000000  0.000000  0.049806      2.000000
 -0.040131  0.023170  0.049806      2.000000
 -0.080263  0.046340  0.049806      2.000000
 -0.120394  0.069510  0.049806      2.000000
 -0.160525  0.092679  0.049806      2.000000
 -0.200657  0.115849  0.049806      6.000000
  0.160525 -0.092679  0.049806      2.000000
  0.120394 -0.069510  0.049806      2.000000
  0.080263 -0.046340  0.049806      2.000000
  0.040131 -0.023170  0.049806      2.000000
  0.000000  0.000000  0.062257      1.000000
 -0.040131  0.023170  0.062257      2.000000
 -0.080263  0.046340  0.062257      2.000000
 -0.120394  0.069510  0.062257      2.000000
 -0.160525  0.092679  0.062257      2.000000
 -0.200657  0.115849  0.062257      3.000000
  0.066886  0.038616  0.000000      2.000000
  0.026754  0.061786  0.000000      2.000000
 -0.013377  0.084956  0.000000      2.000000
 -0.053508  0.108126  0.000000      2.000000
 -0.093640  0.131296  0.000000      2.000000
 -0.133771  0.154466  0.000000      4.000000
  0.227411 -0.054063  0.000000      2.000000
  0.187280 -0.030893  0.000000      2.000000
  0.147148 -0.007723  0.000000      2.000000
  0.107017  0.015447  0.000000      2.000000
  0.066886  0.038616  0.012451      2.000000
  0.026754  0.061786  0.012451      2.000000
 -0.013377  0.084956  0.012451      2.000000
 -0.053508  0.108126  0.012451      2.000000
 -0.093640  0.131296  0.012451      2.000000
 -0.133771  0.154466  0.012451      4.000000
  0.227411 -0.054063  0.012451      2.000000
  0.187280 -0.030893  0.012451      2.000000
  0.147148 -0.007723  0.012451      2.000000
  0.107017  0.015447  0.012451      2.000000
  0.066886  0.038616  0.024903      2.000000
  0.026754  0.061786  0.024903      2.000000
 -0.013377  0.084956  0.024903      2.000000
 -0.053508  0.108126  0.024903      2.000000
 -0.093640  0.131296  0.024903      2.000000
 -0.133771  0.154466  0.024903      4.000000
  0.227411 -0.054063  0.024903      2.000000
  0.187280 -0.030893  0.024903      2.000000
  0.147148 -0.007723  0.024903      2.000000
  0.107017  0.015447  0.024903      2.000000
  0.066886  0.038616  0.037354      2.000000
  0.026754  0.061786  0.037354      2.000000
 -0.013377  0.084956  0.037354      2.000000
 -0.053508  0.108126  0.037354      2.000000
 -0.093640  0.131296  0.037354      2.000000
 -0.133771  0.154466  0.037354      4.000000
  0.227411 -0.054063  0.037354      2.000000
  0.187280 -0.030893  0.037354      2.000000
  0.147148 -0.007723  0.037354      2.000000
  0.107017  0.015447  0.037354      2.000000
  0.066886  0.038616  0.049806      2.000000
  0.026754  0.061786  0.049806      2.000000
 -0.013377  0.084956  0.049806      2.000000
 -0.053508  0.108126  0.049806      2.000000
 -0.093640  0.131296  0.049806      2.000000
 -0.133771  0.154466  0.049806      4.000000
  0.227411 -0.054063  0.049806      2.000000
  0.187280 -0.030893  0.049806      2.000000
  0.147148 -0.007723  0.049806      2.000000
  0.107017  0.015447  0.049806      2.000000
  0.066886  0.038616  0.062257      2.000000
  0.026754  0.061786  0.062257      2.000000
 -0.013377  0.084956  0.062257      2.000000
 -0.053508  0.108126  0.062257      2.000000
 -0.093640  0.131296  0.062257      2.000000
 -0.133771  0.154466  0.062257      4.000000
  0.227411 -0.054063  0.062257      2.000000
  0.187280 -0.030893  0.062257      2.000000
  0.147148 -0.007723  0.062257      2.000000
  0.107017  0.015447  0.062257      2.000000
  0.066886  0.038616 -0.049806      2.000000
  0.026754  0.061786 -0.049806      2.000000
 -0.013377  0.084956 -0.049806      2.000000
 -0.053508  0.108126 -0.049806      2.000000
 -0.093640  0.131296 -0.049806      2.000000
 -0.133771  0.154466 -0.049806      4.000000
  0.227411 -0.054063 -0.049806      2.000000
  0.187280 -0.030893 -0.049806      2.000000
  0.147148 -0.007723 -0.049806      2.000000
  0.107017  0.015447 -0.049806      2.000000
  0.066886  0.038616 -0.037354      2.000000
  0.026754  0.061786 -0.037354      2.000000
 -0.013377  0.084956 -0.037354      2.000000
 -0.053508  0.108126 -0.037354      2.000000
 -0.093640  0.131296 -0.037354      2.000000
 -0.133771  0.154466 -0.037354      4.000000
  0.227411 -0.054063 -0.037354      2.000000
  0.187280 -0.030893 -0.037354      2.000000
  0.147148 -0.007723 -0.037354      2.000000
  0.107017  0.015447 -0.037354      2.000000
  0.066886  0.038616 -0.024903      2.000000
  0.026754  0.061786 -0.024903      2.000000
 -0.013377  0.084956 -0.024903      2.000000
 -0.053508  0.108126 -0.024903      2.000000
 -0.093640  0.131296 -0.024903      2.000000
 -0.133771  0.154466 -0.024903      4.000000
  0.227411 -0.054063 -0.024903      2.000000
  0.187280 -0.030893 -0.024903      2.000000
  0.147148 -0.007723 -0.024903      2.000000
  0.107017  0.015447 -0.024903      2.000000
  0.066886  0.038616 -0.012451      2.000000
  0.026754  0.061786 -0.012451      2.000000
 -0.013377  0.084956 -0.012451      2.000000
 -0.053508  0.108126 -0.012451      2.000000
 -0.093640  0.131296 -0.012451      2.000000
 -0.133771  0.154466 -0.012451      4.000000
  0.227411 -0.054063 -0.012451      2.000000
  0.187280 -0.030893 -0.012451      2.000000
  0.147148 -0.007723 -0.012451      2.000000
  0.107017  0.015447 -0.012451      2.000000
  0.133771  0.077233  0.000000      2.000000
  0.093640  0.100403  0.000000      2.000000
  0.053508  0.123573  0.000000      2.000000
  0.013377  0.146742  0.000000      2.000000
 -0.026754  0.169912  0.000000      2.000000
  0.294297 -0.015447  0.000000      2.000000
  0.254165  0.007723  0.000000      2.000000
  0.214034  0.030893  0.000000      2.000000
  0.173903  0.054063  0.000000      2.000000
  0.133771  0.077233  0.012451      2.000000
  0.093640  0.100403  0.012451      2.000000
  0.053508  0.123573  0.012451      2.000000
  0.013377  0.146742  0.012451      2.000000
 -0.026754  0.169912  0.012451      2.000000
  0.294297 -0.015447  0.012451      2.000000
  0.254165  0.007723  0.012451      2.000000
  0.214034  0.030893  0.012451      2.000000
  0.173903  0.054063  0.012451      2.000000
  0.133771  0.077233  0.024903      2.000000
  0.093640  0.100403  0.024903      2.000000
  0.053508  0.123573  0.024903      2.000000
  0.013377  0.146742  0.024903      2.000000
 -0.026754  0.169912  0.024903      2.000000
  0.294297 -0.015447  0.024903      2.000000
  0.254165  0.007723  0.024903      2.000000
  0.214034  0.030893  0.024903      2.000000
  0.173903  0.054063  0.024903      2.000000
  0.133771  0.077233  0.037354      2.000000
  0.093640  0.100403  0.037354      2.000000
  0.053508  0.123573  0.037354      2.000000
  0.013377  0.146742  0.037354      2.000000
 -0.026754  0.169912  0.037354      2.000000
  0.294297 -0.015447  0.037354      2.000000
  0.254165  0.007723  0.037354      2.000000
  0.214034  0.030893  0.037354      2.000000
  0.173903  0.054063  0.037354      2.000000
  0.133771  0.077233  0.049806      2.000000
  0.093640  0.100403  0.049806      2.000000
  0.053508  0.123573  0.049806      2.000000
  0.013377  0.146742  0.049806      2.000000
 -0.026754  0.169912  0.049806      2.000000
  0.294297 -0.015447  0.049806      2.000000
  0.254165  0.007723  0.049806      2.000000
  0.214034  0.030893  0.049806      2.000000
  0.173903  0.054063  0.049806      2.000000
  0.133771  0.077233  0.062257      2.000000
  0.093640  0.100403  0.062257      2.000000
  0.053508  0.123573  0.062257      2.000000
  0.013377  0.146742  0.062257      2.000000
 -0.026754  0.169912  0.062257      2.000000
  0.294297 -0.015447  0.062257      2.000000
  0.254165  0.007723  0.062257      2.000000
  0.214034  0.030893  0.062257      2.000000
  0.173903  0.054063  0.062257      2.000000
  0.133771  0.077233 -0.049806      2.000000
  0.093640  0.100403 -0.049806      2.000000
  0.053508  0.123573 -0.049806      2.000000
  0.013377  0.146742 -0.049806      2.000000
 -0.026754  0.169912 -0.049806      2.000000
  0.294297 -0.015447 -0.049806      2.000000
  0.254165  0.007723 -0.049806      2.000000
  0.214034  0.030893 -0.049806      2.000000
  0.173903  0.054063 -0.049806      2.000000
  0.133771  0.077233 -0.037354      2.000000
  0.093640  0.100403 -0.037354      2.000000
  0.053508  0.123573 -0.037354      2.000000
  0.013377  0.146742 -0.037354      2.000000
 -0.026754  0.169912 -0.037354      2.000000
  0.294297 -0.015447 -0.037354      2.000000
  0.254165  0.007723 -0.037354      2.000000
  0.214034  0.030893 -0.037354      2.000000
  0.173903  0.054063 -0.037354      2.000000
  0.133771  0.077233 -0.024903      2.000000
  0.093640  0.100403 -0.024903      2.000000
  0.053508  0.123573 -0.024903      2.000000
  0.013377  0.146742 -0.024903      2.000000
 -0.026754  0.169912 -0.024903      2.000000
  0.294297 -0.015447 -0.024903      2.000000
  0.254165  0.007723 -0.024903      2.000000
  0.214034  0.030893 -0.024903      2.000000
  0.173903  0.054063 -0.024903      2.000000
  0.133771  0.077233 -0.012451      2.000000
  0.093640  0.100403 -0.012451      2.000000
  0.053508  0.123573 -0.012451      2.000000
  0.013377  0.146742 -0.012451      2.000000
 -0.026754  0.169912 -0.012451      2.000000
  0.294297 -0.015447 -0.012451      2.000000
  0.254165  0.007723 -0.012451      2.000000
  0.214034  0.030893 -0.012451      2.000000
  0.173903  0.054063 -0.012451      2.000000
  0.160525  0.139019  0.000000      4.000000
  0.120394  0.162189  0.000000      4.000000
  0.160525  0.139019  0.012451      4.000000
  0.120394  0.162189  0.012451      4.000000
  0.080263  0.185359  0.012451      4.000000
  0.040131  0.208529  0.012451      4.000000
  0.160525  0.139019  0.024903      4.000000
  0.120394  0.162189  0.024903      4.000000
  0.080263  0.185359  0.024903      4.000000
  0.040131  0.208529  0.024903      4.000000
  0.160525  0.139019  0.037354      4.000000
  0.120394  0.162189  0.037354      4.000000
  0.080263  0.185359  0.037354      4.000000
  0.040131  0.208529  0.037354      4.000000
  0.160525  0.139019  0.049806      4.000000
  0.120394  0.162189  0.049806      4.000000
  0.080263  0.185359  0.049806      4.000000
  0.040131  0.208529  0.049806      4.000000
  0.160525  0.139019  0.062257      4.000000
  0.120394  0.162189  0.062257      4.000000
 
 TETIRR: Found   1800 inequivalent tetrahedra from     3600


--------------------------------------------------------------------------------------------------------




 Dimension of arrays:
   k-points           NKPTS =    262   k-points in BZ     NKDIM =    262   number of bands    NBANDS=     22
   number of dos      NEDOS =    301   number of ions     NIONS =      4
   non local maximal  LDIM  =      6   non local SUM 2l+1 LMDIM =     18
   total plane-waves  NPLWV =   9408
   max r-space proj   IRMAX =      1   max aug-charges    IRDMAX=   8790
   dimension x,y,z NGX =    14 NGY =   48 NGZ =   14
   dimension x,y,z NGXF=    28 NGYF=   96 NGZF=   28
   support grid    NGXF=    28 NGYF=   96 NGZF=   28
   ions per type =               4
   NGX,Y,Z   is equivalent  to a cutoff of   9.34,  9.94,  9.34 a.u.
   NGXF,Y,Z  is equivalent  to a cutoff of  18.68, 19.87, 18.68 a.u.

 SYSTEM =  "Co_hcp"                                
 POSCAR =  Co2 str #: 2                            

 Startparameter for this run:
   NWRITE =      2    write-flag & timer
   PREC   = normal    normal or accurate (medium, high low for compatibility)
   ISTART =      0    job   : 0-new  1-cont  2-samecut
   ICHARG =      2    charge: 1-file 2-atom 10-const
   ISPIN  =      2    spin polarized calculation?
   LNONCOLLINEAR =      F non collinear calculations
   LSORBIT =      F    spin-orbit coupling
   INIWAV =      1    electr: 0-lowe 1-rand  2-diag
   LASPH  =      F    aspherical Exc in radial PAW
   METAGGA=      F    non-selfconsistent MetaGGA calc.

 Electronic Relaxation 1
   ENCUT  =  520.0 eV  38.22 Ry    6.18 a.u.   4.63 14.93  4.63*2*pi/ulx,y,z
   ENINI  =  520.0     initial cutoff
   ENAUG  =  477.8 eV  augmentation charge cutoff
   NELM   =     60;   NELMIN=  2; NELMDL= -5     # of ELM steps 
   EDIFF  = 0.1E-05   stopping-criterion for ELM
   LREAL  =      F    real-space projection
   NLSPLINE    = F    spline interpolate recip. space projectors
   LCOMPAT=      F    compatible to vasp.4.4
   GGA_COMPAT  = T    GGA compatible to vasp.4.4-vasp.4.6
   LMAXPAW     = -100 max onsite density
   LMAXMIX     =    2 max onsite mixed and CHGCAR
   VOSKOWN=      0    Vosko Wilk Nusair interpolation
   ROPT   =    0.00000
 Ionic relaxation
   EDIFFG = 0.1E-04   stopping-criterion for IOM
   NSW    =      0    number of steps for IOM
   NBLOCK =      1;   KBLOCK =      1    inner block; outer block 
   IBRION =     -1    ionic relax: 0-MD 1-quasi-New 2-CG
   NFREE  =      1    steps in history (QN), initial steepest desc. (CG)
   ISIF   =      2    stress and relaxation
   IWAVPR =     10    prediction:  0-non 1-charg 2-wave 3-comb
   ISYM   =      2    0-nonsym 1-usesym 2-fastsym
   LCORR  =      T    Harris-Foulkes like correction to forces

   POTIM  = 0.5000    time-step for ionic-motion
   TEIN   =    0.0    initial temperature
   TEBEG  =    0.0;   TEEND  =   0.0 temperature during run
   SMASS  =  -3.00    Nose mass-parameter (am)
   estimated Nose-frequenzy (Omega)   =  0.10E-29 period in steps =****** mass=  -0.142E-27a.u.
   SCALEE = 1.0000    scale energy and forces
   NPACO  =    256;   APACO  = 16.0  distance and # of slots for P.C.
   PSTRESS=    0.0 pullay stress

  Mass of Ions in am
   POMASS =  58.93
  Ionic Valenz
   ZVAL   =   9.00
  Atomic Wigner-Seitz radii
   RWIGS  =  -1.00
  virtual crystal weights 
   VCA    =   1.00
   NELECT =      36.0000    total number of electrons
   NUPDOWN=      -1.0000    fix difference up-down

 DOS related values:
   EMIN   =  10.00;   EMAX   =-10.00  energy-range for DOS
   EFERMI =   0.00
   ISMEAR =    -5;   SIGMA  =   0.05  broadening in eV -4-tet -1-fermi 0-gaus

 Electronic relaxation 2 (details)
   IALGO  =     38    algorithm
   LDIAG  =      T    sub-space diagonalisation (order eigenvalues)
   LSUBROT=      F    optimize rotation matrix (better conditioning)
   TURBO    =      0    0=normal 1=particle mesh
   IRESTART =      0    0=no restart 2=restart with 2 vectors
   NREBOOT  =      0    no. of reboots
   NMIN     =      0    reboot dimension
   EREF     =   0.00    reference energy to select bands
   IMIX   =      4    mixing-type and parameters
     AMIX     =   0.40;   BMIX     =  1.00
     AMIX_MAG =   1.60;   BMIX_MAG =  1.00
     AMIN     =   0.10
     WC   =   100.;   INIMIX=   1;  MIXPRE=   1;  MAXMIX= -45

 Intra band minimization:
   WEIMIN = 0.0000     energy-eigenvalue tresh-hold
   EBREAK =  0.11E-07  absolut break condition
   DEPER  =   0.30     relativ break condition  

   TIME   =   0.40     timestep for ELM

  volume/ion in A,a.u.               =      10.80        72.86
  Fermi-wavevector in a.u.,A,eV,Ry     =   1.540735  2.911567 32.298391  2.373865
  Thomas-Fermi vector in A             =   2.646780
 
 Write flags
   LWAVE        =      F    write WAVECAR
   LDOWNSAMPLE  =      F    k-point downsampling of WAVECAR
   LCHARG       =      F    write CHGCAR
   LVTOT        =      F    write LOCPOT, total local potential
   LVHAR        =      F    write LOCPOT, Hartree potential only
   LELF         =      F    write electronic localiz. function (ELF)
   LORBIT       =     11    0 simple, 1 ext, 2 COOP (PROOUT), +10 PAW based schemes


 Dipole corrections
   LMONO  =      F    monopole corrections only (constant potential shift)
   LDIPOL =      F    correct potential (dipole corrections)
   IDIPOL =      0    1-x, 2-y, 3-z, 4-all directions 
   EPSILON=  1.0000000 bulk dielectric constant

 Exchange correlation treatment:
   GGA     =    --    GGA type
   LEXCH   =     8    internal setting for exchange type
   VOSKOWN=      0    Vosko Wilk Nusair interpolation
   LHFCALC =     F    Hartree Fock is set to
   LHFONE  =     F    Hartree Fock one center treatment
   AEXX    =    0.0000 exact exchange contribution

 Linear response parameters
   LEPSILON=     F    determine dielectric tensor
   LRPA    =     F    only Hartree local field effects (RPA)
   LNABLA  =     F    use nabla operator in PAW spheres
   LVEL    =     F    velocity operator in full k-point grid
   LINTERFAST=   F  fast interpolation
   KINTER  =     0    interpolate to denser k-point grid
   CSHIFT  =0.1000    complex shift for real part using Kramers Kronig
   OMEGAMAX=  -1.0    maximum frequency
   DEG_THRESHOLD= 0.2000000E-02 threshold for treating states as degnerate
   RTIME   =   -0.100 relaxation time in fs
  (WPLASMAI=    0.000 imaginary part of plasma frequency in eV, 0.658/RTIME)
   DFIELD  = 0.0000000 0.0000000 0.0000000 field for delta impulse in time
 
 Orbital magnetization related:
   ORBITALMAG=     F  switch on orbital magnetization
   LCHIMAG   =     F  perturbation theory with respect to B field
   DQ        =  0.001000  dq finite difference perturbation B field
   LLRAUG    =     F  two centre corrections for induced B field



--------------------------------------------------------------------------------------------------------


 Static calculation
 charge density and potential will be updated during run
 spin polarized calculation
 Variant of blocked Davidson
 Davidson routine will perform the subspace rotation
 perform sub-space diagonalisation
    after iterative eigenvector-optimisation
 modified Broyden-mixing scheme, WC =      100.0
 initial mixing is a Kerker type mixing with AMIX =  0.4000 and BMIX =      1.0000
 Hartree-type preconditioning will be used
 using additional bands            4
 reciprocal scheme for non local part
 use partial core corrections
 calculate Harris-corrections to forces 
   (improved forces if not selfconsistent)
 use gradient corrections 
 use of overlap-Matrix (Vanderbilt PP)
 Fermi weights with tetrahedron method with Bloechl corrections


--------------------------------------------------------------------------------------------------------


  energy-cutoff  :      520.00
  volume of cell :       43.19
      direct lattice vectors                 reciprocal lattice vectors
    -1.245908300  2.157976400  0.000000000    -0.401313580  0.231698586  0.000000000
     0.000000000  0.000000000  8.031195600     0.000000000  0.000000000  0.124514462
     1.245908700  2.157976400  0.000000000     0.401313580  0.231698512  0.000000000

  length of vectors
     2.491816533  8.031195600  2.491816733     0.463397048  0.124514462  0.463397011


 
 k-points in units of 2pi/SCALE and weight: pymatgen v2021.2.8.1 with grid density =
   0.00000000  0.00000000  0.00000000       0.002
  -0.04013136  0.02316986  0.00000000       0.003
  -0.08026272  0.04633972  0.00000000       0.003
  -0.12039407  0.06950958  0.00000000       0.003
  -0.16052543  0.09267943  0.00000000       0.003
  -0.20065679  0.11584929  0.00000000       0.005
   0.00000000  0.00000000  0.01245145       0.003
  -0.04013136  0.02316986  0.01245145       0.003
  -0.08026272  0.04633972  0.01245145       0.003
  -0.12039407  0.06950958  0.01245145       0.003
  -0.16052543  0.09267943  0.01245145       0.003
  -0.20065679  0.11584929  0.01245145       0.010
   0.16052543 -0.09267943  0.01245145       0.003
   0.12039407 -0.06950958  0.01245145       0.003
   0.08026272 -0.04633972  0.01245145       0.003
   0.04013136 -0.02316986  0.01245145       0.003
   0.00000000  0.00000000  0.02490289       0.003
  -0.04013136  0.02316986  0.02490289       0.003
  -0.08026272  0.04633972  0.02490289       0.003
  -0.12039407  0.06950958  0.02490289       0.003
  -0.16052543  0.09267943  0.02490289       0.003
  -0.20065679  0.11584929  0.02490289       0.010
   0.16052543 -0.09267943  0.02490289       0.003
   0.12039407 -0.06950958  0.02490289       0.003
   0.08026272 -0.04633972  0.02490289       0.003
   0.04013136 -0.02316986  0.02490289       0.003
   0.00000000  0.00000000  0.03735434       0.003
  -0.04013136  0.02316986  0.03735434       0.003
  -0.08026272  0.04633972  0.03735434       0.003
  -0.12039407  0.06950958  0.03735434       0.003
  -0.16052543  0.09267943  0.03735434       0.003
  -0.20065679  0.11584929  0.03735434       0.010
   0.16052543 -0.09267943  0.03735434       0.003
   0.12039407 -0.06950958  0.03735434       0.003
   0.08026272 -0.04633972  0.03735434       0.003
   0.04013136 -0.02316986  0.03735434       0.003
   0.00000000  0.00000000  0.04980578       0.003
  -0.04013136  0.02316986  0.04980578       0.003
  -0.08026272  0.04633972  0.04980578       0.003
  -0.12039407  0.06950958  0.04980578       0.003
  -0.16052543  0.09267943  0.04980578       0.003
  -0.20065679  0.11584929  0.04980578       0.010
   0.16052543 -0.09267943  0.04980578       0.003
   0.12039407 -0.06950958  0.04980578       0.003
   0.08026272 -0.04633972  0.04980578       0.003
   0.04013136 -0.02316986  0.04980578       0.003
   0.00000000  0.00000000  0.06225723       0.002
  -0.04013136  0.02316986  0.06225723       0.003
  -0.08026272  0.04633972  0.06225723       0.003
  -0.12039407  0.06950958  0.06225723       0.003
  -0.16052543  0.09267943  0.06225723       0.003
  -0.20065679  0.11584929  0.06225723       0.005
   0.06688560  0.03861642  0.00000000       0.003
   0.02675424  0.06178628  0.00000000       0.003
  -0.01337712  0.08495614  0.00000000       0.003
  -0.05350848  0.10812599  0.00000000       0.003
  -0.09363984  0.13129585  0.00000000       0.003
  -0.13377119  0.15446571  0.00000000       0.007
   0.22741103 -0.05406302  0.00000000       0.003
   0.18727967 -0.03089316  0.00000000       0.003
   0.14714831 -0.00772330  0.00000000       0.003
   0.10701695  0.01544656  0.00000000       0.003
   0.06688560  0.03861642  0.01245145       0.003
   0.02675424  0.06178628  0.01245145       0.003
  -0.01337712  0.08495614  0.01245145       0.003
  -0.05350848  0.10812599  0.01245145       0.003
  -0.09363984  0.13129585  0.01245145       0.003
  -0.13377119  0.15446571  0.01245145       0.007
   0.22741103 -0.05406302  0.01245145       0.003
   0.18727967 -0.03089316  0.01245145       0.003
   0.14714831 -0.00772330  0.01245145       0.003
   0.10701695  0.01544656  0.01245145       0.003
   0.06688560  0.03861642  0.02490289       0.003
   0.02675424  0.06178628  0.02490289       0.003
  -0.01337712  0.08495614  0.02490289       0.003
  -0.05350848  0.10812599  0.02490289       0.003
  -0.09363984  0.13129585  0.02490289       0.003
  -0.13377119  0.15446571  0.02490289       0.007
   0.22741103 -0.05406302  0.02490289       0.003
   0.18727967 -0.03089316  0.02490289       0.003
   0.14714831 -0.00772330  0.02490289       0.003
   0.10701695  0.01544656  0.02490289       0.003
   0.06688560  0.03861642  0.03735434       0.003
   0.02675424  0.06178628  0.03735434       0.003
  -0.01337712  0.08495614  0.03735434       0.003
  -0.05350848  0.10812599  0.03735434       0.003
  -0.09363984  0.13129585  0.03735434       0.003
  -0.13377119  0.15446571  0.03735434       0.007
   0.22741103 -0.05406302  0.03735434       0.003
   0.18727967 -0.03089316  0.03735434       0.003
   0.14714831 -0.00772330  0.03735434       0.003
   0.10701695  0.01544656  0.03735434       0.003
   0.06688560  0.03861642  0.04980578       0.003
   0.02675424  0.06178628  0.04980578       0.003
  -0.01337712  0.08495614  0.04980578       0.003
  -0.05350848  0.10812599  0.04980578       0.003
  -0.09363984  0.13129585  0.04980578       0.003
  -0.13377119  0.15446571  0.04980578       0.007
   0.22741103 -0.05406302  0.04980578       0.003
   0.18727967 -0.03089316  0.04980578       0.003
   0.14714831 -0.00772330  0.04980578       0.003
   0.10701695  0.01544656  0.04980578       0.003
   0.06688560  0.03861642  0.06225723       0.003
   0.02675424  0.06178628  0.06225723       0.003
  -0.01337712  0.08495614  0.06225723       0.003
  -0.05350848  0.10812599  0.06225723       0.003
  -0.09363984  0.13129585  0.06225723       0.003
  -0.13377119  0.15446571  0.06225723       0.007
   0.22741103 -0.05406302  0.06225723       0.003
   0.18727967 -0.03089316  0.06225723       0.003
   0.14714831 -0.00772330  0.06225723       0.003
   0.10701695  0.01544656  0.06225723       0.003
   0.06688560  0.03861642 -0.04980578       0.003
   0.02675424  0.06178628 -0.04980578       0.003
  -0.01337712  0.08495614 -0.04980578       0.003
  -0.05350848  0.10812599 -0.04980578       0.003
  -0.09363984  0.13129585 -0.04980578       0.003
  -0.13377119  0.15446571 -0.04980578       0.007
   0.22741103 -0.05406302 -0.04980578       0.003
   0.18727967 -0.03089316 -0.04980578       0.003
   0.14714831 -0.00772330 -0.04980578       0.003
   0.10701695  0.01544656 -0.04980578       0.003
   0.06688560  0.03861642 -0.03735434       0.003
   0.02675424  0.06178628 -0.03735434       0.003
  -0.01337712  0.08495614 -0.03735434       0.003
  -0.05350848  0.10812599 -0.03735434       0.003
  -0.09363984  0.13129585 -0.03735434       0.003
  -0.13377119  0.15446571 -0.03735434       0.007
   0.22741103 -0.05406302 -0.03735434       0.003
   0.18727967 -0.03089316 -0.03735434       0.003
   0.14714831 -0.00772330 -0.03735434       0.003
   0.10701695  0.01544656 -0.03735434       0.003
   0.06688560  0.03861642 -0.02490289       0.003
   0.02675424  0.06178628 -0.02490289       0.003
  -0.01337712  0.08495614 -0.02490289       0.003
  -0.05350848  0.10812599 -0.02490289       0.003
  -0.09363984  0.13129585 -0.02490289       0.003
  -0.13377119  0.15446571 -0.02490289       0.007
   0.22741103 -0.05406302 -0.02490289       0.003
   0.18727967 -0.03089316 -0.02490289       0.003
   0.14714831 -0.00772330 -0.02490289       0.003
   0.10701695  0.01544656 -0.02490289       0.003
   0.06688560  0.03861642 -0.01245145       0.003
   0.02675424  0.06178628 -0.01245145       0.003
  -0.01337712  0.08495614 -0.01245145       0.003
  -0.05350848  0.10812599 -0.01245145       0.003
  -0.09363984  0.13129585 -0.01245145       0.003
  -0.13377119  0.15446571 -0.01245145       0.007
   0.22741103 -0.05406302 -0.01245145       0.003
   0.18727967 -0.03089316 -0.01245145       0.003
   0.14714831 -0.00772330 -0.01245145       0.003
   0.10701695  0.01544656 -0.01245145       0.003
   0.13377119  0.07723284  0.00000000       0.003
   0.09363984  0.10040270  0.00000000       0.003
   0.05350848  0.12357255  0.00000000       0.003
   0.01337712  0.14674241  0.00000000       0.003
  -0.02675424  0.16991227  0.00000000       0.003
   0.29429663 -0.01544660  0.00000000       0.003
   0.25416527  0.00772326  0.00000000       0.003
   0.21403391  0.03089312  0.00000000       0.003
   0.17390255  0.05406298  0.00000000       0.003
   0.13377119  0.07723284  0.01245145       0.003
   0.09363984  0.10040270  0.01245145       0.003
   0.05350848  0.12357255  0.01245145       0.003
   0.01337712  0.14674241  0.01245145       0.003
  -0.02675424  0.16991227  0.01245145       0.003
   0.29429663 -0.01544660  0.01245145       0.003
   0.25416527  0.00772326  0.01245145       0.003
   0.21403391  0.03089312  0.01245145       0.003
   0.17390255  0.05406298  0.01245145       0.003
   0.13377119  0.07723284  0.02490289       0.003
   0.09363984  0.10040270  0.02490289       0.003
   0.05350848  0.12357255  0.02490289       0.003
   0.01337712  0.14674241  0.02490289       0.003
  -0.02675424  0.16991227  0.02490289       0.003
   0.29429663 -0.01544660  0.02490289       0.003
   0.25416527  0.00772326  0.02490289       0.003
   0.21403391  0.03089312  0.02490289       0.003
   0.17390255  0.05406298  0.02490289       0.003
   0.13377119  0.07723284  0.03735434       0.003
   0.09363984  0.10040270  0.03735434       0.003
   0.05350848  0.12357255  0.03735434       0.003
   0.01337712  0.14674241  0.03735434       0.003
  -0.02675424  0.16991227  0.03735434       0.003
   0.29429663 -0.01544660  0.03735434       0.003
   0.25416527  0.00772326  0.03735434       0.003
   0.21403391  0.03089312  0.03735434       0.003
   0.17390255  0.05406298  0.03735434       0.003
   0.13377119  0.07723284  0.04980578       0.003
   0.09363984  0.10040270  0.04980578       0.003
   0.05350848  0.12357255  0.04980578       0.003
   0.01337712  0.14674241  0.04980578       0.003
  -0.02675424  0.16991227  0.04980578       0.003
   0.29429663 -0.01544660  0.04980578       0.003
   0.25416527  0.00772326  0.04980578       0.003
   0.21403391  0.03089312  0.04980578       0.003
   0.17390255  0.05406298  0.04980578       0.003
   0.13377119  0.07723284  0.06225723       0.003
   0.09363984  0.10040270  0.06225723       0.003
   0.05350848  0.12357255  0.06225723       0.003
   0.01337712  0.14674241  0.06225723       0.003
  -0.02675424  0.16991227  0.06225723       0.003
   0.29429663 -0.01544660  0.06225723       0.003
   0.25416527  0.00772326  0.06225723       0.003
   0.21403391  0.03089312  0.06225723       0.003
   0.17390255  0.05406298  0.06225723       0.003
   0.13377119  0.07723284 -0.04980578       0.003
   0.09363984  0.10040270 -0.04980578       0.003
   0.05350848  0.12357255 -0.04980578       0.003
   0.01337712  0.14674241 -0.04980578       0.003
  -0.02675424  0.16991227 -0.04980578       0.003
   0.29429663 -0.01544660 -0.04980578       0.003
   0.25416527  0.00772326 -0.04980578       0.003
   0.21403391  0.03089312 -0.04980578       0.003
   0.17390255  0.05406298 -0.04980578       0.003
   0.13377119  0.07723284 -0.03735434       0.003
   0.09363984  0.10040270 -0.03735434       0.003
   0.05350848  0.12357255 -0.03735434       0.003
   0.01337712  0.14674241 -0.03735434       0.003
  -0.02675424  0.16991227 -0.03735434       0.003
   0.29429663 -0.01544660 -0.03735434       0.003
   0.25416527  0.00772326 -0.03735434       0.003
   0.21403391  0.03089312 -0.03735434       0.003
   0.17390255  0.05406298 -0.03735434       0.003
   0.13377119  0.07723284 -0.02490289       0.003
   0.09363984  0.10040270 -0.02490289       0.003
   0.05350848  0.12357255 -0.02490289       0.003
   0.01337712  0.14674241 -0.02490289       0.003
  -0.02675424  0.16991227 -0.02490289       0.003
   0.29429663 -0.01544660 -0.02490289       0.003
   0.25416527  0.00772326 -0.02490289       0.003
   0.21403391  0.03089312 -0.02490289       0.003
   0.17390255  0.05406298 -0.02490289       0.003
   0.13377119  0.07723284 -0.01245145       0.003
   0.09363984  0.10040270 -0.01245145       0.003
   0.05350848  0.12357255 -0.01245145       0.003
   0.01337712  0.14674241 -0.01245145       0.003
  -0.02675424  0.16991227 -0.01245145       0.003
   0.29429663 -0.01544660 -0.01245145       0.003
   0.25416527  0.00772326 -0.01245145       0.003
   0.21403391  0.03089312 -0.01245145       0.003
   0.17390255  0.05406298 -0.01245145       0.003
   0.16052543  0.13901911  0.00000000       0.007
   0.12039407  0.16218897  0.00000000       0.007
   0.16052543  0.13901911  0.01245145       0.007
   0.12039407  0.16218897  0.01245145       0.007
   0.08026272  0.18535883  0.01245145       0.007
   0.04013136  0.20852869  0.01245145       0.007
   0.16052543  0.13901911  0.02490289       0.007
   0.12039407  0.16218897  0.02490289       0.007
   0.08026272  0.18535883  0.02490289       0.007
   0.04013136  0.20852869  0.02490289       0.007
   0.16052543  0.13901911  0.03735434       0.007
   0.12039407  0.16218897  0.03735434       0.007
   0.08026272  0.18535883  0.03735434       0.007
   0.04013136  0.20852869  0.03735434       0.007
   0.16052543  0.13901911  0.04980578       0.007
   0.12039407  0.16218897  0.04980578       0.007
   0.08026272  0.18535883  0.04980578       0.007
   0.04013136  0.20852869  0.04980578       0.007
   0.16052543  0.13901911  0.06225723       0.007
   0.12039407  0.16218897  0.06225723       0.007
 
 k-points in reciprocal lattice and weights: pymatgen v2021.2.8.1 with grid density =
   0.00000000  0.00000000  0.00000000       0.002
   0.10000000  0.00000000 -0.00000000       0.003
   0.20000000  0.00000000  0.00000000       0.003
   0.30000000  0.00000000  0.00000000       0.003
   0.40000000  0.00000000  0.00000000       0.003
   0.50000000  0.00000000  0.00000000       0.005
   0.00000000  0.10000000  0.00000000       0.003
   0.10000000  0.10000000 -0.00000000       0.003
   0.20000000  0.10000000  0.00000000       0.003
   0.30000000  0.10000000  0.00000000       0.003
   0.40000000  0.10000000  0.00000000       0.003
   0.50000000  0.10000000  0.00000000       0.010
  -0.40000000  0.10000000 -0.00000000       0.003
  -0.30000000  0.10000000 -0.00000000       0.003
  -0.20000000  0.10000000 -0.00000000       0.003
  -0.10000000  0.10000000  0.00000000       0.003
   0.00000000  0.20000000  0.00000000       0.003
   0.10000000  0.20000000 -0.00000000       0.003
   0.20000000  0.20000000  0.00000000       0.003
   0.30000000  0.20000000  0.00000000       0.003
   0.40000000  0.20000000  0.00000000       0.003
   0.50000000  0.20000000  0.00000000       0.010
  -0.40000000  0.20000000 -0.00000000       0.003
  -0.30000000  0.20000000 -0.00000000       0.003
  -0.20000000  0.20000000 -0.00000000       0.003
  -0.10000000  0.20000000  0.00000000       0.003
   0.00000000  0.30000000  0.00000000       0.003
   0.10000000  0.30000000 -0.00000000       0.003
   0.20000000  0.30000000  0.00000000       0.003
   0.30000000  0.30000000  0.00000000       0.003
   0.40000000  0.30000000  0.00000000       0.003
   0.50000000  0.30000000  0.00000000       0.010
  -0.40000000  0.30000000 -0.00000000       0.003
  -0.30000000  0.30000000 -0.00000000       0.003
  -0.20000000  0.30000000 -0.00000000       0.003
  -0.10000000  0.30000000  0.00000000       0.003
   0.00000000  0.40000000  0.00000000       0.003
   0.10000000  0.40000000 -0.00000000       0.003
   0.20000000  0.40000000  0.00000000       0.003
   0.30000000  0.40000000  0.00000000       0.003
   0.40000000  0.40000000  0.00000000       0.003
   0.50000000  0.40000000  0.00000000       0.010
  -0.40000000  0.40000000 -0.00000000       0.003
  -0.30000000  0.40000000 -0.00000000       0.003
  -0.20000000  0.40000000 -0.00000000       0.003
  -0.10000000  0.40000000  0.00000000       0.003
   0.00000000  0.50000000  0.00000000       0.002
   0.10000000  0.50000000 -0.00000000       0.003
   0.20000000  0.50000000  0.00000000       0.003
   0.30000000  0.50000000  0.00000000       0.003
   0.40000000  0.50000000  0.00000000       0.003
   0.50000000  0.50000000  0.00000000       0.005
   0.00000000  0.00000000  0.16666667       0.003
   0.10000000  0.00000000  0.16666667       0.003
   0.20000000  0.00000000  0.16666667       0.003
   0.30000000  0.00000000  0.16666667       0.003
   0.40000000  0.00000000  0.16666667       0.003
   0.50000000  0.00000000  0.16666667       0.007
  -0.40000000  0.00000000  0.16666667       0.003
  -0.30000000  0.00000000  0.16666667       0.003
  -0.20000000  0.00000000  0.16666667       0.003
  -0.10000000  0.00000000  0.16666667       0.003
   0.00000000  0.10000000  0.16666667       0.003
   0.10000000  0.10000000  0.16666667       0.003
   0.20000000  0.10000000  0.16666667       0.003
   0.30000000  0.10000000  0.16666667       0.003
   0.40000000  0.10000000  0.16666667       0.003
   0.50000000  0.10000000  0.16666667       0.007
  -0.40000000  0.10000000  0.16666667       0.003
  -0.30000000  0.10000000  0.16666667       0.003
  -0.20000000  0.10000000  0.16666667       0.003
  -0.10000000  0.10000000  0.16666667       0.003
   0.00000000  0.20000000  0.16666667       0.003
   0.10000000  0.20000000  0.16666667       0.003
   0.20000000  0.20000000  0.16666667       0.003
   0.30000000  0.20000000  0.16666667       0.003
   0.40000000  0.20000000  0.16666667       0.003
   0.50000000  0.20000000  0.16666667       0.007
  -0.40000000  0.20000000  0.16666667       0.003
  -0.30000000  0.20000000  0.16666667       0.003
  -0.20000000  0.20000000  0.16666667       0.003
  -0.10000000  0.20000000  0.16666667       0.003
   0.00000000  0.30000000  0.16666667       0.003
   0.10000000  0.30000000  0.16666667       0.003
   0.20000000  0.30000000  0.16666667       0.003
   0.30000000  0.30000000  0.16666667       0.003
   0.40000000  0.30000000  0.16666667       0.003
   0.50000000  0.30000000  0.16666667       0.007
  -0.40000000  0.30000000  0.16666667       0.003
  -0.30000000  0.30000000  0.16666667       0.003
  -0.20000000  0.30000000  0.16666667       0.003
  -0.10000000  0.30000000  0.16666667       0.003
   0.00000000  0.40000000  0.16666667       0.003
   0.10000000  0.40000000  0.16666667       0.003
   0.20000000  0.40000000  0.16666667       0.003
   0.30000000  0.40000000  0.16666667       0.003
   0.40000000  0.40000000  0.16666667       0.003
   0.50000000  0.40000000  0.16666667       0.007
  -0.40000000  0.40000000  0.16666667       0.003
  -0.30000000  0.40000000  0.16666667       0.003
  -0.20000000  0.40000000  0.16666667       0.003
  -0.10000000  0.40000000  0.16666667       0.003
   0.00000000  0.50000000  0.16666667       0.003
   0.10000000  0.50000000  0.16666667       0.003
   0.20000000  0.50000000  0.16666667       0.003
   0.30000000  0.50000000  0.16666667       0.003
   0.40000000  0.50000000  0.16666667       0.003
   0.50000000  0.50000000  0.16666667       0.007
  -0.40000000  0.50000000  0.16666667       0.003
  -0.30000000  0.50000000  0.16666667       0.003
  -0.20000000  0.50000000  0.16666667       0.003
  -0.10000000  0.50000000  0.16666667       0.003
   0.00000000 -0.40000000  0.16666667       0.003
   0.10000000 -0.40000000  0.16666667       0.003
   0.20000000 -0.40000000  0.16666667       0.003
   0.30000000 -0.40000000  0.16666667       0.003
   0.40000000 -0.40000000  0.16666667       0.003
   0.50000000 -0.40000000  0.16666667       0.007
  -0.40000000 -0.40000000  0.16666667       0.003
  -0.30000000 -0.40000000  0.16666667       0.003
  -0.20000000 -0.40000000  0.16666667       0.003
  -0.10000000 -0.40000000  0.16666667       0.003
   0.00000000 -0.30000000  0.16666667       0.003
   0.10000000 -0.30000000  0.16666667       0.003
   0.20000000 -0.30000000  0.16666667       0.003
   0.30000000 -0.30000000  0.16666667       0.003
   0.40000000 -0.30000000  0.16666667       0.003
   0.50000000 -0.30000000  0.16666667       0.007
  -0.40000000 -0.30000000  0.16666667       0.003
  -0.30000000 -0.30000000  0.16666667       0.003
  -0.20000000 -0.30000000  0.16666667       0.003
  -0.10000000 -0.30000000  0.16666667       0.003
   0.00000000 -0.20000000  0.16666667       0.003
   0.10000000 -0.20000000  0.16666667       0.003
   0.20000000 -0.20000000  0.16666667       0.003
   0.30000000 -0.20000000  0.16666667       0.003
   0.40000000 -0.20000000  0.16666667       0.003
   0.50000000 -0.20000000  0.16666667       0.007
  -0.40000000 -0.20000000  0.16666667       0.003
  -0.30000000 -0.20000000  0.16666667       0.003
  -0.20000000 -0.20000000  0.16666667       0.003
  -0.10000000 -0.20000000  0.16666667       0.003
   0.00000000 -0.10000000  0.16666667       0.003
   0.10000000 -0.10000000  0.16666667       0.003
   0.20000000 -0.10000000  0.16666667       0.003
   0.30000000 -0.10000000  0.16666667       0.003
   0.40000000 -0.10000000  0.16666667       0.003
   0.50000000 -0.10000000  0.16666667       0.007
  -0.40000000 -0.10000000  0.16666667       0.003
  -0.30000000 -0.10000000  0.16666667       0.003
  -0.20000000 -0.10000000  0.16666667       0.003
  -0.10000000 -0.10000000  0.16666667       0.003
   0.00000000  0.00000000  0.33333333       0.003
   0.10000000  0.00000000  0.33333333       0.003
   0.20000000  0.00000000  0.33333333       0.003
   0.30000000  0.00000000  0.33333333       0.003
   0.40000000  0.00000000  0.33333333       0.003
  -0.40000000  0.00000000  0.33333333       0.003
  -0.30000000  0.00000000  0.33333333       0.003
  -0.20000000  0.00000000  0.33333333       0.003
  -0.10000000  0.00000000  0.33333333       0.003
   0.00000000  0.10000000  0.33333333       0.003
   0.10000000  0.10000000  0.33333333       0.003
   0.20000000  0.10000000  0.33333333       0.003
   0.30000000  0.10000000  0.33333333       0.003
   0.40000000  0.10000000  0.33333333       0.003
  -0.40000000  0.10000000  0.33333333       0.003
  -0.30000000  0.10000000  0.33333333       0.003
  -0.20000000  0.10000000  0.33333333       0.003
  -0.10000000  0.10000000  0.33333333       0.003
   0.00000000  0.20000000  0.33333333       0.003
   0.10000000  0.20000000  0.33333333       0.003
   0.20000000  0.20000000  0.33333333       0.003
   0.30000000  0.20000000  0.33333333       0.003
   0.40000000  0.20000000  0.33333333       0.003
  -0.40000000  0.20000000  0.33333333       0.003
  -0.30000000  0.20000000  0.33333333       0.003
  -0.20000000  0.20000000  0.33333333       0.003
  -0.10000000  0.20000000  0.33333333       0.003
   0.00000000  0.30000000  0.33333333       0.003
   0.10000000  0.30000000  0.33333333       0.003
   0.20000000  0.30000000  0.33333333       0.003
   0.30000000  0.30000000  0.33333333       0.003
   0.40000000  0.30000000  0.33333333       0.003
  -0.40000000  0.30000000  0.33333333       0.003
  -0.30000000  0.30000000  0.33333333       0.003
  -0.20000000  0.30000000  0.33333333       0.003
  -0.10000000  0.30000000  0.33333333       0.003
   0.00000000  0.40000000  0.33333333       0.003
   0.10000000  0.40000000  0.33333333       0.003
   0.20000000  0.40000000  0.33333333       0.003
   0.30000000  0.40000000  0.33333333       0.003
   0.40000000  0.40000000  0.33333333       0.003
  -0.40000000  0.40000000  0.33333333       0.003
  -0.30000000  0.40000000  0.33333333       0.003
  -0.20000000  0.40000000  0.33333333       0.003
  -0.10000000  0.40000000  0.33333333       0.003
   0.00000000  0.50000000  0.33333333       0.003
   0.10000000  0.50000000  0.33333333       0.003
   0.20000000  0.50000000  0.33333333       0.003
   0.30000000  0.50000000  0.33333333       0.003
   0.40000000  0.50000000  0.33333333       0.003
  -0.40000000  0.50000000  0.33333333       0.003
  -0.30000000  0.50000000  0.33333333       0.003
  -0.20000000  0.50000000  0.33333333       0.003
  -0.10000000  0.50000000  0.33333333       0.003
   0.00000000 -0.40000000  0.33333333       0.003
   0.10000000 -0.40000000  0.33333333       0.003
   0.20000000 -0.40000000  0.33333333       0.003
   0.30000000 -0.40000000  0.33333333       0.003
   0.40000000 -0.40000000  0.33333333       0.003
  -0.40000000 -0.40000000  0.33333333       0.003
  -0.30000000 -0.40000000  0.33333333       0.003
  -0.20000000 -0.40000000  0.33333333       0.003
  -0.10000000 -0.40000000  0.33333333       0.003
   0.00000000 -0.30000000  0.33333333       0.003
   0.10000000 -0.30000000  0.33333333       0.003
   0.20000000 -0.30000000  0.33333333       0.003
   0.30000000 -0.30000000  0.33333333       0.003
   0.40000000 -0.30000000  0.33333333       0.003
  -0.40000000 -0.30000000  0.33333333       0.003
  -0.30000000 -0.30000000  0.33333333       0.003
  -0.20000000 -0.30000000  0.33333333       0.003
  -0.10000000 -0.30000000  0.33333333       0.003
   0.00000000 -0.20000000  0.33333333       0.003
   0.10000000 -0.20000000  0.33333333       0.003
   0.20000000 -0.20000000  0.33333333       0.003
   0.30000000 -0.20000000  0.33333333       0.003
   0.40000000 -0.20000000  0.33333333       0.003
  -0.40000000 -0.20000000  0.33333333       0.003
  -0.30000000 -0.20000000  0.33333333       0.003
  -0.20000000 -0.20000000  0.33333333       0.003
  -0.10000000 -0.20000000  0.33333333       0.003
   0.00000000 -0.10000000  0.33333333       0.003
   0.10000000 -0.10000000  0.33333333       0.003
   0.20000000 -0.10000000  0.33333333       0.003
   0.30000000 -0.10000000  0.33333333       0.003
   0.40000000 -0.10000000  0.33333333       0.003
  -0.40000000 -0.10000000  0.33333333       0.003
  -0.30000000 -0.10000000  0.33333333       0.003
  -0.20000000 -0.10000000  0.33333333       0.003
  -0.10000000 -0.10000000  0.33333333       0.003
   0.10000000  0.00000000  0.50000000       0.007
   0.20000000  0.00000000  0.50000000       0.007
   0.10000000  0.10000000  0.50000000       0.007
   0.20000000  0.10000000  0.50000000       0.007
   0.30000000  0.10000000  0.50000000       0.007
   0.40000000  0.10000000  0.50000000       0.007
   0.10000000  0.20000000  0.50000000       0.007
   0.20000000  0.20000000  0.50000000       0.007
   0.30000000  0.20000000  0.50000000       0.007
   0.40000000  0.20000000  0.50000000       0.007
   0.10000000  0.30000000  0.50000000       0.007
   0.20000000  0.30000000  0.50000000       0.007
   0.30000000  0.30000000  0.50000000       0.007
   0.40000000  0.30000000  0.50000000       0.007
   0.10000000  0.40000000  0.50000000       0.007
   0.20000000  0.40000000  0.50000000       0.007
   0.30000000  0.40000000  0.50000000       0.007
   0.40000000  0.40000000  0.50000000       0.007
   0.10000000  0.50000000  0.50000000       0.007
   0.20000000  0.50000000  0.50000000       0.007
 
 position of ions in fractional coordinates (direct lattice) 
   0.66666600  0.37499998  0.66666699
   0.33333399  0.12500001  0.33333299
   0.66666600  0.87499998  0.66666699
   0.33333399  0.62500001  0.33333299
 
 position of ions in cartesian coordinates  (Angst):
   0.00000150  2.87730111  3.01169820
  -0.00000111  1.43865160  1.00389950
   0.00000150  2.87730111  7.02729600
  -0.00000111  1.43865160  5.01949730
 


--------------------------------------------------------------------------------------------------------


 k-point  1 :   0.0000 0.0000 0.0000  plane waves:    1169
 k-point  2 :   0.1000 0.0000-0.0000  plane waves:    1172
 k-point  3 :   0.2000 0.0000 0.0000  plane waves:    1174
 k-point  4 :   0.3000 0.0000 0.0000  plane waves:    1168
 k-point  5 :   0.4000 0.0000 0.0000  plane waves:    1158
 k-point  6 :   0.5000 0.0000 0.0000  plane waves:    1172
 k-point  7 :   0.0000 0.1000 0.0000  plane waves:    1182
 k-point  8 :   0.1000 0.1000-0.0000  plane waves:    1175
 k-point  9 :   0.2000 0.1000 0.0000  plane waves:    1172
 k-point 10 :   0.3000 0.1000 0.0000  plane waves:    1169
 k-point 11 :   0.4000 0.1000 0.0000  plane waves:    1163
 k-point 12 :   0.5000 0.1000 0.0000  plane waves:    1164
 k-point 13 :  -0.4000 0.1000-0.0000  plane waves:    1163
 k-point 14 :  -0.3000 0.1000-0.0000  plane waves:    1169
 k-point 15 :  -0.2000 0.1000-0.0000  plane waves:    1172
 k-point 16 :  -0.1000 0.1000 0.0000  plane waves:    1175
 k-point 17 :   0.0000 0.2000 0.0000  plane waves:    1176
 k-point 18 :   0.1000 0.2000-0.0000  plane waves:    1172
 k-point 19 :   0.2000 0.2000 0.0000  plane waves:    1172
 k-point 20 :   0.3000 0.2000 0.0000  plane waves:    1169
 k-point 21 :   0.4000 0.2000 0.0000  plane waves:    1164
 k-point 22 :   0.5000 0.2000 0.0000  plane waves:    1164
 k-point 23 :  -0.4000 0.2000-0.0000  plane waves:    1164
 k-point 24 :  -0.3000 0.2000-0.0000  plane waves:    1169
 k-point 25 :  -0.2000 0.2000-0.0000  plane waves:    1172
 k-point 26 :  -0.1000 0.2000 0.0000  plane waves:    1172
 k-point 27 :   0.0000 0.3000 0.0000  plane waves:    1164
 k-point 28 :   0.1000 0.3000-0.0000  plane waves:    1173
 k-point 29 :   0.2000 0.3000 0.0000  plane waves:    1174
 k-point 30 :   0.3000 0.3000 0.0000  plane waves:    1168
 k-point 31 :   0.4000 0.3000 0.0000  plane waves:    1163
 k-point 32 :   0.5000 0.3000 0.0000  plane waves:    1168
 k-point 33 :  -0.4000 0.3000-0.0000  plane waves:    1163
 k-point 34 :  -0.3000 0.3000-0.0000  plane waves:    1168
 k-point 35 :  -0.2000 0.3000-0.0000  plane waves:    1174
 k-point 36 :  -0.1000 0.3000 0.0000  plane waves:    1173
 k-point 37 :   0.0000 0.4000 0.0000  plane waves:    1164
 k-point 38 :   0.1000 0.4000-0.0000  plane waves:    1173
 k-point 39 :   0.2000 0.4000 0.0000  plane waves:    1173
 k-point 40 :   0.3000 0.4000 0.0000  plane waves:    1166
 k-point 41 :   0.4000 0.4000 0.0000  plane waves:    1157
 k-point 42 :   0.5000 0.4000 0.0000  plane waves:    1158
 k-point 43 :  -0.4000 0.4000-0.0000  plane waves:    1157
 k-point 44 :  -0.3000 0.4000-0.0000  plane waves:    1166
 k-point 45 :  -0.2000 0.4000-0.0000  plane waves:    1173
 k-point 46 :  -0.1000 0.4000 0.0000  plane waves:    1173
 k-point 47 :   0.0000 0.5000 0.0000  plane waves:    1170
 k-point 48 :   0.1000 0.5000-0.0000  plane waves:    1174
 k-point 49 :   0.2000 0.5000 0.0000  plane waves:    1168
 k-point 50 :   0.3000 0.5000 0.0000  plane waves:    1166
 k-point 51 :   0.4000 0.5000 0.0000  plane waves:    1156
 k-point 52 :   0.5000 0.5000 0.0000  plane waves:    1160
 k-point 53 :   0.0000 0.0000 0.1667  plane waves:    1178
 k-point 54 :   0.1000 0.0000 0.1667  plane waves:    1168
 k-point 55 :   0.2000 0.0000 0.1667  plane waves:    1172
 k-point 56 :   0.3000 0.0000 0.1667  plane waves:    1160
 k-point 57 :   0.4000 0.0000 0.1667  plane waves:    1155
 k-point 58 :   0.5000 0.0000 0.1667  plane waves:    1155
 k-point 59 :  -0.4000 0.0000 0.1667  plane waves:    1162
 k-point 60 :  -0.3000 0.0000 0.1667  plane waves:    1163
 k-point 61 :  -0.2000 0.0000 0.1667  plane waves:    1160
 k-point 62 :  -0.1000 0.0000 0.1667  plane waves:    1166
 k-point 63 :   0.0000 0.1000 0.1667  plane waves:    1179
 k-point 64 :   0.1000 0.1000 0.1667  plane waves:    1173
 k-point 65 :   0.2000 0.1000 0.1667  plane waves:    1170
 k-point 66 :   0.3000 0.1000 0.1667  plane waves:    1167
 k-point 67 :   0.4000 0.1000 0.1667  plane waves:    1159
 k-point 68 :   0.5000 0.1000 0.1667  plane waves:    1157
 k-point 69 :  -0.4000 0.1000 0.1667  plane waves:    1161
 k-point 70 :  -0.3000 0.1000 0.1667  plane waves:    1158
 k-point 71 :  -0.2000 0.1000 0.1667  plane waves:    1165
 k-point 72 :  -0.1000 0.1000 0.1667  plane waves:    1166
 k-point 73 :   0.0000 0.2000 0.1667  plane waves:    1168
 k-point 74 :   0.1000 0.2000 0.1667  plane waves:    1172
 k-point 75 :   0.2000 0.2000 0.1667  plane waves:    1170
 k-point 76 :   0.3000 0.2000 0.1667  plane waves:    1169
 k-point 77 :   0.4000 0.2000 0.1667  plane waves:    1161
 k-point 78 :   0.5000 0.2000 0.1667  plane waves:    1158
 k-point 79 :  -0.4000 0.2000 0.1667  plane waves:    1158
 k-point 80 :  -0.3000 0.2000 0.1667  plane waves:    1160
 k-point 81 :  -0.2000 0.2000 0.1667  plane waves:    1163
 k-point 82 :  -0.1000 0.2000 0.1667  plane waves:    1172
 k-point 83 :   0.0000 0.3000 0.1667  plane waves:    1172
 k-point 84 :   0.1000 0.3000 0.1667  plane waves:    1176
 k-point 85 :   0.2000 0.3000 0.1667  plane waves:    1173
 k-point 86 :   0.3000 0.3000 0.1667  plane waves:    1170
 k-point 87 :   0.4000 0.3000 0.1667  plane waves:    1161
 k-point 88 :   0.5000 0.3000 0.1667  plane waves:    1159
 k-point 89 :  -0.4000 0.3000 0.1667  plane waves:    1151
 k-point 90 :  -0.3000 0.3000 0.1667  plane waves:    1162
 k-point 91 :  -0.2000 0.3000 0.1667  plane waves:    1163
 k-point 92 :  -0.1000 0.3000 0.1667  plane waves:    1173
 k-point 93 :   0.0000 0.4000 0.1667  plane waves:    1171
 k-point 94 :   0.1000 0.4000 0.1667  plane waves:    1170
 k-point 95 :   0.2000 0.4000 0.1667  plane waves:    1175
 k-point 96 :   0.3000 0.4000 0.1667  plane waves:    1172
 k-point 97 :   0.4000 0.4000 0.1667  plane waves:    1165
 k-point 98 :   0.5000 0.4000 0.1667  plane waves:    1161
 k-point 99 :  -0.4000 0.4000 0.1667  plane waves:    1153
 k-point ** :  -0.3000 0.4000 0.1667  plane waves:    1164
 k-point ** :  -0.2000 0.4000 0.1667  plane waves:    1164
 k-point ** :  -0.1000 0.4000 0.1667  plane waves:    1172
 k-point ** :   0.0000 0.5000 0.1667  plane waves:    1180
 k-point ** :   0.1000 0.5000 0.1667  plane waves:    1170
 k-point ** :   0.2000 0.5000 0.1667  plane waves:    1182
 k-point ** :   0.3000 0.5000 0.1667  plane waves:    1170
 k-point ** :   0.4000 0.5000 0.1667  plane waves:    1162
 k-point ** :   0.5000 0.5000 0.1667  plane waves:    1162
 k-point ** :  -0.4000 0.5000 0.1667  plane waves:    1148
 k-point ** :  -0.3000 0.5000 0.1667  plane waves:    1164
 k-point ** :  -0.2000 0.5000 0.1667  plane waves:    1158
 k-point ** :  -0.1000 0.5000 0.1667  plane waves:    1174
 k-point ** :   0.0000-0.4000 0.1667  plane waves:    1171
 k-point ** :   0.1000-0.4000 0.1667  plane waves:    1170
 k-point ** :   0.2000-0.4000 0.1667  plane waves:    1175
 k-point ** :   0.3000-0.4000 0.1667  plane waves:    1172
 k-point ** :   0.4000-0.4000 0.1667  plane waves:    1165
 k-point ** :   0.5000-0.4000 0.1667  plane waves:    1161
 k-point ** :  -0.4000-0.4000 0.1667  plane waves:    1153
 k-point ** :  -0.3000-0.4000 0.1667  plane waves:    1164
 k-point ** :  -0.2000-0.4000 0.1667  plane waves:    1164
 k-point ** :  -0.1000-0.4000 0.1667  plane waves:    1172
 k-point ** :   0.0000-0.3000 0.1667  plane waves:    1172
 k-point ** :   0.1000-0.3000 0.1667  plane waves:    1176
 k-point ** :   0.2000-0.3000 0.1667  plane waves:    1173
 k-point ** :   0.3000-0.3000 0.1667  plane waves:    1170
 k-point ** :   0.4000-0.3000 0.1667  plane waves:    1161
 k-point ** :   0.5000-0.3000 0.1667  plane waves:    1159
 k-point ** :  -0.4000-0.3000 0.1667  plane waves:    1151
 k-point ** :  -0.3000-0.3000 0.1667  plane waves:    1162
 k-point ** :  -0.2000-0.3000 0.1667  plane waves:    1163
 k-point ** :  -0.1000-0.3000 0.1667  plane waves:    1173
 k-point ** :   0.0000-0.2000 0.1667  plane waves:    1168
 k-point ** :   0.1000-0.2000 0.1667  plane waves:    1172
 k-point ** :   0.2000-0.2000 0.1667  plane waves:    1170
 k-point ** :   0.3000-0.2000 0.1667  plane waves:    1169
 k-point ** :   0.4000-0.2000 0.1667  plane waves:    1161
 k-point ** :   0.5000-0.2000 0.1667  plane waves:    1158
 k-point ** :  -0.4000-0.2000 0.1667  plane waves:    1158
 k-point ** :  -0.3000-0.2000 0.1667  plane waves:    1160
 k-point ** :  -0.2000-0.2000 0.1667  plane waves:    1163
 k-point ** :  -0.1000-0.2000 0.1667  plane waves:    1172
 k-point ** :   0.0000-0.1000 0.1667  plane waves:    1179
 k-point ** :   0.1000-0.1000 0.1667  plane waves:    1173
 k-point ** :   0.2000-0.1000 0.1667  plane waves:    1170
 k-point ** :   0.3000-0.1000 0.1667  plane waves:    1167
 k-point ** :   0.4000-0.1000 0.1667  plane waves:    1159
 k-point ** :   0.5000-0.1000 0.1667  plane waves:    1157
 k-point ** :  -0.4000-0.1000 0.1667  plane waves:    1161
 k-point ** :  -0.3000-0.1000 0.1667  plane waves:    1158
 k-point ** :  -0.2000-0.1000 0.1667  plane waves:    1165
 k-point ** :  -0.1000-0.1000 0.1667  plane waves:    1166
 k-point ** :   0.0000 0.0000 0.3333  plane waves:    1178
 k-point ** :   0.1000 0.0000 0.3333  plane waves:    1170
 k-point ** :   0.2000 0.0000 0.3333  plane waves:    1164
 k-point ** :   0.3000 0.0000 0.3333  plane waves:    1170
 k-point ** :   0.4000 0.0000 0.3333  plane waves:    1173
 k-point ** :  -0.4000 0.0000 0.3333  plane waves:    1139
 k-point ** :  -0.3000 0.0000 0.3333  plane waves:    1129
 k-point ** :  -0.2000 0.0000 0.3333  plane waves:    1154
 k-point ** :  -0.1000 0.0000 0.3333  plane waves:    1166
 k-point ** :   0.0000 0.1000 0.3333  plane waves:    1176
 k-point ** :   0.1000 0.1000 0.3333  plane waves:    1169
 k-point ** :   0.2000 0.1000 0.3333  plane waves:    1168
 k-point ** :   0.3000 0.1000 0.3333  plane waves:    1171
 k-point ** :   0.4000 0.1000 0.3333  plane waves:    1163
 k-point ** :  -0.4000 0.1000 0.3333  plane waves:    1140
 k-point ** :  -0.3000 0.1000 0.3333  plane waves:    1130
 k-point ** :  -0.2000 0.1000 0.3333  plane waves:    1151
 k-point ** :  -0.1000 0.1000 0.3333  plane waves:    1162
 k-point ** :   0.0000 0.2000 0.3333  plane waves:    1169
 k-point ** :   0.1000 0.2000 0.3333  plane waves:    1167
 k-point ** :   0.2000 0.2000 0.3333  plane waves:    1166
 k-point ** :   0.3000 0.2000 0.3333  plane waves:    1170
 k-point ** :   0.4000 0.2000 0.3333  plane waves:    1161
[...]
      3       6.0901      1.00000
      4       6.4839      1.00000
      5       6.8291      1.00000
      6       7.0950      1.00000
      7       7.3578      1.00000
      8       7.6153      1.00000
      9       7.8688      1.00000
     10       8.2870      1.00000
     11       8.7331      1.00000
     12       9.0929      1.00000
     13       9.2643      1.00000
     14       9.3633      1.00000
     15       9.8694      1.00000
     16      10.0762      1.00000
     17      10.4176      0.84934
     18      10.6127      0.10347
     19      10.9896     -0.02411
     20      11.0872      0.00000
     21      11.9479      0.00000
     22      12.3356      0.00000

 k-point   258 :       0.2000    0.4000    0.5000
  band No.  band energies     occupation 
      1       5.9476      1.00000
      2       6.0225      1.00000
      3       6.3837      1.00000
      4       6.5362      1.00000
      5       6.7968      1.00000
      6       7.1986      1.00000
      7       7.3514      1.00000
      8       7.4748      1.00000
      9       7.8541      1.00000
     10       8.1461      1.00000
     11       8.3137      1.00000
     12       8.6166      1.00000
     13       8.6796      1.00000
     14       9.3075      1.00000
     15       9.7648      1.00000
     16       9.8338      1.00000
     17      10.1762      1.00126
     18      10.4847      0.24318
     19      10.6537      0.00220
     20      11.1091      0.00000
     21      12.1374      0.00000
     22      12.6914      0.00000

 k-point   259 :       0.3000    0.4000    0.5000
  band No.  band energies     occupation 
      1       5.9408      1.00000
      2       6.0085      1.00000
      3       6.4595      1.00000
      4       6.5312      1.00000
      5       6.7641      1.00000
      6       7.1364      1.00000
      7       7.2850      1.00000
      8       7.5946      1.00000
      9       7.9162      1.00000
     10       8.0639      1.00000
     11       8.3473      1.00000
     12       8.5628      1.00000
     13       8.6907      1.00000
     14       9.3422      1.00000
     15       9.7481      1.00000
     16       9.8786      1.00000
     17      10.1269      1.00548
     18      10.4849      0.24670
     19      10.6356     -0.00632
     20      11.1532      0.00000
     21      12.0971      0.00000
     22      12.7132      0.00000

 k-point   260 :       0.4000    0.4000    0.5000
  band No.  band energies     occupation 
      1       5.5946      1.00000
      2       5.6733      1.00000
      3       6.0725      1.00000
      4       6.5442      1.00000
      5       6.8475      1.00000
      6       7.0177      1.00000
      7       7.3024      1.00000
      8       7.6814      1.00000
      9       7.8740      1.00000
     10       8.2961      1.00000
     11       8.7617      1.00000
     12       9.0886      1.00000
     13       9.1397      1.00000
     14       9.4598      1.00000
     15       9.8493      1.00000
     16      10.1282      1.00000
     17      10.3820      0.86475
     18      10.5809      0.12218
     19      10.9869     -0.02494
     20      11.1733      0.00000
     21      11.8432      0.00000
     22      12.3784      0.00000

 k-point   261 :       0.1000    0.5000    0.5000
  band No.  band energies     occupation 
      1       5.5950      1.00000
      2       5.6605      1.00000
      3       6.0834      1.00000
      4       6.5502      1.00000
      5       6.8472      1.00000
      6       7.0420      1.00000
      7       7.3332      1.00000
      8       7.6069      1.00000
      9       7.8778      1.00000
     10       8.2683      1.00000
     11       8.7526      1.00000
     12       9.1156      1.00000
     13       9.2189      1.00000
     14       9.3950      1.00000
     15       9.8872      1.00000
     16      10.1303      1.00000
     17      10.3554      0.97564
     18      10.5770      0.13731
     19      11.0112     -0.02760
     20      11.1112      0.00000
     21      11.8743      0.00000
     22      12.3538      0.00000

 k-point   262 :       0.2000    0.5000    0.5000
  band No.  band energies     occupation 
      1       5.9398      1.00000
      2       6.0117      1.00000
      3       6.4357      1.00000
      4       6.5365      1.00000
      5       6.7747      1.00000
      6       7.1819      1.00000
      7       7.3183      1.00000
      8       7.4967      1.00000
      9       7.8997      1.00000
     10       8.1021      1.00000
     11       8.3313      1.00000
     12       8.5950      1.00000
     13       8.6887      1.00000
     14       9.3220      1.00000
     15       9.7879      1.00000
     16       9.8455      1.00000
     17      10.1577      1.00000
     18      10.4566      0.28110
     19      10.6340      0.01491
     20      11.1285      0.00000
     21      12.1162      0.00000
     22      12.6865      0.00000


--------------------------------------------------------------------------------------------------------


 soft charge-density along one line, spin component           1
         0         1         2         3         4         5         6         7         8         9
 total charge-density along one line
 
 soft charge-density along one line, spin component           2
         0         1         2         3         4         5         6         7         8         9
 total charge-density along one line
 
 pseudopotential strength for first ion, spin component:           1
 -0.505   0.000  -0.000  -0.021  -0.000  -1.143   0.000  -0.000
  0.000  -0.550  -0.000   0.000  -0.021   0.000  -1.186  -0.000
 -0.000  -0.000  -0.540   0.000   0.000  -0.000  -0.000  -1.177
 -0.021   0.000   0.000  -0.550   0.000  -0.020   0.000   0.000
 -0.000  -0.021   0.000   0.000  -0.505  -0.000  -0.020   0.000
 -1.143   0.000  -0.000  -0.020  -0.000  -1.722   0.000  -0.000
  0.000  -1.186  -0.000   0.000  -0.020   0.000  -1.764  -0.000
 -0.000  -0.000  -1.177   0.000   0.000  -0.000  -0.000  -1.755
 -0.020   0.000   0.000  -1.186   0.000  -0.019   0.000   0.000
 -0.000  -0.020   0.000   0.000  -1.143  -0.000  -0.019   0.000
 -0.000   0.000   0.005  -0.000   0.000  -0.000  -0.000   0.005
 -0.000   0.000   0.008  -0.000   0.000  -0.000   0.000   0.008
  0.000  -0.001   0.000   0.000   0.001   0.000  -0.001   0.000
  0.000  -0.000  -0.004   0.000   0.000   0.000  -0.000  -0.003
  0.001   0.000  -0.000  -0.001   0.000   0.001   0.000  -0.000
  0.000  -0.002   0.000   0.000   0.001   0.000  -0.002   0.000
  0.000  -0.000  -0.005   0.000   0.000   0.000  -0.000  -0.005
  0.001   0.000  -0.000  -0.002   0.000   0.001   0.000  -0.000
 pseudopotential strength for first ion, spin component:           2
  0.667   0.000  -0.000   0.003   0.000  -0.020   0.000  -0.000
  0.000   0.633  -0.000   0.000   0.003   0.000  -0.054  -0.000
 -0.000  -0.000   0.621   0.000   0.000  -0.000  -0.000  -0.065
  0.003   0.000   0.000   0.633   0.000   0.003   0.000   0.000
  0.000   0.003   0.000   0.000   0.667   0.000   0.003   0.000
 -0.020   0.000  -0.000   0.003   0.000  -0.647   0.000  -0.000
  0.000  -0.054  -0.000   0.000   0.003   0.000  -0.679  -0.000
 -0.000  -0.000  -0.065   0.000   0.000  -0.000  -0.000  -0.690
  0.003   0.000   0.000  -0.054   0.000   0.003   0.000   0.000
  0.000   0.003   0.000   0.000  -0.020   0.000   0.003   0.000
 -0.000   0.000   0.006  -0.000   0.000  -0.000   0.000   0.006
 -0.000   0.000   0.010  -0.000   0.000  -0.000   0.000   0.010
  0.000   0.001   0.000  -0.000   0.001   0.000   0.001   0.000
 -0.000  -0.000   0.001   0.000  -0.000  -0.000  -0.000   0.001
  0.001  -0.000  -0.000   0.001   0.000   0.001  -0.000  -0.000
  0.000   0.001   0.000  -0.000   0.001   0.000   0.001   0.000
 -0.000  -0.000   0.001   0.000  -0.000  -0.000  -0.000   0.002
  0.001  -0.000  -0.000   0.001   0.000   0.001  -0.000  -0.000
 total augmentation occupancy for first ion, spin component:           1
  2.902   0.000  -0.000  -0.178   0.000  -1.542  -0.000   0.000   0.105  -0.000   0.000  -0.000   0.000   0.000  -0.032  -0.000
  0.000   2.690   0.000   0.000  -0.178  -0.000  -1.380  -0.000  -0.000   0.104   0.000   0.000   0.006   0.000   0.000   0.003
 -0.000   0.000   2.946   0.000  -0.000   0.000  -0.000  -1.623  -0.000   0.000  -0.077   0.003   0.000  -0.052   0.000  -0.000
 -0.178   0.000   0.000   2.690  -0.000   0.104  -0.000  -0.000  -1.380   0.000   0.000   0.000   0.000   0.000   0.006   0.000
  0.000  -0.178  -0.000  -0.000   2.902  -0.000   0.105   0.000   0.000  -1.542   0.000  -0.000  -0.032   0.000  -0.000   0.003
 -1.542  -0.000   0.000   0.104  -0.000   1.751   0.000  -0.000  -0.070   0.000  -0.000  -0.000  -0.000  -0.000   0.052   0.000
 -0.000  -1.380  -0.000  -0.000   0.105   0.000   1.590   0.000   0.000  -0.070  -0.000  -0.000  -0.005  -0.000  -0.000   0.000
  0.000  -0.000  -1.623  -0.000   0.000  -0.000   0.000   1.876   0.000  -0.000   0.052   0.002  -0.000   0.027  -0.000   0.000
  0.105  -0.000  -0.000  -1.380   0.000  -0.070   0.000   0.000   1.590  -0.000  -0.000  -0.000  -0.000  -0.000  -0.005   0.000
 -0.000   0.104   0.000   0.000  -1.542   0.000  -0.070  -0.000  -0.000   1.751  -0.000  -0.000   0.052  -0.000   0.000  -0.004
  0.000   0.000  -0.077   0.000   0.000  -0.000   0.000   0.052  -0.000  -0.000   2.283  -0.262   0.000   0.002   0.000   0.000
 -0.000   0.000   0.003   0.000  -0.000  -0.000  -0.000   0.002   0.000  -0.000  -0.262   0.038   0.000   0.000  -0.000   0.000
  0.000   0.006   0.000   0.000  -0.032  -0.000  -0.005  -0.000  -0.000   0.052  -0.000   0.000   0.314  -0.000   0.000  -0.030
  0.000   0.000  -0.052   0.000   0.000  -0.000  -0.000   0.027  -0.000  -0.000   0.002   0.000   0.000   0.321   0.000   0.000
 -0.032   0.000   0.000   0.006  -0.000   0.052  -0.000  -0.000  -0.005   0.000   0.000  -0.000   0.000   0.000   0.314  -0.000
 -0.000   0.003  -0.000   0.000   0.003   0.000   0.000   0.000   0.000  -0.004   0.000  -0.000  -0.030  -0.000  -0.000   0.003
 -0.000  -0.000   0.005   0.000  -0.000   0.000   0.000  -0.000   0.000   0.000   0.001   0.000   0.000  -0.030  -0.000   0.000
  0.003   0.000  -0.000   0.003   0.000  -0.004   0.000   0.000   0.000  -0.000  -0.000   0.000  -0.000  -0.000  -0.030   0.000
 total augmentation occupancy for first ion, spin component:           2
  1.894   0.000  -0.000  -0.127   0.000  -0.938  -0.000   0.000   0.124  -0.000   0.000   0.000  -0.000   0.000   0.015   0.000
  0.000   1.530   0.000   0.000  -0.127  -0.000  -0.651  -0.000  -0.000   0.125  -0.000   0.000  -0.005   0.000  -0.000   0.001
 -0.000   0.000   1.941   0.000  -0.000   0.000  -0.000  -1.002  -0.000   0.000  -0.005  -0.004  -0.000  -0.006  -0.000   0.000
 -0.127   0.000   0.000   1.530  -0.000   0.125  -0.000  -0.000  -0.651   0.000   0.000   0.000  -0.000   0.000  -0.005   0.000
  0.000  -0.127  -0.000  -0.000   1.894  -0.000   0.124   0.000   0.000  -0.938   0.000   0.000   0.015   0.000   0.000  -0.001
 -0.938  -0.000   0.000   0.125  -0.000   0.310   0.000  -0.000  -0.103   0.000  -0.000  -0.000   0.000  -0.000  -0.014  -0.000
 -0.000  -0.651  -0.000  -0.000   0.124   0.000   0.110   0.000   0.000  -0.103  -0.000  -0.000   0.010  -0.000   0.000  -0.000
  0.000  -0.000  -1.002  -0.000   0.000  -0.000   0.000   0.382   0.000  -0.000   0.018   0.007   0.000   0.025   0.000  -0.000
  0.124  -0.000  -0.000  -0.651   0.000  -0.103   0.000   0.000   0.110  -0.000   0.000  -0.000   0.000   0.000   0.010  -0.000
 -0.000   0.125   0.000   0.000  -0.938   0.000  -0.103  -0.000  -0.000   0.310  -0.000  -0.000  -0.014  -0.000  -0.000   0.001
  0.000  -0.000  -0.005   0.000   0.000  -0.000  -0.000   0.018  -0.000  -0.000  -0.219   0.076   0.000   0.022   0.000  -0.000
  0.000   0.000  -0.004   0.000   0.000  -0.000  -0.000   0.007  -0.000  -0.000   0.076  -0.013   0.000   0.003   0.000   0.000
 -0.000  -0.005  -0.000  -0.000   0.015   0.000   0.010   0.000   0.000  -0.014  -0.000  -0.000  -0.020  -0.000  -0.000   0.004
  0.000   0.000  -0.006   0.000   0.000  -0.000  -0.000   0.025  -0.000  -0.000   0.022   0.003  -0.000  -0.009   0.000   0.000
  0.015  -0.000  -0.000  -0.005   0.000  -0.014   0.000   0.000   0.010  -0.000   0.000   0.000  -0.000   0.000  -0.020   0.000
  0.000   0.001   0.000   0.000  -0.001  -0.000  -0.000  -0.000  -0.000   0.001   0.000   0.000   0.004   0.000   0.000  -0.001
  0.000   0.000  -0.000  -0.000   0.000  -0.000  -0.000   0.001   0.000  -0.000   0.000  -0.000   0.000   0.005  -0.000  -0.000
 -0.001   0.000   0.000   0.001  -0.000   0.001  -0.000  -0.000  -0.000   0.000   0.000  -0.000   0.000  -0.000   0.004  -0.000


------------------------ aborting loop because EDIFF is reached ----------------------------------------


 


 total charge     
 
# of ion       s       p       d       tot
------------------------------------------
    1        0.492   0.528   7.261   8.281
    2        0.492   0.528   7.261   8.281
    3        0.492   0.528   7.261   8.281
    4        0.492   0.528   7.261   8.281
--------------------------------------------------
tot          1.967   2.113  29.044  33.123
 


 magnetization (x)
 
# of ion       s       p       d       tot
------------------------------------------
    1       -0.002  -0.016   1.499   1.481
    2       -0.002  -0.016   1.499   1.481
    3        0.002   0.016  -1.499  -1.481
    4        0.002   0.016  -1.499  -1.481
--------------------------------------------------
tot         -0.000  -0.000   0.000   0.000
 
    CHARGE:  cpu time    0.2387: real time    0.2393
    FORLOC:  cpu time    0.0004: real time    0.0004
    FORNL :  cpu time    1.0870: real time    1.0897
    STRESS:  cpu time    1.2825: real time    1.2856
    FORCOR:  cpu time    0.0130: real time    0.0131
    FORHAR:  cpu time    0.0014: real time    0.0014
    MIXING:  cpu time    0.0008: real time    0.0008
    OFIELD:  cpu time    0.0000: real time    0.0000

  FORCE on cell =-STRESS in cart. coord.  units (eV):
  Direction    XX          YY          ZZ          XY          YZ          ZX
  --------------------------------------------------------------------------------------
  Alpha Z   156.93117   156.93117   156.93117
  Ewald   -1022.31209 -1022.31152 -1003.64385     0.00030     0.00000    -0.00000
  Hartree   173.62180   173.62195   179.72899     0.00011    -0.00000     0.00000
  E(xc)    -184.66258  -184.66270  -184.54442    -0.00000    -0.00000    -0.00000
  Local     -32.45542   -32.45512   -51.08615    -0.00041     0.00000    -0.00000
  n-local   -20.21082   -17.27335   -19.49431     1.35464     0.01246     0.00756
  augment   622.40349   622.40266   619.01451     0.00001    -0.00000     0.00000
  Kinetic   306.16940   303.74816   303.11834    -0.99257     0.06824    -0.09123
  Fock        0.00000     0.00000     0.00000     0.00000     0.00000     0.00000
  -------------------------------------------------------------------------------------
  Total      -0.25690    -0.25690     0.02429    -0.00000     0.00000     0.00000
  in kB      -9.53086    -9.53085     0.90097    -0.00000     0.00000     0.00000
  external pressure =       -6.05 kB  Pullay stress =        0.00 kB


 VOLUME and BASIS-vectors are now :
 -----------------------------------------------------------------------------
  energy-cutoff  :      520.00
  volume of cell :       43.19
      direct lattice vectors                 reciprocal lattice vectors
    -1.245908300  2.157976400  0.000000000    -0.401313580  0.231698586  0.000000000
     0.000000000  0.000000000  8.031195600     0.000000000  0.000000000  0.124514462
     1.245908700  2.157976400  0.000000000     0.401313580  0.231698512  0.000000000

  length of vectors
     2.491816533  8.031195600  2.491816733     0.463397048  0.124514462  0.463397011


 FORCES acting on ions
    electron-ion (+dipol)            ewald-force                    non-local-force                 convergence-correction
 -----------------------------------------------------------------------------------------------
   0.764E-04 -.591E-04 -.641E+00   -.752E-04 0.607E-04 0.123E-03   -.434E-17 -.434E-17 -.110E+00   0.133E-07 -.918E-08 0.840E-04
   -.767E-04 0.566E-04 0.641E+00   0.752E-04 -.607E-04 -.123E-03   -.260E-17 -.520E-17 0.110E+00   -.133E-07 0.868E-08 -.840E-04
   0.764E-04 -.591E-04 -.641E+00   -.752E-04 0.607E-04 0.123E-03   -.867E-18 -.260E-17 -.110E+00   0.133E-07 -.918E-08 0.840E-04
   -.767E-04 0.566E-04 0.641E+00   0.752E-04 -.607E-04 -.123E-03   0.867E-18 0.173E-17 0.110E+00   -.133E-07 0.868E-08 -.840E-04
 -----------------------------------------------------------------------------------------------
   -.544E-06 -.495E-05 -.570E-05   -.138E-13 -.121E-13 0.447E-13   -.694E-17 -.104E-16 0.278E-16   -.109E-09 -.993E-09 -.952E-09
 
 
 POSITION                                       TOTAL-FORCE (eV/Angst)
 -----------------------------------------------------------------------------------
      0.00000      2.87730      3.01170        -0.000000      0.000000     -0.751087
     -0.00000      1.43865      1.00390         0.000000     -0.000000      0.751087
      0.00000      2.87730      7.02730        -0.000000      0.000000     -0.751087
     -0.00000      1.43865      5.01950        -0.000000     -0.000000      0.751087
 -----------------------------------------------------------------------------------
    total drift:                               -0.000001     -0.000005     -0.000006


--------------------------------------------------------------------------------------------------------



  FREE ENERGIE OF THE ION-ELECTRON SYSTEM (eV)
  ---------------------------------------------------
  free  energy   TOTEN  =       -27.65700322 eV

  energy  without entropy=      -27.65700322  energy(sigma->0) =      -27.65700322
 


--------------------------------------------------------------------------------------------------------


    POTLOK:  cpu time    0.0198: real time    0.0199


--------------------------------------------------------------------------------------------------------


     LOOP+:  cpu time   77.8820: real time   78.1128
    4ORBIT:  cpu time    0.0000: real time    0.0000
 


 total charge     
 
# of ion       s       p       d       tot
------------------------------------------
    1        0.492   0.528   7.261   8.281
    2        0.492   0.528   7.261   8.281
    3        0.492   0.528   7.261   8.281
    4        0.492   0.528   7.261   8.281
--------------------------------------------------
tot          1.967   2.113  29.044  33.123
 


 magnetization (x)
 
# of ion       s       p       d       tot
------------------------------------------
    1       -0.002  -0.016   1.499   1.481
    2       -0.002  -0.016   1.499   1.481
    3        0.002   0.016  -1.499  -1.481
    4        0.002   0.016  -1.499  -1.481
--------------------------------------------------
tot         -0.000  -0.000   0.000   0.000
 
 BZINTS: Fermi energy: 10.387537; 36.000000 electrons
         Band energy: 283.782791;  BLOECHL correction: -0.087240

 total amount of memory used by VASP MPI-rank0    72187. kBytes
=======================================================================

   base      :      30000. kBytes
   nonl-proj :      11337. kBytes
   fftplans  :        454. kBytes
   grid      :       1038. kBytes
   one-center:         31. kBytes
   wavefun   :      29327. kBytes
 
  
  
 General timing and accounting informations for this job:
 ========================================================
  
                  Total CPU time used (sec):       81.193
                            User time (sec):       80.631
                          System time (sec):        0.562
                         Elapsed time (sec):       82.340
  
                   Maximum memory used (kb):      100468.
                   Average memory used (kb):           0.
  
                          Minor page faults:        26182
                          Major page faults:            0
                 Voluntary context switches:         1359
