=========================================
SLURM_JOB_ID = 31881297
SLURM_JOB_NODELIST = lnode16
SLURM_GPUS = 
SLURM_CPUS_ON_NODE = 8
SLURM_JOB_PARTITION = lenovo
SLURM_TASK_PID = 3127956
CUDA_VISIBLE_DEVICES = 
==========================================
 running on    8 total cores
 distrk:  each k-point on    8 cores,    1 groups
 distr:  one band on    4 cores,    2 groups
 using from now: INCAR     
 vasp.5.4.4.18Apr17-6-g9f103f2a35 (build Apr 28 2018 00:24:27) complex          
  
 POSCAR found type information on POSCAR  Eu O 
 POSCAR found :  2 types and       8 ions
 scaLAPACK will be used
 LDA part: xc-table for Pade appr. of Perdew
 generate k-points for:    5    5    2
 POSCAR, INCAR and KPOINTS ok, starting setup
 FFT: planning ...
 WAVECAR not read
 entering main loop
       N       E                     dE             d eps       ncg     rms          rms(c)
DAV:   1     0.123028689419E+04    0.12303E+04   -0.30595E+04  6864   0.345E+03
DAV:   2     0.318843506780E+03   -0.91144E+03   -0.82710E+03  7808   0.670E+02
DAV:   3    -0.101176483450E+02   -0.32896E+03   -0.31873E+03  8464   0.347E+02
DAV:   4    -0.806211043347E+02   -0.70503E+02   -0.68590E+02 11104   0.142E+02
DAV:   5    -0.888789916320E+02   -0.82579E+01   -0.76060E+01 11200   0.544E+01    0.377E+01
DAV:   6    -0.145331271575E+03   -0.56452E+02   -0.77441E+02  9808   0.218E+02    0.154E+02
DAV:   7    -0.503300675238E+02    0.95001E+02   -0.85920E+02  9168   0.126E+02    0.557E+01
DAV:   8    -0.803882047575E+02   -0.30058E+02   -0.27769E+02 10248   0.737E+01    0.317E+01
DAV:   9    -0.825708812899E+02   -0.21827E+01   -0.28135E+01  9096   0.323E+01    0.166E+01
DAV:  10    -0.832492502082E+02   -0.67837E+00   -0.33282E+00 11544   0.116E+01    0.134E+01
DAV:  11    -0.832155580363E+02    0.33692E-01   -0.38444E-01 10976   0.475E+00    0.119E+01
DAV:  12    -0.833212994715E+02   -0.10574E+00   -0.84035E-01 10120   0.733E+00    0.815E+00
DAV:  13    -0.833774938091E+02   -0.56194E-01   -0.22302E-01 11424   0.285E+00    0.726E+00
DAV:  14    -0.833886336545E+02   -0.11140E-01   -0.26739E-02 10200   0.139E+00    0.681E+00
DAV:  15    -0.834247620813E+02   -0.36128E-01   -0.11242E-01  9960   0.334E+00    0.489E+00
DAV:  16    -0.833893399470E+02    0.35422E-01   -0.10774E-01 10440   0.269E+00    0.477E+00
DAV:  17    -0.833193190260E+02    0.70021E-01   -0.92824E-02 10184   0.262E+00    0.424E+00
DAV:  18    -0.833395830973E+02   -0.20264E-01   -0.99768E-02 10176   0.235E+00    0.218E+00
DAV:  19    -0.833484075078E+02   -0.88244E-02   -0.26118E-02 11384   0.936E-01    0.123E+00
DAV:  20    -0.833506439950E+02   -0.22365E-02   -0.74746E-03 10936   0.667E-01    0.506E-01
DAV:  21    -0.833511643839E+02   -0.52039E-03   -0.40068E-03 11160   0.411E-01    0.220E-01
DAV:  22    -0.833511829855E+02   -0.18602E-04   -0.69483E-04 10752   0.215E-01    0.934E-02
DAV:  23    -0.833511846756E+02   -0.16900E-05   -0.20875E-04 10328   0.108E-01    0.348E-02
DAV:  24    -0.833511891433E+02   -0.44677E-05   -0.66286E-05 11024   0.562E-02    0.212E-02
DAV:  25    -0.833511870529E+02    0.20904E-05   -0.14636E-05  9304   0.257E-02    0.155E-02
DAV:  26    -0.833511858760E+02    0.11769E-05   -0.33562E-06  6352   0.148E-02    0.109E-02
DAV:  27    -0.833511859471E+02   -0.71141E-07   -0.33068E-06  5256   0.155E-02
   1 F= -.83351186E+02 E0= -.83356159E+02  d E =0.149192E-01  mag=     0.0000
