       N       E                     dE             d eps       ncg     rms          rms(c)
DAV:   1     0.530883591591E+04    0.53088E+04   -0.18089E+05 10080   0.187E+03
DAV:   2     0.417257152726E+03   -0.48916E+04   -0.46241E+04  8816   0.639E+02
DAV:   3    -0.169251883575E+03   -0.58651E+03   -0.54343E+03  9448   0.235E+02
DAV:   4    -0.201926569888E+03   -0.32675E+02   -0.31715E+02  9880   0.511E+01
DAV:   5    -0.202665892760E+03   -0.73932E+00   -0.73379E+00  9600   0.857E+00    0.610E+01
DAV:   6    -0.182913894616E+03    0.19752E+02   -0.26477E+02 11308   0.787E+01    0.703E+01
DAV:   7    -0.167303116625E+03    0.15611E+02   -0.58143E+01 10624   0.509E+01    0.294E+01
DAV:   8    -0.167600666339E+03   -0.29755E+00   -0.10246E+01  9576   0.723E+00    0.146E+01
DAV:   9    -0.167542300753E+03    0.58366E-01   -0.22019E-01 10328   0.217E+00    0.254E+00
DAV:  10    -0.167541076209E+03    0.12245E-02   -0.11010E-01  9680   0.142E+00    0.121E+00
DAV:  11    -0.167542395175E+03   -0.13190E-02   -0.82361E-03 11288   0.383E-01    0.831E-01
DAV:  12    -0.167544832833E+03   -0.24377E-02   -0.86082E-03 11440   0.430E-01    0.347E-01
DAV:  13    -0.167547788003E+03   -0.29552E-02   -0.15520E-03 10272   0.121E-01    0.200E-01
DAV:  14    -0.167548591344E+03   -0.80334E-03   -0.60115E-04 10792   0.106E-01    0.765E-02
DAV:  15    -0.167548703483E+03   -0.11214E-03   -0.14302E-04 10592   0.416E-02    0.392E-02
DAV:  16    -0.167548730071E+03   -0.26588E-04   -0.31631E-05 10824   0.262E-02    0.128E-02
DAV:  17    -0.167548738740E+03   -0.86688E-05   -0.74906E-06  7768   0.101E-02    0.367E-03
DAV:  18    -0.167548738895E+03   -0.15519E-06   -0.37366E-07  5120   0.287E-03
   1 F= -.16754874E+03 E0= -.16731021E+03  d E =-.477048E+00  mag=    12.0484
