=========================================
SLURM_JOB_ID = 37466381
SLURM_JOB_NODELIST = lnode32
SLURM_GPUS = 
SLURM_CPUS_ON_NODE = 8
SLURM_JOB_PARTITION = lenovo
SLURM_TASK_PID = 2006656
CUDA_VISIBLE_DEVICES = 
==========================================
 running on    8 total cores
 distrk:  each k-point on    8 cores,    1 groups
 distr:  one band on    4 cores,    2 groups
 using from now: INCAR     
 vasp.5.4.4.18Apr17-6-g9f103f2a35 (build Apr 28 2018 00:24:27) complex          
  
 POSCAR found type information on POSCAR  Eu O 
 POSCAR found :  2 types and       4 ions
 scaLAPACK will be used

 ----------------------------------------------------------------------------- 
|                                                                             |
|  ADVICE TO THIS USER RUNNING 'VASP/VAMP'   (HEAR YOUR MASTER'S VOICE ...):  |
|                                                                             |
|      You have a (more or less) 'small supercell' and for smaller cells      |
|      it is recommended  to use the reciprocal-space projection scheme!      |
|      The real space optimization is not  efficient for small cells and it   |
|      is also less accurate ...                                              |
|      Therefore set LREAL=.FALSE. in the  INCAR file                         |
|                                                                             |
 ----------------------------------------------------------------------------- 

 LDA part: xc-table for Pade appr. of Perdew
 POSCAR, INCAR and KPOINTS ok, starting setup
 FFT: planning ...
 WAVECAR not read
 entering main loop
       N       E                     dE             d eps       ncg     rms          rms(c)
DAV:   1     0.455616444845E+03    0.45562E+03   -0.18435E+04 67064   0.357E+03
DAV:   2     0.517400820946E+02   -0.40388E+03   -0.37783E+03 80972   0.433E+02
DAV:   3    -0.335147510019E+02   -0.85255E+02   -0.83368E+02 94348   0.269E+02
DAV:   4    -0.406131273071E+02   -0.70984E+01   -0.68321E+01100268   0.668E+01
DAV:   5    -0.412891761954E+02   -0.67605E+00   -0.64867E+00103168   0.177E+01    0.264E+01
RMM:   6    -0.502033824666E+02   -0.89142E+01   -0.12137E+02 80337   0.111E+02    0.476E+01
RMM:   7    -0.421831690927E+02    0.80202E+01   -0.57956E+01 64070   0.116E+02    0.185E+01
RMM:   8    -0.415480691973E+02    0.63510E+00   -0.12575E+01 72661   0.386E+01    0.648E+00
RMM:   9    -0.416562908802E+02   -0.10822E+00   -0.68669E+00 74312   0.243E+01    0.432E+00
RMM:  10    -0.416457227309E+02    0.10568E-01   -0.61595E-01 79598   0.915E+00    0.350E+00
RMM:  11    -0.416191138476E+02    0.26609E-01   -0.22807E-01 84203   0.427E+00    0.242E+00
RMM:  12    -0.416182022668E+02    0.91158E-03   -0.93561E-02 81146   0.302E+00    0.167E+00
RMM:  13    -0.416180002911E+02    0.20198E-03   -0.76551E-02 86789   0.220E+00    0.131E+00
RMM:  14    -0.416162807219E+02    0.17196E-02   -0.28393E-02 88668   0.118E+00    0.638E-01
RMM:  15    -0.416169296859E+02   -0.64896E-03   -0.16721E-02 82145   0.115E+00    0.579E-01
RMM:  16    -0.416175283648E+02   -0.59868E-03   -0.10235E-02 72495   0.717E-01    0.350E-01
RMM:  17    -0.416180133535E+02   -0.48499E-03   -0.60836E-03 67392   0.514E-01    0.253E-01
RMM:  18    -0.416184451964E+02   -0.43184E-03   -0.47816E-03 68082   0.490E-01    0.248E-01
WARNING in EDDRMM: call to ZHEGV failed, returncode =   6  3     12
RMM:  19    -0.416186701648E+02   -0.22497E-03   -0.30159E-03 57615   0.449E-01    0.184E-01
WARNING in EDDRMM: call to ZHEGV failed, returncode =   6  3     11
RMM:  20    -0.416188009764E+02   -0.13081E-03   -0.22642E-03 50232   0.431E-01    0.595E-02
RMM:  21    -0.416189827532E+02   -0.18178E-03   -0.17945E-03 46566   0.397E-01    0.414E-02
WARNING in EDDRMM: call to ZHEGV failed, returncode =   6  3     12
RMM:  22    -0.416191282463E+02   -0.14549E-03   -0.14177E-03 44325   0.381E-01    0.628E-02
RMM:  23    -0.416192349921E+02   -0.10675E-03   -0.11727E-03 44307   0.353E-01    0.377E-02
RMM:  24    -0.416193220811E+02   -0.87089E-04   -0.92462E-04 43492   0.330E-01
   1 F= -.41619322E+02 E0= -.41619218E+02  d E =-.416193E+02  mag=    -0.0005
 curvature:   0.00 expect dE= 0.000E+00 dE for cont linesearch  0.000E+00
 trial: gam= 0.00000 g(F)=  0.303E-06 g(S)=  0.663E-03 ort = 0.000E+00 (trialstep = 0.100E+01)
 search vector abs. value=  0.664E-03
 bond charge predicted
       N       E                     dE             d eps       ncg     rms          rms(c)
DAV:   1    -0.416203413862E+02   -0.11064E-02   -0.72103E-02 60936   0.897E+00    0.249E-01
RMM:   2    -0.416204270544E+02   -0.85668E-04   -0.12465E-02 77302   0.140E+00    0.226E-01
RMM:   3    -0.416219933556E+02   -0.15663E-02   -0.38063E-03 70140   0.723E-01    0.612E-01
RMM:   4    -0.416201784257E+02    0.18149E-02   -0.95187E-04 53130   0.525E-01    0.232E-01
RMM:   5    -0.416203484293E+02   -0.17000E-03   -0.72634E-04 50574   0.432E-01    0.275E-01
RMM:   6    -0.416202002142E+02    0.14822E-03   -0.34060E-04 41686   0.397E-01    0.797E-02
WARNING in EDDRMM: call to ZHEGV failed, returncode =   8  4      9
RMM:   7    -0.416202562775E+02   -0.56063E-04   -0.20142E-04 38101   0.315E-01
   2 F= -.41620256E+02 E0= -.41620149E+02  d E =-.934196E-03  mag=    -0.0012
 trial-energy change:   -0.000934  1 .order   -0.000529   -0.000664   -0.000394
 step:   2.4660(harm=  2.4660)  dis= 0.00016  next Energy=   -41.620140 (dE=-0.818E-03)
 bond charge predicted
       N       E                     dE             d eps       ncg     rms          rms(c)
DAV:   1    -0.416211045166E+02   -0.90430E-03   -0.15698E-01 58904   0.131E+01    0.368E-01
RMM:   2    -0.416229313300E+02   -0.18268E-02   -0.25992E-02 78692   0.204E+00    0.679E-01
RMM:   3    -0.416216064563E+02    0.13249E-02   -0.68392E-03 72631   0.952E-01    0.475E-01
RMM:   4    -0.416205722389E+02    0.10342E-02   -0.13668E-03 60363   0.611E-01    0.109E-01
RMM:   5    -0.416206241468E+02   -0.51908E-04   -0.75147E-04 48829   0.486E-01
   3 F= -.41620624E+02 E0= -.41620516E+02  d E =-.130207E-02  mag=    -0.0007
 curvature:  -1.23 expect dE=-0.386E-04 dE for cont linesearch -0.380E-04
 ZBRENT: increasing intervall
 opt :   5.3980  next Energy=   -41.620306 (dE=-0.984E-03)
 bond charge predicted
       N       E                     dE             d eps       ncg     rms          rms(c)
DAV:   1    -0.416223915589E+02   -0.18193E-02   -0.64305E-01 63280   0.262E+01    0.719E-01
RMM:   2    -0.416227416421E+02   -0.35008E-03   -0.96020E-02 79363   0.392E+00    0.679E-01
RMM:   3    -0.416300002151E+02   -0.72586E-02   -0.27745E-02 77534   0.180E+00    0.137E+00
RMM:   4    -0.416200241663E+02    0.99760E-02   -0.69460E-03 70682   0.131E+00    0.495E-01
RMM:   5    -0.416204727511E+02   -0.44858E-03   -0.46761E-03 71527   0.952E-01    0.499E-01
RMM:   6    -0.416199591044E+02    0.51365E-03   -0.13118E-03 54314   0.546E-01    0.236E-01
RMM:   7    -0.416200046757E+02   -0.45571E-04   -0.42606E-04 45268   0.373E-01
   4 F= -.41620005E+02 E0= -.41619885E+02  d E =-.682595E-03  mag=    -0.0010
 curvature:  10.33 expect dE= 0.247E-02 dE for cont linesearch  0.241E-02
 ZBRENT: bracketing found
 ZBRENT: interpolating
 opt :   3.2479  next Energy=   -41.620680 (dE=-0.136E-02)
 bond charge predicted
       N       E                     dE             d eps       ncg     rms          rms(c)
DAV:   1    -0.416225409194E+02   -0.25818E-02   -0.35579E-01 61888   0.192E+01    0.548E-01
RMM:   2    -0.416243100209E+02   -0.17691E-02   -0.51527E-02 76505   0.300E+00    0.820E-01
RMM:   3    -0.416235752614E+02    0.73476E-03   -0.14158E-02 73181   0.132E+00    0.680E-01
RMM:   4    -0.416206669517E+02    0.29083E-02   -0.29098E-03 68561   0.842E-01    0.259E-01
RMM:   5    -0.416208333274E+02   -0.16638E-03   -0.14551E-03 57867   0.639E-01    0.307E-01
RMM:   6    -0.416206284149E+02    0.20491E-03   -0.57279E-04 44790   0.482E-01    0.608E-02
RMM:   7    -0.416206858335E+02   -0.57419E-04   -0.16207E-04 35729   0.331E-01
   5 F= -.41620686E+02 E0= -.41620579E+02  d E =-.136375E-02  mag=     0.0004
 curvature:  -0.24 expect dE=-0.168E-04 dE for cont linesearch -0.166E-04
 ZBRENT: interpolating
 opt :   2.7791  next Energy=   -41.620647 (dE=-0.132E-02)
 bond charge predicted
       N       E                     dE             d eps       ncg     rms          rms(c)
DAV:   1    -0.416207210296E+02   -0.92615E-04   -0.16106E-02 63452   0.422E+00    0.116E-01
RMM:   2    -0.416210042966E+02   -0.28327E-03   -0.25554E-03 64886   0.663E-01    0.352E-01
RMM:   3    -0.416207132826E+02    0.29101E-03   -0.63573E-04 47059   0.431E-01    0.109E-01
RMM:   4    -0.416207179416E+02   -0.46590E-05   -0.17127E-04 34870   0.327E-01
   6 F= -.41620718E+02 E0= -.41620609E+02  d E =-.139586E-02  mag=    -0.0009
 curvature:  -0.32 expect dE=-0.309E-04 dE for cont linesearch -0.303E-04
 ZBRENT: interpolating
 opt :   2.5802  next Energy=   -41.620632 (dE=-0.131E-02)
 bond charge predicted
       N       E                     dE             d eps       ncg     rms          rms(c)
DAV:   1    -0.416207027932E+02    0.10489E-04   -0.30879E-03 79764   0.175E+00    0.592E-02
RMM:   2    -0.416211578728E+02   -0.45508E-03   -0.50495E-04 45703   0.325E-01    0.428E-01
RMM:   3    -0.416206364986E+02    0.52137E-03   -0.15923E-04 35916   0.330E-01    0.838E-02
RMM:   4    -0.416207445152E+02   -0.10802E-03   -0.63088E-05 33056   0.300E-01    0.149E-01
RMM:   5    -0.416206929314E+02    0.51584E-04   -0.26415E-05 32193   0.300E-01
   7 F= -.41620693E+02 E0= -.41620587E+02  d E =-.137085E-02  mag=     0.0004
 curvature:  -0.09 expect dE=-0.353E-05 dE for cont linesearch -0.346E-05
 ZBRENT: interpolating
 opt :   2.5195  next Energy=   -41.620628 (dE=-0.131E-02)
 bond charge predicted
       N       E                     dE             d eps       ncg     rms          rms(c)
DAV:   1    -0.416207091835E+02    0.35332E-04   -0.31655E-04 58056   0.537E-01    0.425E-02
RMM:   2    -0.416213012886E+02   -0.59211E-03   -0.23109E-04 38479   0.219E-01    0.469E-01
RMM:   3    -0.416206432232E+02    0.65807E-03   -0.12565E-04 35637   0.252E-01    0.119E-01
RMM:   4    -0.416207042915E+02   -0.61068E-04   -0.19962E-05 31217   0.202E-01
   8 F= -.41620704E+02 E0= -.41620597E+02  d E =-.138221E-02  mag=     0.0005
 curvature:  -0.10 expect dE=-0.695E-05 dE for cont linesearch -0.691E-05
 ZBRENT: interpolating
 opt :   2.5543  next Energy=   -41.620695 (dE=-0.137E-02)
 bond charge predicted
       N       E                     dE             d eps       ncg     rms          rms(c)
DAV:   1    -0.416207211196E+02   -0.77896E-04   -0.86542E-05 39488   0.384E-01    0.566E-02
RMM:   2    -0.416217943616E+02   -0.10732E-02   -0.36368E-04 40442   0.257E-01    0.547E-01
RMM:   3    -0.416206607286E+02    0.11336E-02   -0.20387E-04 38187   0.296E-01    0.168E-01
RMM:   4    -0.416206907220E+02   -0.29993E-04   -0.16822E-05 31506   0.220E-01
   9 F= -.41620691E+02 E0= -.41620585E+02  d E =-.136864E-02  mag=     0.0004
 curvature:  -0.03 expect dE=-0.221E-06 dE for cont linesearch -0.209E-06
 trial: gam= 0.00000 g(F)=  0.571E-07 g(S)=  0.748E-05 ort =-0.688E-04 (trialstep = 0.131E+01)
 search vector abs. value=  0.754E-05
 reached required accuracy - stopping structural energy minimisation
