       N       E                     dE             d eps       ncg     rms          rms(c)
DAV:   1     0.912288540689E+02    0.91229E+02   -0.93100E+03  4320   0.194E+03
DAV:   2    -0.137621130593E+02   -0.10499E+03   -0.98275E+02  4262   0.290E+02
DAV:   3    -0.161928181377E+02   -0.24307E+01   -0.23538E+01  4796   0.643E+01
DAV:   4    -0.162268641505E+02   -0.34046E-01   -0.34053E-01  6080   0.596E+00
DAV:   5    -0.162272579724E+02   -0.39382E-03   -0.39429E-03  4952   0.592E-01    0.145E+01
DAV:   6    -0.142632622395E+02    0.19640E+01   -0.16531E+01  4466   0.842E+01    0.796E+00
DAV:   7    -0.139287985550E+02    0.33446E+00   -0.22985E+00  4676   0.300E+01    0.482E+00
DAV:   8    -0.140784245808E+02   -0.14963E+00   -0.15177E-01  5768   0.640E+00    0.217E+00
DAV:   9    -0.140355025900E+02    0.42922E-01   -0.34606E-02  6170   0.281E+00    0.237E+00
DAV:  10    -0.140252776962E+02    0.10225E-01   -0.95863E-04  6050   0.451E-01    0.266E+00
DAV:  11    -0.140699980923E+02   -0.44720E-01   -0.32500E-02  5294   0.304E+00    0.424E-01
DAV:  12    -0.140704450763E+02   -0.44698E-03   -0.99549E-04  6094   0.389E-01    0.152E-01
DAV:  13    -0.140702427360E+02    0.20234E-03   -0.16272E-04  5682   0.209E-01    0.867E-03
DAV:  14    -0.140702302380E+02    0.12498E-04   -0.63076E-06  4832   0.285E-02    0.844E-03
DAV:  15    -0.140702367205E+02   -0.64825E-05   -0.31661E-07  4784   0.723E-03    0.448E-03
DAV:  16    -0.140702448743E+02   -0.81538E-05   -0.18768E-07  3076   0.654E-03    0.500E-04
DAV:  17    -0.140702441382E+02    0.73611E-06   -0.11237E-08  2290   0.143E-03    0.362E-04
DAV:  18    -0.140702450289E+02   -0.89071E-06   -0.28979E-09  2260   0.797E-04    0.666E-05
DAV:  19    -0.140702450093E+02    0.19618E-07   -0.82634E-10  2200   0.300E-04
   1 F= -.14070245E+02 E0= -.14070245E+02  d E =0.000000E+00  mag=     3.1560
