       N       E                     dE             d eps       ncg     rms          rms(c)
DAV:   1     0.758461183329E+03    0.75846E+03   -0.20475E+04  9992   0.207E+03
DAV:   2     0.153693643521E+03   -0.60477E+03   -0.47432E+03 10368   0.326E+02
DAV:   3    -0.819996089122E+01   -0.16189E+03   -0.15587E+03  9096   0.183E+02
DAV:   4    -0.276887720517E+02   -0.19489E+02   -0.18413E+02 12952   0.571E+01
DAV:   5    -0.295718987186E+02   -0.18831E+01   -0.18315E+01 15692   0.188E+01    0.224E+01
DAV:   6    -0.442369523414E+02   -0.14665E+02   -0.57184E+01 10656   0.700E+01    0.302E+01
DAV:   7    -0.426239424353E+02    0.16130E+01   -0.87690E+00 10984   0.183E+01    0.108E+01
DAV:   8    -0.410279504427E+02    0.15960E+01   -0.33297E+00 11800   0.139E+01    0.343E+00
DAV:   9    -0.410817192936E+02   -0.53769E-01   -0.16957E+00 11876   0.104E+01    0.390E+00
DAV:  10    -0.410556686664E+02    0.26051E-01   -0.31643E-01 13168   0.380E+00    0.127E+00
DAV:  11    -0.411204541971E+02   -0.64786E-01   -0.52692E-02 14920   0.116E+00    0.634E-01
DAV:  12    -0.411565081083E+02   -0.36054E-01   -0.38696E-02 11784   0.945E-01    0.572E-01
DAV:  13    -0.411574107142E+02   -0.90261E-03   -0.14597E-02 12424   0.718E-01    0.181E-01
DAV:  14    -0.411557946602E+02    0.16161E-02   -0.12245E-02 12816   0.345E-01    0.140E-01
DAV:  15    -0.411553780708E+02    0.41659E-03   -0.12695E-03 13944   0.155E-01    0.122E-01
DAV:  16    -0.411549766335E+02    0.40144E-03   -0.82385E-04 13628   0.201E-01    0.402E-02
DAV:  17    -0.411553671446E+02   -0.39051E-03   -0.18419E-04 13692   0.650E-02    0.939E-03
DAV:  18    -0.411554838360E+02   -0.11669E-03   -0.33185E-05 14948   0.271E-02    0.349E-03
DAV:  19    -0.411554621355E+02    0.21700E-04   -0.55552E-06 13444   0.823E-03    0.179E-03
DAV:  20    -0.411554725030E+02   -0.10367E-04   -0.11158E-06 10680   0.324E-03    0.112E-03
DAV:  21    -0.411554674731E+02    0.50299E-05   -0.11220E-07  7248   0.196E-03    0.920E-04
DAV:  22    -0.411554634820E+02    0.39911E-05   -0.43411E-08  4952   0.185E-03    0.280E-04
DAV:  23    -0.411554627188E+02    0.76323E-06   -0.17860E-08  4848   0.732E-04    0.253E-04
DAV:  24    -0.411554627748E+02   -0.55994E-07   -0.10675E-08  4764   0.923E-04
   1 F= -.41155463E+02 E0= -.41155463E+02  d E =0.000000E+00  mag=    29.7443
