       N       E                     dE             d eps       ncg     rms          rms(c)
DAV:   1     0.267083547904E+03    0.26708E+03   -0.24152E+04110916   0.264E+03
DAV:   2    -0.821690276308E+01   -0.27530E+03   -0.26399E+03111984   0.486E+02
DAV:   3    -0.162013777042E+02   -0.79845E+01   -0.79674E+01119316   0.888E+01
DAV:   4    -0.162717148787E+02   -0.70337E-01   -0.70334E-01128868   0.797E+00
DAV:   5    -0.162730182877E+02   -0.13034E-02   -0.13034E-02119796   0.102E+00    0.249E+01
DAV:   6    -0.164619178230E+02   -0.18890E+00   -0.74526E+00111384   0.398E+01    0.686E+00
DAV:   7    -0.165141297034E+02   -0.52212E-01   -0.61936E-01112092   0.991E+00    0.433E+00
DAV:   8    -0.165241167143E+02   -0.99870E-02   -0.14756E-02125424   0.148E+00    0.137E+00
DAV:   9    -0.165157944053E+02    0.83223E-02   -0.52122E-03120216   0.889E-01    0.349E-01
DAV:  10    -0.165154256798E+02    0.36873E-03   -0.22191E-03113664   0.615E-01    0.444E-02
DAV:  11    -0.165154714009E+02   -0.45721E-04   -0.54575E-05118212   0.699E-02    0.251E-02
DAV:  12    -0.165154698445E+02    0.15564E-05   -0.46621E-06127812   0.231E-02    0.994E-03
DAV:  13    -0.165154706509E+02   -0.80640E-06   -0.18846E-06116652   0.141E-02    0.147E-03
DAV:  14    -0.165154709485E+02   -0.29754E-06   -0.10029E-07107640   0.266E-03    0.592E-04
DAV:  15    -0.165154709147E+02    0.33764E-07   -0.93340E-09 59004   0.111E-03
   1 F= -.16515471E+02 E0= -.16515471E+02  d E =0.000000E+00  mag=     4.4316
