 vasp.5.4.4.18Apr17-6-g9f103f2a35 (build Apr 28 2018 00:24:27) complex          
  
 executed on             LinuxIFC date 2021.09.07  01:12:14
 running on   24 total cores
 distrk:  each k-point on   24 cores,    1 groups
 distr:  one band on NCORES_PER_BAND=   4 cores,    6 groups


--------------------------------------------------------------------------------------------------------


 INCAR:
 POTCAR:    PAW_PBE Fe_pv 02Aug2007               
 POTCAR:    PAW_PBE Fe_pv 02Aug2007               
   VRHFIN =Fe:  3pd7s1                                                          
   LEXCH  = PE                                                                  
   EATOM  =  2457.4239 eV,  180.6156 Ry                                         
                                                                                
   TITEL  = PAW_PBE Fe_pv 02Aug2007                                             
   LULTRA =        F    use ultrasoft PP ?                                      
   IUNSCR =        1    unscreen: 0-lin 1-nonlin 2-no                           
   RPACOR =    1.750    partial core radius                                     
   POMASS =   55.847; ZVAL   =   14.000    mass and valenz                      
   RCORE  =    2.200    outmost cutoff radius                                   
   RWIGS  =    2.200; RWIGS  =    1.164    wigner-seitz radius (au A)           
   ENMAX  =  293.238; ENMIN  =  219.928 eV                                      
   ICORE  =        3    local potential                                         
   LCOR   =        T    correct aug charges                                     
   LPAW   =        T    paw PP                                                  
   EAUG   =  578.342                                                            
   DEXC   =    0.000                                                            
   RMAX   =    2.249    core radius for proj-oper                               
   RAUG   =    1.300    factor for augmentation sphere                          
   RDEP   =    2.296    radius for radial grids                                 
   RDEPT  =    1.766    core radius for aug-charge                              
                                                                                
   Atomic configuration                                                         
    8 entries                                                                   
     n  l   j            E        occ.                                          
     1  0  0.50     -6993.8440   2.0000                                         
     2  0  0.50      -814.6047   2.0000                                         
     2  1  1.50      -693.3689   6.0000                                         
     3  0  0.50       -89.4732   2.0000                                         
     3  1  1.50       -55.6373   6.0000                                         
     3  2  2.50        -3.8151   7.0000                                         
     4  0  0.50        -4.2551   1.0000                                         
     4  3  2.50        -1.3606   0.0000                                         
   Description                                                                  
     l       E           TYP  RCUT    TYP  RCUT                                 
     1    -55.6372668     23  2.000                                             
     1     -5.4423304     23  2.000                                             
     2     -3.8151096     23  2.200                                             
     2     -5.1756922     23  2.200                                             
     0     -4.2550951     23  2.200                                             
     0     27.2116520     23  2.200                                             
     3     -1.3605826     23  2.200                                             
  local pseudopotential read in
  partial core-charges read in
  partial kinetic energy density read in
  atomic valenz-charges read in
  non local Contribution for L=           1  read in
    real space projection operators read in
  non local Contribution for L=           1  read in
    real space projection operators read in
  non local Contribution for L=           2  read in
    real space projection operators read in
  non local Contribution for L=           2  read in
    real space projection operators read in
  non local Contribution for L=           0  read in
    real space projection operators read in
  non local Contribution for L=           0  read in
    real space projection operators read in
    PAW grid and wavefunctions read in
 
   number of l-projection  operators is LMAX  =           6
   number of lm-projection operators is LMMAX =          18
 

 ----------------------------------------------------------------------------- 
|                                                                             |
|  ADVICE TO THIS USER RUNNING 'VASP/VAMP'   (HEAR YOUR MASTER'S VOICE ...):  |
|                                                                             |
|      You have a (more or less) 'small supercell' and for smaller cells      |
|      it is recommended  to use the reciprocal-space projection scheme!      |
|      The real space optimization is not  efficient for small cells and it   |
|      is also less accurate ...                                              |
|      Therefore set LREAL=.FALSE. in the  INCAR file                         |
|                                                                             |
 ----------------------------------------------------------------------------- 

 Optimization of the real space projectors (new method)

 maximal supplied QI-value         = 17.01
 optimisation between [QCUT,QGAM] = [ 15.48, 30.95] = [ 67.08,268.30] Ry 
 Optimized for a Real-space Cutoff    1.26 Angstroem

   l    n(q)    QCUT    max X(q) W(low)/X(q) W(high)/X(q)  e(spline) 
   1     11    15.477     4.267    0.90E-04    0.14E-03    0.59E-06
   1     11    15.477     5.750    0.14E-03    0.21E-03    0.81E-06
   2     11    15.477    53.656    0.97E-04    0.12E-03    0.26E-06
   2     11    15.477    49.521    0.10E-03    0.12E-03    0.27E-06
   0     12    15.477    31.246    0.35E-04    0.34E-04    0.27E-06
   0     12    15.477    12.201    0.29E-04    0.28E-04    0.22E-06
  PAW_PBE Fe_pv 02Aug2007               :
 energy of atom  1       EATOM=-2457.4239
 kinetic energy error for atom=    0.0010 (will be added to EATOM!!)
 
 
 POSCAR: Fe2                                     
  positions in direct lattice
  No initial velocities read in
 exchange correlation table for  LEXCH =        8
   RHO(1)=    0.500       N(1)  =     2000
   RHO(2)=  100.500       N(2)  =     4000
 


--------------------------------------------------------------------------------------------------------


 ion  position               nearest neighbor table
   1  0.000  0.000  0.000-   2 2.46   2 2.46   2 2.46   2 2.46   2 2.46   2 2.46   2 2.46   2 2.46

   2  0.500  0.500  0.500-   1 2.46   1 2.46   1 2.46   1 2.46   1 2.46   1 2.46   1 2.46   1 2.46

 
  LATTYP: Found a simple cubic cell.
 ALAT       =     2.8400520000
  
  Lattice vectors:
  
 A1 = (   2.8400520000,   0.0000000000,   0.0000000000)
 A2 = (   0.0000000000,   2.8400520000,   0.0000000000)
 A3 = (   0.0000000000,   0.0000000000,   2.8400520000)


Analysis of symmetry for initial positions (statically):
=====================================================================
 Subroutine PRICEL returns following result:
 
  LATTYP: Found a body centered cubic cell.
 ALAT       =     2.8400520000
  
  Lattice vectors:
  
 A1 = (   1.4200260000,   1.4200260000,   1.4200260000)
 A2 = (   1.4200260000,  -1.4200260000,  -1.4200260000)
 A3 = (  -1.4200260000,   1.4200260000,  -1.4200260000)
 
   2 primitive cells build up your supercell.
 

 Routine SETGRP: Setting up the symmetry group for a 
 simple cubic supercell.


 Subroutine GETGRP returns: Found 48 space group operations
 (whereof 48 operations were pure point group operations)
 out of a pool of 48 trial point group operations.


The static configuration has the point symmetry O_h .


Analysis of symmetry for dynamics (positions and initial velocities):
=====================================================================
 Subroutine PRICEL returns following result:
 
  LATTYP: Found a body centered cubic cell.
 ALAT       =     2.8400520000
  
  Lattice vectors:
  
 A1 = (   1.4200260000,   1.4200260000,   1.4200260000)
 A2 = (   1.4200260000,  -1.4200260000,  -1.4200260000)
 A3 = (  -1.4200260000,   1.4200260000,  -1.4200260000)
 
   2 primitive cells build up your supercell.
 

 Routine SETGRP: Setting up the symmetry group for a 
 simple cubic supercell.


 Subroutine GETGRP returns: Found 48 space group operations
 (whereof 48 operations were pure point group operations)
 out of a pool of 48 trial point group operations.


The dynamic configuration has the point symmetry O_h .


Analysis of structural, dynamic, and magnetic symmetry:
=====================================================================
 Subroutine PRICEL returns following result:
 
  LATTYP: Found a body centered cubic cell.
 ALAT       =     2.8400520000
  
  Lattice vectors:
  
 A1 = (   1.4200260000,   1.4200260000,   1.4200260000)
 A2 = (   1.4200260000,  -1.4200260000,  -1.4200260000)
 A3 = (  -1.4200260000,   1.4200260000,  -1.4200260000)
 
   2 primitive cells build up your supercell.
 

 Routine SETGRP: Setting up the symmetry group for a 
 simple cubic supercell.


 Subroutine GETGRP returns: Found 48 space group operations
 (whereof 48 operations were pure point group operations)
 out of a pool of 48 trial point group operations.


The magnetic configuration has the point symmetry O_h .


 Subroutine INISYM returns: Found 48 space group operations
 (whereof 48 operations are pure point group operations),
 and found     2 'primitive' translations

 
 
 KPOINTS: Automatic mesh                          

Automatic generation of k-mesh.
 generate k-points for:   35   35   35
Space group operators:
 irot       det(A)        alpha          n_x          n_y          n_z        tau_x        tau_y        tau_z
    1     1.000000     0.000000     1.000000     0.000000     0.000000     0.000000     0.000000     0.000000
    2    -1.000000     0.000000     1.000000     0.000000     0.000000     0.000000     0.000000     0.000000
    3     1.000000   120.000000    -0.577350    -0.577350    -0.577350     0.000000     0.000000     0.000000
    4    -1.000000   120.000000    -0.577350    -0.577350    -0.577350     0.000000     0.000000     0.000000
    5     1.000000   120.000000     0.577350     0.577350     0.577350     0.000000     0.000000     0.000000
    6    -1.000000   120.000000     0.577350     0.577350     0.577350     0.000000     0.000000     0.000000
    7     1.000000    90.000000     0.000000     0.000000    -1.000000     0.000000     0.000000     0.000000
    8    -1.000000    90.000000     0.000000     0.000000    -1.000000     0.000000     0.000000     0.000000
    9     1.000000   180.000000     0.000000     0.707107     0.707107     0.000000     0.000000     0.000000
   10    -1.000000   180.000000     0.000000     0.707107     0.707107     0.000000     0.000000     0.000000
   11     1.000000    90.000000     0.000000     1.000000     0.000000     0.000000     0.000000     0.000000
   12    -1.000000    90.000000     0.000000     1.000000     0.000000     0.000000     0.000000     0.000000
   13     1.000000   180.000000     0.000000     0.000000     1.000000     0.000000     0.000000     0.000000
   14    -1.000000   180.000000     0.000000     0.000000     1.000000     0.000000     0.000000     0.000000
   15     1.000000   120.000000    -0.577350     0.577350     0.577350     0.000000     0.000000     0.000000
   16    -1.000000   120.000000    -0.577350     0.577350     0.577350     0.000000     0.000000     0.000000
   17     1.000000   120.000000    -0.577350     0.577350    -0.577350     0.000000     0.000000     0.000000
   18    -1.000000   120.000000    -0.577350     0.577350    -0.577350     0.000000     0.000000     0.000000
   19     1.000000    90.000000     0.000000     0.000000     1.000000     0.000000     0.000000     0.000000
   20    -1.000000    90.000000     0.000000     0.000000     1.000000     0.000000     0.000000     0.000000
   21     1.000000    90.000000    -1.000000     0.000000     0.000000     0.000000     0.000000     0.000000
   22    -1.000000    90.000000    -1.000000     0.000000     0.000000     0.000000     0.000000     0.000000
   23     1.000000   180.000000     0.707107     0.000000     0.707107     0.000000     0.000000     0.000000
   24    -1.000000   180.000000     0.707107     0.000000     0.707107     0.000000     0.000000     0.000000
   25     1.000000   120.000000     0.577350    -0.577350     0.577350     0.000000     0.000000     0.000000
   26    -1.000000   120.000000     0.577350    -0.577350     0.577350     0.000000     0.000000     0.000000
   27     1.000000   120.000000    -0.577350    -0.577350     0.577350     0.000000     0.000000     0.000000
   28    -1.000000   120.000000    -0.577350    -0.577350     0.577350     0.000000     0.000000     0.000000
   29     1.000000   180.000000     1.000000     0.000000     0.000000     0.000000     0.000000     0.000000
   30    -1.000000   180.000000     1.000000     0.000000     0.000000     0.000000     0.000000     0.000000
   31     1.000000    90.000000     0.000000    -1.000000     0.000000     0.000000     0.000000     0.000000
   32    -1.000000    90.000000     0.000000    -1.000000     0.000000     0.000000     0.000000     0.000000
   33     1.000000   180.000000     0.707107     0.707107     0.000000     0.000000     0.000000     0.000000
   34    -1.000000   180.000000     0.707107     0.707107     0.000000     0.000000     0.000000     0.000000
   35     1.000000    90.000000     1.000000     0.000000     0.000000     0.000000     0.000000     0.000000
   36    -1.000000    90.000000     1.000000     0.000000     0.000000     0.000000     0.000000     0.000000
   37     1.000000   120.000000     0.577350    -0.577350    -0.577350     0.000000     0.000000     0.000000
   38    -1.000000   120.000000     0.577350    -0.577350    -0.577350     0.000000     0.000000     0.000000
   39     1.000000   180.000000     0.000000     1.000000     0.000000     0.000000     0.000000     0.000000
   40    -1.000000   180.000000     0.000000     1.000000     0.000000     0.000000     0.000000     0.000000
   41     1.000000   120.000000     0.577350     0.577350    -0.577350     0.000000     0.000000     0.000000
   42    -1.000000   120.000000     0.577350     0.577350    -0.577350     0.000000     0.000000     0.000000
   43     1.000000   180.000000     0.000000    -0.707107     0.707107     0.000000     0.000000     0.000000
   44    -1.000000   180.000000     0.000000    -0.707107     0.707107     0.000000     0.000000     0.000000
   45     1.000000   180.000000     0.707107    -0.707107     0.000000     0.000000     0.000000     0.000000
   46    -1.000000   180.000000     0.707107    -0.707107     0.000000     0.000000     0.000000     0.000000
   47     1.000000   180.000000     0.707107     0.000000    -0.707107     0.000000     0.000000     0.000000
   48    -1.000000   180.000000     0.707107     0.000000    -0.707107     0.000000     0.000000     0.000000
 
 Subroutine IBZKPT returns following result:
 ===========================================
 
 Found   1140 irreducible k-points:
 
 Following reciprocal coordinates:
            Coordinates               Weight
  0.000000  0.000000  0.000000      1.000000
  0.028571  0.000000  0.000000      6.000000
  0.057143  0.000000  0.000000      6.000000
  0.085714  0.000000  0.000000      6.000000
  0.114286  0.000000  0.000000      6.000000
  0.142857  0.000000  0.000000      6.000000
  0.171429  0.000000  0.000000      6.000000
  0.200000  0.000000  0.000000      6.000000
  0.228571  0.000000  0.000000      6.000000
  0.257143  0.000000  0.000000      6.000000
  0.285714  0.000000  0.000000      6.000000
  0.314286  0.000000  0.000000      6.000000
  0.342857  0.000000  0.000000      6.000000
  0.371429  0.000000  0.000000      6.000000
  0.400000  0.000000  0.000000      6.000000
  0.428571  0.000000  0.000000      6.000000
  0.457143  0.000000  0.000000      6.000000
  0.485714  0.000000  0.000000      6.000000
  0.028571  0.028571  0.000000     12.000000
  0.057143  0.028571  0.000000     24.000000
  0.085714  0.028571  0.000000     24.000000
  0.114286  0.028571  0.000000     24.000000
  0.142857  0.028571  0.000000     24.000000
  0.171429  0.028571  0.000000     24.000000
  0.200000  0.028571  0.000000     24.000000
  0.228571  0.028571  0.000000     24.000000
  0.257143  0.028571  0.000000     24.000000
  0.285714  0.028571  0.000000     24.000000
  0.314286  0.028571  0.000000     24.000000
  0.342857  0.028571  0.000000     24.000000
  0.371429  0.028571  0.000000     24.000000
  0.400000  0.028571  0.000000     24.000000
  0.428571  0.028571  0.000000     24.000000
  0.457143  0.028571  0.000000     24.000000
  0.485714  0.028571  0.000000     24.000000
  0.057143  0.057143  0.000000     12.000000
  0.085714  0.057143  0.000000     24.000000
  0.114286  0.057143  0.000000     24.000000
  0.142857  0.057143  0.000000     24.000000
  0.171429  0.057143  0.000000     24.000000
  0.200000  0.057143  0.000000     24.000000
  0.228571  0.057143  0.000000     24.000000
  0.257143  0.057143  0.000000     24.000000
  0.285714  0.057143  0.000000     24.000000
  0.314286  0.057143  0.000000     24.000000
  0.342857  0.057143  0.000000     24.000000
  0.371429  0.057143  0.000000     24.000000
  0.400000  0.057143  0.000000     24.000000
  0.428571  0.057143  0.000000     24.000000
  0.457143  0.057143  0.000000     24.000000
  0.485714  0.057143  0.000000     24.000000
  0.085714  0.085714  0.000000     12.000000
  0.114286  0.085714  0.000000     24.000000
  0.142857  0.085714  0.000000     24.000000
  0.171429  0.085714  0.000000     24.000000
  0.200000  0.085714  0.000000     24.000000
  0.228571  0.085714  0.000000     24.000000
  0.257143  0.085714  0.000000     24.000000
  0.285714  0.085714  0.000000     24.000000
  0.314286  0.085714  0.000000     24.000000
  0.342857  0.085714  0.000000     24.000000
  0.371429  0.085714  0.000000     24.000000
  0.400000  0.085714  0.000000     24.000000
  0.428571  0.085714  0.000000     24.000000
  0.457143  0.085714  0.000000     24.000000
  0.485714  0.085714  0.000000     24.000000
  0.114286  0.114286  0.000000     12.000000
  0.142857  0.114286  0.000000     24.000000
  0.171429  0.114286  0.000000     24.000000
  0.200000  0.114286  0.000000     24.000000
  0.228571  0.114286  0.000000     24.000000
  0.257143  0.114286  0.000000     24.000000
  0.285714  0.114286  0.000000     24.000000
  0.314286  0.114286  0.000000     24.000000
  0.342857  0.114286  0.000000     24.000000
  0.371429  0.114286  0.000000     24.000000
  0.400000  0.114286  0.000000     24.000000
  0.428571  0.114286  0.000000     24.000000
  0.457143  0.114286  0.000000     24.000000
  0.485714  0.114286  0.000000     24.000000
  0.142857  0.142857  0.000000     12.000000
  0.171429  0.142857  0.000000     24.000000
  0.200000  0.142857  0.000000     24.000000
  0.228571  0.142857  0.000000     24.000000
  0.257143  0.142857  0.000000     24.000000
  0.285714  0.142857  0.000000     24.000000
  0.314286  0.142857  0.000000     24.000000
  0.342857  0.142857  0.000000     24.000000
  0.371429  0.142857  0.000000     24.000000
  0.400000  0.142857  0.000000     24.000000
  0.428571  0.142857  0.000000     24.000000
  0.457143  0.142857  0.000000     24.000000
  0.485714  0.142857  0.000000     24.000000
  0.171429  0.171429  0.000000     12.000000
  0.200000  0.171429  0.000000     24.000000
  0.228571  0.171429  0.000000     24.000000
  0.257143  0.171429  0.000000     24.000000
  0.285714  0.171429  0.000000     24.000000
  0.314286  0.171429  0.000000     24.000000
  0.342857  0.171429  0.000000     24.000000
  0.371429  0.171429  0.000000     24.000000
  0.400000  0.171429  0.000000     24.000000
  0.428571  0.171429  0.000000     24.000000
  0.457143  0.171429  0.000000     24.000000
  0.485714  0.171429  0.000000     24.000000
  0.200000  0.200000  0.000000     12.000000
  0.228571  0.200000  0.000000     24.000000
  0.257143  0.200000  0.000000     24.000000
  0.285714  0.200000  0.000000     24.000000
  0.314286  0.200000  0.000000     24.000000
  0.342857  0.200000  0.000000     24.000000
  0.371429  0.200000  0.000000     24.000000
  0.400000  0.200000  0.000000     24.000000
  0.428571  0.200000  0.000000     24.000000
  0.457143  0.200000  0.000000     24.000000
  0.485714  0.200000  0.000000     24.000000
  0.228571  0.228571  0.000000     12.000000
  0.257143  0.228571  0.000000     24.000000
  0.285714  0.228571  0.000000     24.000000
  0.314286  0.228571  0.000000     24.000000
  0.342857  0.228571  0.000000     24.000000
  0.371429  0.228571  0.000000     24.000000
  0.400000  0.228571  0.000000     24.000000
  0.428571  0.228571  0.000000     24.000000
  0.457143  0.228571  0.000000     24.000000
  0.485714  0.228571  0.000000     24.000000
  0.257143  0.257143  0.000000     12.000000
  0.285714  0.257143  0.000000     24.000000
  0.314286  0.257143  0.000000     24.000000
  0.342857  0.257143  0.000000     24.000000
  0.371429  0.257143  0.000000     24.000000
  0.400000  0.257143  0.000000     24.000000
  0.428571  0.257143  0.000000     24.000000
  0.457143  0.257143  0.000000     24.000000
  0.485714  0.257143  0.000000     24.000000
  0.285714  0.285714  0.000000     12.000000
  0.314286  0.285714  0.000000     24.000000
  0.342857  0.285714  0.000000     24.000000
  0.371429  0.285714  0.000000     24.000000
  0.400000  0.285714  0.000000     24.000000
  0.428571  0.285714  0.000000     24.000000
  0.457143  0.285714  0.000000     24.000000
  0.485714  0.285714  0.000000     24.000000
  0.314286  0.314286  0.000000     12.000000
  0.342857  0.314286  0.000000     24.000000
  0.371429  0.314286  0.000000     24.000000
  0.400000  0.314286  0.000000     24.000000
  0.428571  0.314286  0.000000     24.000000
  0.457143  0.314286  0.000000     24.000000
  0.485714  0.314286  0.000000     24.000000
  0.342857  0.342857  0.000000     12.000000
  0.371429  0.342857  0.000000     24.000000
  0.400000  0.342857  0.000000     24.000000
  0.428571  0.342857  0.000000     24.000000
  0.457143  0.342857  0.000000     24.000000
  0.485714  0.342857  0.000000     24.000000
  0.371429  0.371429  0.000000     12.000000
  0.400000  0.371429  0.000000     24.000000
  0.428571  0.371429  0.000000     24.000000
  0.457143  0.371429  0.000000     24.000000
  0.485714  0.371429  0.000000     24.000000
  0.400000  0.400000  0.000000     12.000000
  0.428571  0.400000  0.000000     24.000000
  0.457143  0.400000  0.000000     24.000000
  0.485714  0.400000  0.000000     24.000000
  0.428571  0.428571  0.000000     12.000000
  0.457143  0.428571  0.000000     24.000000
  0.485714  0.428571  0.000000     24.000000
  0.457143  0.457143  0.000000     12.000000
  0.485714  0.457143  0.000000     24.000000
  0.485714  0.485714  0.000000     12.000000
  0.028571  0.028571  0.028571      8.000000
  0.057143  0.028571  0.028571     24.000000
  0.085714  0.028571  0.028571     24.000000
  0.114286  0.028571  0.028571     24.000000
  0.142857  0.028571  0.028571     24.000000
  0.171429  0.028571  0.028571     24.000000
  0.200000  0.028571  0.028571     24.000000
  0.228571  0.028571  0.028571     24.000000
  0.257143  0.028571  0.028571     24.000000
  0.285714  0.028571  0.028571     24.000000
  0.314286  0.028571  0.028571     24.000000
  0.342857  0.028571  0.028571     24.000000
  0.371429  0.028571  0.028571     24.000000
  0.400000  0.028571  0.028571     24.000000
  0.428571  0.028571  0.028571     24.000000
  0.457143  0.028571  0.028571     24.000000
  0.485714  0.028571  0.028571     24.000000
  0.057143  0.057143  0.028571     24.000000
  0.085714  0.057143  0.028571     48.000000
  0.114286  0.057143  0.028571     48.000000
  0.142857  0.057143  0.028571     48.000000
  0.171429  0.057143  0.028571     48.000000
  0.200000  0.057143  0.028571     48.000000
  0.228571  0.057143  0.028571     48.000000
  0.257143  0.057143  0.028571     48.000000
  0.285714  0.057143  0.028571     48.000000
  0.314286  0.057143  0.028571     48.000000
  0.342857  0.057143  0.028571     48.000000
  0.371429  0.057143  0.028571     48.000000
  0.400000  0.057143  0.028571     48.000000
  0.428571  0.057143  0.028571     48.000000
  0.457143  0.057143  0.028571     48.000000
  0.485714  0.057143  0.028571     48.000000
  0.085714  0.085714  0.028571     24.000000
  0.114286  0.085714  0.028571     48.000000
  0.142857  0.085714  0.028571     48.000000
  0.171429  0.085714  0.028571     48.000000
  0.200000  0.085714  0.028571     48.000000
  0.228571  0.085714  0.028571     48.000000
  0.257143  0.085714  0.028571     48.000000
  0.285714  0.085714  0.028571     48.000000
  0.314286  0.085714  0.028571     48.000000
  0.342857  0.085714  0.028571     48.000000
  0.371429  0.085714  0.028571     48.000000
  0.400000  0.085714  0.028571     48.000000
  0.428571  0.085714  0.028571     48.000000
  0.457143  0.085714  0.028571     48.000000
  0.485714  0.085714  0.028571     48.000000
  0.114286  0.114286  0.028571     24.000000
  0.142857  0.114286  0.028571     48.000000
  0.171429  0.114286  0.028571     48.000000
  0.200000  0.114286  0.028571     48.000000
  0.228571  0.114286  0.028571     48.000000
  0.257143  0.114286  0.028571     48.000000
  0.285714  0.114286  0.028571     48.000000
  0.314286  0.114286  0.028571     48.000000
  0.342857  0.114286  0.028571     48.000000
  0.371429  0.114286  0.028571     48.000000
  0.400000  0.114286  0.028571     48.000000
  0.428571  0.114286  0.028571     48.000000
  0.457143  0.114286  0.028571     48.000000
  0.485714  0.114286  0.028571     48.000000
  0.142857  0.142857  0.028571     24.000000
  0.171429  0.142857  0.028571     48.000000
  0.200000  0.142857  0.028571     48.000000
  0.228571  0.142857  0.028571     48.000000
  0.257143  0.142857  0.028571     48.000000
  0.285714  0.142857  0.028571     48.000000
  0.314286  0.142857  0.028571     48.000000
  0.342857  0.142857  0.028571     48.000000
  0.371429  0.142857  0.028571     48.000000
  0.400000  0.142857  0.028571     48.000000
  0.428571  0.142857  0.028571     48.000000
  0.457143  0.142857  0.028571     48.000000
  0.485714  0.142857  0.028571     48.000000
  0.171429  0.171429  0.028571     24.000000
  0.200000  0.171429  0.028571     48.000000
  0.228571  0.171429  0.028571     48.000000
  0.257143  0.171429  0.028571     48.000000
  0.285714  0.171429  0.028571     48.000000
  0.314286  0.171429  0.028571     48.000000
  0.342857  0.171429  0.028571     48.000000
  0.371429  0.171429  0.028571     48.000000
  0.400000  0.171429  0.028571     48.000000
  0.428571  0.171429  0.028571     48.000000
  0.457143  0.171429  0.028571     48.000000
  0.485714  0.171429  0.028571     48.000000
  0.200000  0.200000  0.028571     24.000000
  0.228571  0.200000  0.028571     48.000000
  0.257143  0.200000  0.028571     48.000000
  0.285714  0.200000  0.028571     48.000000
  0.314286  0.200000  0.028571     48.000000
  0.342857  0.200000  0.028571     48.000000
  0.371429  0.200000  0.028571     48.000000
  0.400000  0.200000  0.028571     48.000000
  0.428571  0.200000  0.028571     48.000000
  0.457143  0.200000  0.028571     48.000000
  0.485714  0.200000  0.028571     48.000000
  0.228571  0.228571  0.028571     24.000000
  0.257143  0.228571  0.028571     48.000000
  0.285714  0.228571  0.028571     48.000000
  0.314286  0.228571  0.028571     48.000000
  0.342857  0.228571  0.028571     48.000000
  0.371429  0.228571  0.028571     48.000000
  0.400000  0.228571  0.028571     48.000000
  0.428571  0.228571  0.028571     48.000000
  0.457143  0.228571  0.028571     48.000000
  0.485714  0.228571  0.028571     48.000000
  0.257143  0.257143  0.028571     24.000000
  0.285714  0.257143  0.028571     48.000000
  0.314286  0.257143  0.028571     48.000000
  0.342857  0.257143  0.028571     48.000000
  0.371429  0.257143  0.028571     48.000000
  0.400000  0.257143  0.028571     48.000000
  0.428571  0.257143  0.028571     48.000000
  0.457143  0.257143  0.028571     48.000000
  0.485714  0.257143  0.028571     48.000000
  0.285714  0.285714  0.028571     24.000000
  0.314286  0.285714  0.028571     48.000000
  0.342857  0.285714  0.028571     48.000000
  0.371429  0.285714  0.028571     48.000000
  0.400000  0.285714  0.028571     48.000000
  0.428571  0.285714  0.028571     48.000000
  0.457143  0.285714  0.028571     48.000000
  0.485714  0.285714  0.028571     48.000000
  0.314286  0.314286  0.028571     24.000000
  0.342857  0.314286  0.028571     48.000000
  0.371429  0.314286  0.028571     48.000000
  0.400000  0.314286  0.028571     48.000000
  0.428571  0.314286  0.028571     48.000000
  0.457143  0.314286  0.028571     48.000000
  0.485714  0.314286  0.028571     48.000000
  0.342857  0.342857  0.028571     24.000000
  0.371429  0.342857  0.028571     48.000000
  0.400000  0.342857  0.028571     48.000000
  0.428571  0.342857  0.028571     48.000000
  0.457143  0.342857  0.028571     48.000000
  0.485714  0.342857  0.028571     48.000000
  0.371429  0.371429  0.028571     24.000000
  0.400000  0.371429  0.028571     48.000000
  0.428571  0.371429  0.028571     48.000000
  0.457143  0.371429  0.028571     48.000000
  0.485714  0.371429  0.028571     48.000000
  0.400000  0.400000  0.028571     24.000000
  0.428571  0.400000  0.028571     48.000000
  0.457143  0.400000  0.028571     48.000000
  0.485714  0.400000  0.028571     48.000000
  0.428571  0.428571  0.028571     24.000000
  0.457143  0.428571  0.028571     48.000000
  0.485714  0.428571  0.028571     48.000000
  0.457143  0.457143  0.028571     24.000000
  0.485714  0.457143  0.028571     48.000000
  0.485714  0.485714  0.028571     24.000000
  0.057143  0.057143  0.057143      8.000000
  0.085714  0.057143  0.057143     24.000000
  0.114286  0.057143  0.057143     24.000000
  0.142857  0.057143  0.057143     24.000000
  0.171429  0.057143  0.057143     24.000000
  0.200000  0.057143  0.057143     24.000000
  0.228571  0.057143  0.057143     24.000000
  0.257143  0.057143  0.057143     24.000000
  0.285714  0.057143  0.057143     24.000000
  0.314286  0.057143  0.057143     24.000000
  0.342857  0.057143  0.057143     24.000000
  0.371429  0.057143  0.057143     24.000000
  0.400000  0.057143  0.057143     24.000000
  0.428571  0.057143  0.057143     24.000000
  0.457143  0.057143  0.057143     24.000000
  0.485714  0.057143  0.057143     24.000000
  0.085714  0.085714  0.057143     24.000000
  0.114286  0.085714  0.057143     48.000000
  0.142857  0.085714  0.057143     48.000000
  0.171429  0.085714  0.057143     48.000000
  0.200000  0.085714  0.057143     48.000000
  0.228571  0.085714  0.057143     48.000000
  0.257143  0.085714  0.057143     48.000000
  0.285714  0.085714  0.057143     48.000000
  0.314286  0.085714  0.057143     48.000000
  0.342857  0.085714  0.057143     48.000000
  0.371429  0.085714  0.057143     48.000000
  0.400000  0.085714  0.057143     48.000000
  0.428571  0.085714  0.057143     48.000000
  0.457143  0.085714  0.057143     48.000000
  0.485714  0.085714  0.057143     48.000000
  0.114286  0.114286  0.057143     24.000000
  0.142857  0.114286  0.057143     48.000000
  0.171429  0.114286  0.057143     48.000000
  0.200000  0.114286  0.057143     48.000000
  0.228571  0.114286  0.057143     48.000000
  0.257143  0.114286  0.057143     48.000000
  0.285714  0.114286  0.057143     48.000000
  0.314286  0.114286  0.057143     48.000000
  0.342857  0.114286  0.057143     48.000000
  0.371429  0.114286  0.057143     48.000000
  0.400000  0.114286  0.057143     48.000000
  0.428571  0.114286  0.057143     48.000000
  0.457143  0.114286  0.057143     48.000000
  0.485714  0.114286  0.057143     48.000000
  0.142857  0.142857  0.057143     24.000000
  0.171429  0.142857  0.057143     48.000000
  0.200000  0.142857  0.057143     48.000000
  0.228571  0.142857  0.057143     48.000000
  0.257143  0.142857  0.057143     48.000000
  0.285714  0.142857  0.057143     48.000000
  0.314286  0.142857  0.057143     48.000000
  0.342857  0.142857  0.057143     48.000000
  0.371429  0.142857  0.057143     48.000000
  0.400000  0.142857  0.057143     48.000000
  0.428571  0.142857  0.057143     48.000000
  0.457143  0.142857  0.057143     48.000000
  0.485714  0.142857  0.057143     48.000000
  0.171429  0.171429  0.057143     24.000000
  0.200000  0.171429  0.057143     48.000000
  0.228571  0.171429  0.057143     48.000000
  0.257143  0.171429  0.057143     48.000000
  0.285714  0.171429  0.057143     48.000000
  0.314286  0.171429  0.057143     48.000000
  0.342857  0.171429  0.057143     48.000000
  0.371429  0.171429  0.057143     48.000000
  0.400000  0.171429  0.057143     48.000000
  0.428571  0.171429  0.057143     48.000000
  0.457143  0.171429  0.057143     48.000000
  0.485714  0.171429  0.057143     48.000000
  0.200000  0.200000  0.057143     24.000000
  0.228571  0.200000  0.057143     48.000000
  0.257143  0.200000  0.057143     48.000000
  0.285714  0.200000  0.057143     48.000000
  0.314286  0.200000  0.057143     48.000000
  0.342857  0.200000  0.057143     48.000000
  0.371429  0.200000  0.057143     48.000000
  0.400000  0.200000  0.057143     48.000000
  0.428571  0.200000  0.057143     48.000000
  0.457143  0.200000  0.057143     48.000000
  0.485714  0.200000  0.057143     48.000000
  0.228571  0.228571  0.057143     24.000000
  0.257143  0.228571  0.057143     48.000000
  0.285714  0.228571  0.057143     48.000000
  0.314286  0.228571  0.057143     48.000000
  0.342857  0.228571  0.057143     48.000000
  0.371429  0.228571  0.057143     48.000000
  0.400000  0.228571  0.057143     48.000000
  0.428571  0.228571  0.057143     48.000000
  0.457143  0.228571  0.057143     48.000000
  0.485714  0.228571  0.057143     48.000000
  0.257143  0.257143  0.057143     24.000000
  0.285714  0.257143  0.057143     48.000000
  0.314286  0.257143  0.057143     48.000000
  0.342857  0.257143  0.057143     48.000000
  0.371429  0.257143  0.057143     48.000000
  0.400000  0.257143  0.057143     48.000000
  0.428571  0.257143  0.057143     48.000000
  0.457143  0.257143  0.057143     48.000000
  0.485714  0.257143  0.057143     48.000000
  0.285714  0.285714  0.057143     24.000000
  0.314286  0.285714  0.057143     48.000000
  0.342857  0.285714  0.057143     48.000000
  0.371429  0.285714  0.057143     48.000000
  0.400000  0.285714  0.057143     48.000000
  0.428571  0.285714  0.057143     48.000000
  0.457143  0.285714  0.057143     48.000000
  0.485714  0.285714  0.057143     48.000000
  0.314286  0.314286  0.057143     24.000000
  0.342857  0.314286  0.057143     48.000000
  0.371429  0.314286  0.057143     48.000000
  0.400000  0.314286  0.057143     48.000000
  0.428571  0.314286  0.057143     48.000000
  0.457143  0.314286  0.057143     48.000000
  0.485714  0.314286  0.057143     48.000000
  0.342857  0.342857  0.057143     24.000000
  0.371429  0.342857  0.057143     48.000000
  0.400000  0.342857  0.057143     48.000000
  0.428571  0.342857  0.057143     48.000000
  0.457143  0.342857  0.057143     48.000000
  0.485714  0.342857  0.057143     48.000000
  0.371429  0.371429  0.057143     24.000000
  0.400000  0.371429  0.057143     48.000000
  0.428571  0.371429  0.057143     48.000000
  0.457143  0.371429  0.057143     48.000000
  0.485714  0.371429  0.057143     48.000000
  0.400000  0.400000  0.057143     24.000000
  0.428571  0.400000  0.057143     48.000000
  0.457143  0.400000  0.057143     48.000000
  0.485714  0.400000  0.057143     48.000000
  0.428571  0.428571  0.057143     24.000000
  0.457143  0.428571  0.057143     48.000000
  0.485714  0.428571  0.057143     48.000000
  0.457143  0.457143  0.057143     24.000000
  0.485714  0.457143  0.057143     48.000000
  0.485714  0.485714  0.057143     24.000000
  0.085714  0.085714  0.085714      8.000000
  0.114286  0.085714  0.085714     24.000000
  0.142857  0.085714  0.085714     24.000000
  0.171429  0.085714  0.085714     24.000000
  0.200000  0.085714  0.085714     24.000000
  0.228571  0.085714  0.085714     24.000000
  0.257143  0.085714  0.085714     24.000000
  0.285714  0.085714  0.085714     24.000000
  0.314286  0.085714  0.085714     24.000000
  0.342857  0.085714  0.085714     24.000000
  0.371429  0.085714  0.085714     24.000000
  0.400000  0.085714  0.085714     24.000000
  0.428571  0.085714  0.085714     24.000000
  0.457143  0.085714  0.085714     24.000000
  0.485714  0.085714  0.085714     24.000000
  0.114286  0.114286  0.085714     24.000000
  0.142857  0.114286  0.085714     48.000000
  0.171429  0.114286  0.085714     48.000000
  0.200000  0.114286  0.085714     48.000000
  0.228571  0.114286  0.085714     48.000000
  0.257143  0.114286  0.085714     48.000000
  0.285714  0.114286  0.085714     48.000000
  0.314286  0.114286  0.085714     48.000000
  0.342857  0.114286  0.085714     48.000000
  0.371429  0.114286  0.085714     48.000000
  0.400000  0.114286  0.085714     48.000000
  0.428571  0.114286  0.085714     48.000000
  0.457143  0.114286  0.085714     48.000000
  0.485714  0.114286  0.085714     48.000000
  0.142857  0.142857  0.085714     24.000000
  0.171429  0.142857  0.085714     48.000000
  0.200000  0.142857  0.085714     48.000000
  0.228571  0.142857  0.085714     48.000000
  0.257143  0.142857  0.085714     48.000000
  0.285714  0.142857  0.085714     48.000000
  0.314286  0.142857  0.085714     48.000000
  0.342857  0.142857  0.085714     48.000000
  0.371429  0.142857  0.085714     48.000000
  0.400000  0.142857  0.085714     48.000000
  0.428571  0.142857  0.085714     48.000000
  0.457143  0.142857  0.085714     48.000000
  0.485714  0.142857  0.085714     48.000000
  0.171429  0.171429  0.085714     24.000000
  0.200000  0.171429  0.085714     48.000000
  0.228571  0.171429  0.085714     48.000000
  0.257143  0.171429  0.085714     48.000000
  0.285714  0.171429  0.085714     48.000000
  0.314286  0.171429  0.085714     48.000000
  0.342857  0.171429  0.085714     48.000000
  0.371429  0.171429  0.085714     48.000000
  0.400000  0.171429  0.085714     48.000000
  0.428571  0.171429  0.085714     48.000000
  0.457143  0.171429  0.085714     48.000000
  0.485714  0.171429  0.085714     48.000000
  0.200000  0.200000  0.085714     24.000000
  0.228571  0.200000  0.085714     48.000000
  0.257143  0.200000  0.085714     48.000000
  0.285714  0.200000  0.085714     48.000000
  0.314286  0.200000  0.085714     48.000000
  0.342857  0.200000  0.085714     48.000000
  0.371429  0.200000  0.085714     48.000000
  0.400000  0.200000  0.085714     48.000000
  0.428571  0.200000  0.085714     48.000000
  0.457143  0.200000  0.085714     48.000000
  0.485714  0.200000  0.085714     48.000000
  0.228571  0.228571  0.085714     24.000000
  0.257143  0.228571  0.085714     48.000000
  0.285714  0.228571  0.085714     48.000000
  0.314286  0.228571  0.085714     48.000000
  0.342857  0.228571  0.085714     48.000000
  0.371429  0.228571  0.085714     48.000000
  0.400000  0.228571  0.085714     48.000000
  0.428571  0.228571  0.085714     48.000000
  0.457143  0.228571  0.085714     48.000000
  0.485714  0.228571  0.085714     48.000000
  0.257143  0.257143  0.085714     24.000000
  0.285714  0.257143  0.085714     48.000000
  0.314286  0.257143  0.085714     48.000000
  0.342857  0.257143  0.085714     48.000000
  0.371429  0.257143  0.085714     48.000000
  0.400000  0.257143  0.085714     48.000000
  0.428571  0.257143  0.085714     48.000000
  0.457143  0.257143  0.085714     48.000000
  0.485714  0.257143  0.085714     48.000000
  0.285714  0.285714  0.085714     24.000000
  0.314286  0.285714  0.085714     48.000000
  0.342857  0.285714  0.085714     48.000000
  0.371429  0.285714  0.085714     48.000000
  0.400000  0.285714  0.085714     48.000000
  0.428571  0.285714  0.085714     48.000000
  0.457143  0.285714  0.085714     48.000000
  0.485714  0.285714  0.085714     48.000000
  0.314286  0.314286  0.085714     24.000000
  0.342857  0.314286  0.085714     48.000000
  0.371429  0.314286  0.085714     48.000000
  0.400000  0.314286  0.085714     48.000000
  0.428571  0.314286  0.085714     48.000000
  0.457143  0.314286  0.085714     48.000000
  0.485714  0.314286  0.085714     48.000000
  0.342857  0.342857  0.085714     24.000000
  0.371429  0.342857  0.085714     48.000000
  0.400000  0.342857  0.085714     48.000000
  0.428571  0.342857  0.085714     48.000000
  0.457143  0.342857  0.085714     48.000000
  0.485714  0.342857  0.085714     48.000000
  0.371429  0.371429  0.085714     24.000000
  0.400000  0.371429  0.085714     48.000000
  0.428571  0.371429  0.085714     48.000000
  0.457143  0.371429  0.085714     48.000000
  0.485714  0.371429  0.085714     48.000000
  0.400000  0.400000  0.085714     24.000000
  0.428571  0.400000  0.085714     48.000000
  0.457143  0.400000  0.085714     48.000000
  0.485714  0.400000  0.085714     48.000000
  0.428571  0.428571  0.085714     24.000000
  0.457143  0.428571  0.085714     48.000000
  0.485714  0.428571  0.085714     48.000000
  0.457143  0.457143  0.085714     24.000000
  0.485714  0.457143  0.085714     48.000000
  0.485714  0.485714  0.085714     24.000000
  0.114286  0.114286  0.114286      8.000000
  0.142857  0.114286  0.114286     24.000000
  0.171429  0.114286  0.114286     24.000000
  0.200000  0.114286  0.114286     24.000000
  0.228571  0.114286  0.114286     24.000000
  0.257143  0.114286  0.114286     24.000000
  0.285714  0.114286  0.114286     24.000000
  0.314286  0.114286  0.114286     24.000000
  0.342857  0.114286  0.114286     24.000000
  0.371429  0.114286  0.114286     24.000000
  0.400000  0.114286  0.114286     24.000000
  0.428571  0.114286  0.114286     24.000000
  0.457143  0.114286  0.114286     24.000000
  0.485714  0.114286  0.114286     24.000000
  0.142857  0.142857  0.114286     24.000000
  0.171429  0.142857  0.114286     48.000000
  0.200000  0.142857  0.114286     48.000000
  0.228571  0.142857  0.114286     48.000000
  0.257143  0.142857  0.114286     48.000000
  0.285714  0.142857  0.114286     48.000000
  0.314286  0.142857  0.114286     48.000000
  0.342857  0.142857  0.114286     48.000000
  0.371429  0.142857  0.114286     48.000000
  0.400000  0.142857  0.114286     48.000000
  0.428571  0.142857  0.114286     48.000000
  0.457143  0.142857  0.114286     48.000000
  0.485714  0.142857  0.114286     48.000000
  0.171429  0.171429  0.114286     24.000000
  0.200000  0.171429  0.114286     48.000000
  0.228571  0.171429  0.114286     48.000000
  0.257143  0.171429  0.114286     48.000000
  0.285714  0.171429  0.114286     48.000000
  0.314286  0.171429  0.114286     48.000000
  0.342857  0.171429  0.114286     48.000000
  0.371429  0.171429  0.114286     48.000000
  0.400000  0.171429  0.114286     48.000000
  0.428571  0.171429  0.114286     48.000000
  0.457143  0.171429  0.114286     48.000000
  0.485714  0.171429  0.114286     48.000000
  0.200000  0.200000  0.114286     24.000000
  0.228571  0.200000  0.114286     48.000000
  0.257143  0.200000  0.114286     48.000000
  0.285714  0.200000  0.114286     48.000000
  0.314286  0.200000  0.114286     48.000000
  0.342857  0.200000  0.114286     48.000000
  0.371429  0.200000  0.114286     48.000000
  0.400000  0.200000  0.114286     48.000000
  0.428571  0.200000  0.114286     48.000000
  0.457143  0.200000  0.114286     48.000000
  0.485714  0.200000  0.114286     48.000000
  0.228571  0.228571  0.114286     24.000000
  0.257143  0.228571  0.114286     48.000000
  0.285714  0.228571  0.114286     48.000000
  0.314286  0.228571  0.114286     48.000000
  0.342857  0.228571  0.114286     48.000000
  0.371429  0.228571  0.114286     48.000000
  0.400000  0.228571  0.114286     48.000000
  0.428571  0.228571  0.114286     48.000000
  0.457143  0.228571  0.114286     48.000000
  0.485714  0.228571  0.114286     48.000000
  0.257143  0.257143  0.114286     24.000000
  0.285714  0.257143  0.114286     48.000000
  0.314286  0.257143  0.114286     48.000000
  0.342857  0.257143  0.114286     48.000000
  0.371429  0.257143  0.114286     48.000000
  0.400000  0.257143  0.114286     48.000000
  0.428571  0.257143  0.114286     48.000000
  0.457143  0.257143  0.114286     48.000000
  0.485714  0.257143  0.114286     48.000000
  0.285714  0.285714  0.114286     24.000000
  0.314286  0.285714  0.114286     48.000000
  0.342857  0.285714  0.114286     48.000000
  0.371429  0.285714  0.114286     48.000000
  0.400000  0.285714  0.114286     48.000000
  0.428571  0.285714  0.114286     48.000000
  0.457143  0.285714  0.114286     48.000000
  0.485714  0.285714  0.114286     48.000000
  0.314286  0.314286  0.114286     24.000000
  0.342857  0.314286  0.114286     48.000000
  0.371429  0.314286  0.114286     48.000000
  0.400000  0.314286  0.114286     48.000000
  0.428571  0.314286  0.114286     48.000000
  0.457143  0.314286  0.114286     48.000000
  0.485714  0.314286  0.114286     48.000000
  0.342857  0.342857  0.114286     24.000000
  0.371429  0.342857  0.114286     48.000000
  0.400000  0.342857  0.114286     48.000000
  0.428571  0.342857  0.114286     48.000000
  0.457143  0.342857  0.114286     48.000000
  0.485714  0.342857  0.114286     48.000000
  0.371429  0.371429  0.114286     24.000000
  0.400000  0.371429  0.114286     48.000000
  0.428571  0.371429  0.114286     48.000000
  0.457143  0.371429  0.114286     48.000000
  0.485714  0.371429  0.114286     48.000000
  0.400000  0.400000  0.114286     24.000000
  0.428571  0.400000  0.114286     48.000000
  0.457143  0.400000  0.114286     48.000000
  0.485714  0.400000  0.114286     48.000000
  0.428571  0.428571  0.114286     24.000000
  0.457143  0.428571  0.114286     48.000000
  0.485714  0.428571  0.114286     48.000000
  0.457143  0.457143  0.114286     24.000000
  0.485714  0.457143  0.114286     48.000000
  0.485714  0.485714  0.114286     24.000000
  0.142857  0.142857  0.142857      8.000000
  0.171429  0.142857  0.142857     24.000000
  0.200000  0.142857  0.142857     24.000000
  0.228571  0.142857  0.142857     24.000000
  0.257143  0.142857  0.142857     24.000000
  0.285714  0.142857  0.142857     24.000000
  0.314286  0.142857  0.142857     24.000000
  0.342857  0.142857  0.142857     24.000000
  0.371429  0.142857  0.142857     24.000000
  0.400000  0.142857  0.142857     24.000000
  0.428571  0.142857  0.142857     24.000000
  0.457143  0.142857  0.142857     24.000000
  0.485714  0.142857  0.142857     24.000000
  0.171429  0.171429  0.142857     24.000000
  0.200000  0.171429  0.142857     48.000000
  0.228571  0.171429  0.142857     48.000000
  0.257143  0.171429  0.142857     48.000000
  0.285714  0.171429  0.142857     48.000000
  0.314286  0.171429  0.142857     48.000000
  0.342857  0.171429  0.142857     48.000000
  0.371429  0.171429  0.142857     48.000000
  0.400000  0.171429  0.142857     48.000000
  0.428571  0.171429  0.142857     48.000000
  0.457143  0.171429  0.142857     48.000000
  0.485714  0.171429  0.142857     48.000000
  0.200000  0.200000  0.142857     24.000000
  0.228571  0.200000  0.142857     48.000000
  0.257143  0.200000  0.142857     48.000000
  0.285714  0.200000  0.142857     48.000000
  0.314286  0.200000  0.142857     48.000000
  0.342857  0.200000  0.142857     48.000000
  0.371429  0.200000  0.142857     48.000000
  0.400000  0.200000  0.142857     48.000000
  0.428571  0.200000  0.142857     48.000000
  0.457143  0.200000  0.142857     48.000000
  0.485714  0.200000  0.142857     48.000000
  0.228571  0.228571  0.142857     24.000000
  0.257143  0.228571  0.142857     48.000000
  0.285714  0.228571  0.142857     48.000000
  0.314286  0.228571  0.142857     48.000000
  0.342857  0.228571  0.142857     48.000000
  0.371429  0.228571  0.142857     48.000000
  0.400000  0.228571  0.142857     48.000000
  0.428571  0.228571  0.142857     48.000000
  0.457143  0.228571  0.142857     48.000000
  0.485714  0.228571  0.142857     48.000000
  0.257143  0.257143  0.142857     24.000000
  0.285714  0.257143  0.142857     48.000000
  0.314286  0.257143  0.142857     48.000000
  0.342857  0.257143  0.142857     48.000000
  0.371429  0.257143  0.142857     48.000000
  0.400000  0.257143  0.142857     48.000000
  0.428571  0.257143  0.142857     48.000000
  0.457143  0.257143  0.142857     48.000000
  0.485714  0.257143  0.142857     48.000000
  0.285714  0.285714  0.142857     24.000000
  0.314286  0.285714  0.142857     48.000000
  0.342857  0.285714  0.142857     48.000000
  0.371429  0.285714  0.142857     48.000000
  0.400000  0.285714  0.142857     48.000000
  0.428571  0.285714  0.142857     48.000000
  0.457143  0.285714  0.142857     48.000000
  0.485714  0.285714  0.142857     48.000000
  0.314286  0.314286  0.142857     24.000000
  0.342857  0.314286  0.142857     48.000000
  0.371429  0.314286  0.142857     48.000000
  0.400000  0.314286  0.142857     48.000000
  0.428571  0.314286  0.142857     48.000000
  0.457143  0.314286  0.142857     48.000000
  0.485714  0.314286  0.142857     48.000000
  0.342857  0.342857  0.142857     24.000000
  0.371429  0.342857  0.142857     48.000000
  0.400000  0.342857  0.142857     48.000000
  0.428571  0.342857  0.142857     48.000000
  0.457143  0.342857  0.142857     48.000000
  0.485714  0.342857  0.142857     48.000000
  0.371429  0.371429  0.142857     24.000000
  0.400000  0.371429  0.142857     48.000000
  0.428571  0.371429  0.142857     48.000000
  0.457143  0.371429  0.142857     48.000000
  0.485714  0.371429  0.142857     48.000000
  0.400000  0.400000  0.142857     24.000000
  0.428571  0.400000  0.142857     48.000000
  0.457143  0.400000  0.142857     48.000000
  0.485714  0.400000  0.142857     48.000000
  0.428571  0.428571  0.142857     24.000000
  0.457143  0.428571  0.142857     48.000000
  0.485714  0.428571  0.142857     48.000000
  0.457143  0.457143  0.142857     24.000000
  0.485714  0.457143  0.142857     48.000000
  0.485714  0.485714  0.142857     24.000000
  0.171429  0.171429  0.171429      8.000000
  0.200000  0.171429  0.171429     24.000000
  0.228571  0.171429  0.171429     24.000000
  0.257143  0.171429  0.171429     24.000000
  0.285714  0.171429  0.171429     24.000000
  0.314286  0.171429  0.171429     24.000000
  0.342857  0.171429  0.171429     24.000000
  0.371429  0.171429  0.171429     24.000000
  0.400000  0.171429  0.171429     24.000000
  0.428571  0.171429  0.171429     24.000000
  0.457143  0.171429  0.171429     24.000000
  0.485714  0.171429  0.171429     24.000000
  0.200000  0.200000  0.171429     24.000000
  0.228571  0.200000  0.171429     48.000000
  0.257143  0.200000  0.171429     48.000000
  0.285714  0.200000  0.171429     48.000000
  0.314286  0.200000  0.171429     48.000000
  0.342857  0.200000  0.171429     48.000000
  0.371429  0.200000  0.171429     48.000000
  0.400000  0.200000  0.171429     48.000000
  0.428571  0.200000  0.171429     48.000000
  0.457143  0.200000  0.171429     48.000000
  0.485714  0.200000  0.171429     48.000000
  0.228571  0.228571  0.171429     24.000000
  0.257143  0.228571  0.171429     48.000000
  0.285714  0.228571  0.171429     48.000000
  0.314286  0.228571  0.171429     48.000000
  0.342857  0.228571  0.171429     48.000000
  0.371429  0.228571  0.171429     48.000000
  0.400000  0.228571  0.171429     48.000000
  0.428571  0.228571  0.171429     48.000000
  0.457143  0.228571  0.171429     48.000000
  0.485714  0.228571  0.171429     48.000000
  0.257143  0.257143  0.171429     24.000000
  0.285714  0.257143  0.171429     48.000000
  0.314286  0.257143  0.171429     48.000000
  0.342857  0.257143  0.171429     48.000000
  0.371429  0.257143  0.171429     48.000000
  0.400000  0.257143  0.171429     48.000000
  0.428571  0.257143  0.171429     48.000000
  0.457143  0.257143  0.171429     48.000000
  0.485714  0.257143  0.171429     48.000000
  0.285714  0.285714  0.171429     24.000000
  0.314286  0.285714  0.171429     48.000000
  0.342857  0.285714  0.171429     48.000000
  0.371429  0.285714  0.171429     48.000000
  0.400000  0.285714  0.171429     48.000000
  0.428571  0.285714  0.171429     48.000000
  0.457143  0.285714  0.171429     48.000000
  0.485714  0.285714  0.171429     48.000000
  0.314286  0.314286  0.171429     24.000000
  0.342857  0.314286  0.171429     48.000000
  0.371429  0.314286  0.171429     48.000000
  0.400000  0.314286  0.171429     48.000000
  0.428571  0.314286  0.171429     48.000000
  0.457143  0.314286  0.171429     48.000000
  0.485714  0.314286  0.171429     48.000000
  0.342857  0.342857  0.171429     24.000000
  0.371429  0.342857  0.171429     48.000000
  0.400000  0.342857  0.171429     48.000000
  0.428571  0.342857  0.171429     48.000000
  0.457143  0.342857  0.171429     48.000000
  0.485714  0.342857  0.171429     48.000000
  0.371429  0.371429  0.171429     24.000000
  0.400000  0.371429  0.171429     48.000000
  0.428571  0.371429  0.171429     48.000000
  0.457143  0.371429  0.171429     48.000000
  0.485714  0.371429  0.171429     48.000000
  0.400000  0.400000  0.171429     24.000000
  0.428571  0.400000  0.171429     48.000000
  0.457143  0.400000  0.171429     48.000000
  0.485714  0.400000  0.171429     48.000000
  0.428571  0.428571  0.171429     24.000000
  0.457143  0.428571  0.171429     48.000000
  0.485714  0.428571  0.171429     48.000000
  0.457143  0.457143  0.171429     24.000000
  0.485714  0.457143  0.171429     48.000000
  0.485714  0.485714  0.171429     24.000000
  0.200000  0.200000  0.200000      8.000000
  0.228571  0.200000  0.200000     24.000000
  0.257143  0.200000  0.200000     24.000000
  0.285714  0.200000  0.200000     24.000000
  0.314286  0.200000  0.200000     24.000000
  0.342857  0.200000  0.200000     24.000000
  0.371429  0.200000  0.200000     24.000000
  0.400000  0.200000  0.200000     24.000000
  0.428571  0.200000  0.200000     24.000000
  0.457143  0.200000  0.200000     24.000000
  0.485714  0.200000  0.200000     24.000000
  0.228571  0.228571  0.200000     24.000000
  0.257143  0.228571  0.200000     48.000000
  0.285714  0.228571  0.200000     48.000000
  0.314286  0.228571  0.200000     48.000000
  0.342857  0.228571  0.200000     48.000000
  0.371429  0.228571  0.200000     48.000000
  0.400000  0.228571  0.200000     48.000000
  0.428571  0.228571  0.200000     48.000000
  0.457143  0.228571  0.200000     48.000000
  0.485714  0.228571  0.200000     48.000000
  0.257143  0.257143  0.200000     24.000000
  0.285714  0.257143  0.200000     48.000000
  0.314286  0.257143  0.200000     48.000000
  0.342857  0.257143  0.200000     48.000000
  0.371429  0.257143  0.200000     48.000000
  0.400000  0.257143  0.200000     48.000000
  0.428571  0.257143  0.200000     48.000000
  0.457143  0.257143  0.200000     48.000000
  0.485714  0.257143  0.200000     48.000000
  0.285714  0.285714  0.200000     24.000000
  0.314286  0.285714  0.200000     48.000000
  0.342857  0.285714  0.200000     48.000000
  0.371429  0.285714  0.200000     48.000000
  0.400000  0.285714  0.200000     48.000000
  0.428571  0.285714  0.200000     48.000000
  0.457143  0.285714  0.200000     48.000000
  0.485714  0.285714  0.200000     48.000000
  0.314286  0.314286  0.200000     24.000000
  0.342857  0.314286  0.200000     48.000000
  0.371429  0.314286  0.200000     48.000000
  0.400000  0.314286  0.200000     48.000000
  0.428571  0.314286  0.200000     48.000000
  0.457143  0.314286  0.200000     48.000000
  0.485714  0.314286  0.200000     48.000000
  0.342857  0.342857  0.200000     24.000000
  0.371429  0.342857  0.200000     48.000000
  0.400000  0.342857  0.200000     48.000000
  0.428571  0.342857  0.200000     48.000000
  0.457143  0.342857  0.200000     48.000000
  0.485714  0.342857  0.200000     48.000000
  0.371429  0.371429  0.200000     24.000000
  0.400000  0.371429  0.200000     48.000000
  0.428571  0.371429  0.200000     48.000000
  0.457143  0.371429  0.200000     48.000000
  0.485714  0.371429  0.200000     48.000000
  0.400000  0.400000  0.200000     24.000000
  0.428571  0.400000  0.200000     48.000000
  0.457143  0.400000  0.200000     48.000000
  0.485714  0.400000  0.200000     48.000000
  0.428571  0.428571  0.200000     24.000000
  0.457143  0.428571  0.200000     48.000000
  0.485714  0.428571  0.200000     48.000000
  0.457143  0.457143  0.200000     24.000000
  0.485714  0.457143  0.200000     48.000000
  0.485714  0.485714  0.200000     24.000000
  0.228571  0.228571  0.228571      8.000000
  0.257143  0.228571  0.228571     24.000000
  0.285714  0.228571  0.228571     24.000000
  0.314286  0.228571  0.228571     24.000000
  0.342857  0.228571  0.228571     24.000000
  0.371429  0.228571  0.228571     24.000000
  0.400000  0.228571  0.228571     24.000000
  0.428571  0.228571  0.228571     24.000000
  0.457143  0.228571  0.228571     24.000000
  0.485714  0.228571  0.228571     24.000000
  0.257143  0.257143  0.228571     24.000000
  0.285714  0.257143  0.228571     48.000000
  0.314286  0.257143  0.228571     48.000000
  0.342857  0.257143  0.228571     48.000000
  0.371429  0.257143  0.228571     48.000000
  0.400000  0.257143  0.228571     48.000000
  0.428571  0.257143  0.228571     48.000000
  0.457143  0.257143  0.228571     48.000000
  0.485714  0.257143  0.228571     48.000000
  0.285714  0.285714  0.228571     24.000000
  0.314286  0.285714  0.228571     48.000000
  0.342857  0.285714  0.228571     48.000000
  0.371429  0.285714  0.228571     48.000000
  0.400000  0.285714  0.228571     48.000000
  0.428571  0.285714  0.228571     48.000000
  0.457143  0.285714  0.228571     48.000000
  0.485714  0.285714  0.228571     48.000000
  0.314286  0.314286  0.228571     24.000000
  0.342857  0.314286  0.228571     48.000000
  0.371429  0.314286  0.228571     48.000000
  0.400000  0.314286  0.228571     48.000000
  0.428571  0.314286  0.228571     48.000000
  0.457143  0.314286  0.228571     48.000000
  0.485714  0.314286  0.228571     48.000000
  0.342857  0.342857  0.228571     24.000000
  0.371429  0.342857  0.228571     48.000000
  0.400000  0.342857  0.228571     48.000000
  0.428571  0.342857  0.228571     48.000000
  0.457143  0.342857  0.228571     48.000000
  0.485714  0.342857  0.228571     48.000000
  0.371429  0.371429  0.228571     24.000000
  0.400000  0.371429  0.228571     48.000000
  0.428571  0.371429  0.228571     48.000000
  0.457143  0.371429  0.228571     48.000000
  0.485714  0.371429  0.228571     48.000000
  0.400000  0.400000  0.228571     24.000000
  0.428571  0.400000  0.228571     48.000000
  0.457143  0.400000  0.228571     48.000000
  0.485714  0.400000  0.228571     48.000000
  0.428571  0.428571  0.228571     24.000000
  0.457143  0.428571  0.228571     48.000000
  0.485714  0.428571  0.228571     48.000000
  0.457143  0.457143  0.228571     24.000000
  0.485714  0.457143  0.228571     48.000000
  0.485714  0.485714  0.228571     24.000000
  0.257143  0.257143  0.257143      8.000000
  0.285714  0.257143  0.257143     24.000000
  0.314286  0.257143  0.257143     24.000000
  0.342857  0.257143  0.257143     24.000000
  0.371429  0.257143  0.257143     24.000000
  0.400000  0.257143  0.257143     24.000000
  0.428571  0.257143  0.257143     24.000000
  0.457143  0.257143  0.257143     24.000000
  0.485714  0.257143  0.257143     24.000000
  0.285714  0.285714  0.257143     24.000000
  0.314286  0.285714  0.257143     48.000000
  0.342857  0.285714  0.257143     48.000000
  0.371429  0.285714  0.257143     48.000000
  0.400000  0.285714  0.257143     48.000000
  0.428571  0.285714  0.257143     48.000000
  0.457143  0.285714  0.257143     48.000000
  0.485714  0.285714  0.257143     48.000000
  0.314286  0.314286  0.257143     24.000000
  0.342857  0.314286  0.257143     48.000000
  0.371429  0.314286  0.257143     48.000000
  0.400000  0.314286  0.257143     48.000000
  0.428571  0.314286  0.257143     48.000000
  0.457143  0.314286  0.257143     48.000000
  0.485714  0.314286  0.257143     48.000000
  0.342857  0.342857  0.257143     24.000000
  0.371429  0.342857  0.257143     48.000000
  0.400000  0.342857  0.257143     48.000000
  0.428571  0.342857  0.257143     48.000000
  0.457143  0.342857  0.257143     48.000000
  0.485714  0.342857  0.257143     48.000000
  0.371429  0.371429  0.257143     24.000000
  0.400000  0.371429  0.257143     48.000000
  0.428571  0.371429  0.257143     48.000000
  0.457143  0.371429  0.257143     48.000000
  0.485714  0.371429  0.257143     48.000000
  0.400000  0.400000  0.257143     24.000000
  0.428571  0.400000  0.257143     48.000000
  0.457143  0.400000  0.257143     48.000000
  0.485714  0.400000  0.257143     48.000000
  0.428571  0.428571  0.257143     24.000000
  0.457143  0.428571  0.257143     48.000000
  0.485714  0.428571  0.257143     48.000000
  0.457143  0.457143  0.257143     24.000000
  0.485714  0.457143  0.257143     48.000000
  0.485714  0.485714  0.257143     24.000000
  0.285714  0.285714  0.285714      8.000000
  0.314286  0.285714  0.285714     24.000000
  0.342857  0.285714  0.285714     24.000000
  0.371429  0.285714  0.285714     24.000000
  0.400000  0.285714  0.285714     24.000000
  0.428571  0.285714  0.285714     24.000000
  0.457143  0.285714  0.285714     24.000000
  0.485714  0.285714  0.285714     24.000000
  0.314286  0.314286  0.285714     24.000000
  0.342857  0.314286  0.285714     48.000000
  0.371429  0.314286  0.285714     48.000000
  0.400000  0.314286  0.285714     48.000000
  0.428571  0.314286  0.285714     48.000000
  0.457143  0.314286  0.285714     48.000000
  0.485714  0.314286  0.285714     48.000000
  0.342857  0.342857  0.285714     24.000000
  0.371429  0.342857  0.285714     48.000000
  0.400000  0.342857  0.285714     48.000000
  0.428571  0.342857  0.285714     48.000000
  0.457143  0.342857  0.285714     48.000000
  0.485714  0.342857  0.285714     48.000000
  0.371429  0.371429  0.285714     24.000000
  0.400000  0.371429  0.285714     48.000000
  0.428571  0.371429  0.285714     48.000000
  0.457143  0.371429  0.285714     48.000000
  0.485714  0.371429  0.285714     48.000000
  0.400000  0.400000  0.285714     24.000000
  0.428571  0.400000  0.285714     48.000000
  0.457143  0.400000  0.285714     48.000000
  0.485714  0.400000  0.285714     48.000000
  0.428571  0.428571  0.285714     24.000000
  0.457143  0.428571  0.285714     48.000000
  0.485714  0.428571  0.285714     48.000000
  0.457143  0.457143  0.285714     24.000000
  0.485714  0.457143  0.285714     48.000000
  0.485714  0.485714  0.285714     24.000000
  0.314286  0.314286  0.314286      8.000000
  0.342857  0.314286  0.314286     24.000000
  0.371429  0.314286  0.314286     24.000000
  0.400000  0.314286  0.314286     24.000000
  0.428571  0.314286  0.314286     24.000000
  0.457143  0.314286  0.314286     24.000000
  0.485714  0.314286  0.314286     24.000000
  0.342857  0.342857  0.314286     24.000000
  0.371429  0.342857  0.314286     48.000000
  0.400000  0.342857  0.314286     48.000000
  0.428571  0.342857  0.314286     48.000000
  0.457143  0.342857  0.314286     48.000000
  0.485714  0.342857  0.314286     48.000000
  0.371429  0.371429  0.314286     24.000000
  0.400000  0.371429  0.314286     48.000000
  0.428571  0.371429  0.314286     48.000000
  0.457143  0.371429  0.314286     48.000000
  0.485714  0.371429  0.314286     48.000000
  0.400000  0.400000  0.314286     24.000000
  0.428571  0.400000  0.314286     48.000000
  0.457143  0.400000  0.314286     48.000000
  0.485714  0.400000  0.314286     48.000000
  0.428571  0.428571  0.314286     24.000000
  0.457143  0.428571  0.314286     48.000000
  0.485714  0.428571  0.314286     48.000000
  0.457143  0.457143  0.314286     24.000000
  0.485714  0.457143  0.314286     48.000000
  0.485714  0.485714  0.314286     24.000000
  0.342857  0.342857  0.342857      8.000000
  0.371429  0.342857  0.342857     24.000000
  0.400000  0.342857  0.342857     24.000000
  0.428571  0.342857  0.342857     24.000000
  0.457143  0.342857  0.342857     24.000000
  0.485714  0.342857  0.342857     24.000000
  0.371429  0.371429  0.342857     24.000000
  0.400000  0.371429  0.342857     48.000000
  0.428571  0.371429  0.342857     48.000000
  0.457143  0.371429  0.342857     48.000000
  0.485714  0.371429  0.342857     48.000000
  0.400000  0.400000  0.342857     24.000000
  0.428571  0.400000  0.342857     48.000000
  0.457143  0.400000  0.342857     48.000000
  0.485714  0.400000  0.342857     48.000000
  0.428571  0.428571  0.342857     24.000000
  0.457143  0.428571  0.342857     48.000000
  0.485714  0.428571  0.342857     48.000000
  0.457143  0.457143  0.342857     24.000000
  0.485714  0.457143  0.342857     48.000000
  0.485714  0.485714  0.342857     24.000000
  0.371429  0.371429  0.371429      8.000000
  0.400000  0.371429  0.371429     24.000000
  0.428571  0.371429  0.371429     24.000000
  0.457143  0.371429  0.371429     24.000000
  0.485714  0.371429  0.371429     24.000000
  0.400000  0.400000  0.371429     24.000000
  0.428571  0.400000  0.371429     48.000000
  0.457143  0.400000  0.371429     48.000000
  0.485714  0.400000  0.371429     48.000000
  0.428571  0.428571  0.371429     24.000000
  0.457143  0.428571  0.371429     48.000000
  0.485714  0.428571  0.371429     48.000000
  0.457143  0.457143  0.371429     24.000000
  0.485714  0.457143  0.371429     48.000000
  0.485714  0.485714  0.371429     24.000000
  0.400000  0.400000  0.400000      8.000000
  0.428571  0.400000  0.400000     24.000000
  0.457143  0.400000  0.400000     24.000000
  0.485714  0.400000  0.400000     24.000000
  0.428571  0.428571  0.400000     24.000000
  0.457143  0.428571  0.400000     48.000000
  0.485714  0.428571  0.400000     48.000000
  0.457143  0.457143  0.400000     24.000000
  0.485714  0.457143  0.400000     48.000000
  0.485714  0.485714  0.400000     24.000000
  0.428571  0.428571  0.428571      8.000000
  0.457143  0.428571  0.428571     24.000000
  0.485714  0.428571  0.428571     24.000000
  0.457143  0.457143  0.428571     24.000000
  0.485714  0.457143  0.428571     48.000000
  0.485714  0.485714  0.428571     24.000000
  0.457143  0.457143  0.457143      8.000000
  0.485714  0.457143  0.457143     24.000000
  0.485714  0.485714  0.457143     24.000000
  0.485714  0.485714  0.485714      8.000000
 
 Following cartesian coordinates:
            Coordinates               Weight
  0.000000  0.000000  0.000000      1.000000
  0.010060  0.000000  0.000000      6.000000
  0.020120  0.000000  0.000000      6.000000
  0.030181  0.000000  0.000000      6.000000
  0.040241  0.000000  0.000000      6.000000
  0.050301  0.000000  0.000000      6.000000
  0.060361  0.000000  0.000000      6.000000
  0.070421  0.000000  0.000000      6.000000
  0.080481  0.000000  0.000000      6.000000
  0.090542  0.000000  0.000000      6.000000
  0.100602  0.000000  0.000000      6.000000
  0.110662  0.000000  0.000000      6.000000
  0.120722  0.000000  0.000000      6.000000
  0.130782  0.000000  0.000000      6.000000
  0.140842  0.000000  0.000000      6.000000
  0.150903  0.000000  0.000000      6.000000
  0.160963  0.000000  0.000000      6.000000
  0.171023  0.000000  0.000000      6.000000
  0.010060  0.010060  0.000000     12.000000
  0.020120  0.010060  0.000000     24.000000
  0.030181  0.010060  0.000000     24.000000
  0.040241  0.010060  0.000000     24.000000
  0.050301  0.010060  0.000000     24.000000
  0.060361  0.010060  0.000000     24.000000
  0.070421  0.010060  0.000000     24.000000
  0.080481  0.010060  0.000000     24.000000
  0.090542  0.010060  0.000000     24.000000
  0.100602  0.010060  0.000000     24.000000
  0.110662  0.010060  0.000000     24.000000
  0.120722  0.010060  0.000000     24.000000
  0.130782  0.010060  0.000000     24.000000
  0.140842  0.010060  0.000000     24.000000
  0.150903  0.010060  0.000000     24.000000
  0.160963  0.010060  0.000000     24.000000
  0.171023  0.010060  0.000000     24.000000
  0.020120  0.020120  0.000000     12.000000
  0.030181  0.020120  0.000000     24.000000
  0.040241  0.020120  0.000000     24.000000
  0.050301  0.020120  0.000000     24.000000
  0.060361  0.020120  0.000000     24.000000
  0.070421  0.020120  0.000000     24.000000
  0.080481  0.020120  0.000000     24.000000
  0.090542  0.020120  0.000000     24.000000
  0.100602  0.020120  0.000000     24.000000
  0.110662  0.020120  0.000000     24.000000
  0.120722  0.020120  0.000000     24.000000
  0.130782  0.020120  0.000000     24.000000
  0.140842  0.020120  0.000000     24.000000
  0.150903  0.020120  0.000000     24.000000
  0.160963  0.020120  0.000000     24.000000
  0.171023  0.020120  0.000000     24.000000
  0.030181  0.030181  0.000000     12.000000
  0.040241  0.030181  0.000000     24.000000
  0.050301  0.030181  0.000000     24.000000
  0.060361  0.030181  0.000000     24.000000
  0.070421  0.030181  0.000000     24.000000
  0.080481  0.030181  0.000000     24.000000
  0.090542  0.030181  0.000000     24.000000
  0.100602  0.030181  0.000000     24.000000
  0.110662  0.030181  0.000000     24.000000
  0.120722  0.030181  0.000000     24.000000
  0.130782  0.030181  0.000000     24.000000
  0.140842  0.030181  0.000000     24.000000
  0.150903  0.030181  0.000000     24.000000
  0.160963  0.030181  0.000000     24.000000
  0.171023  0.030181  0.000000     24.000000
  0.040241  0.040241  0.000000     12.000000
  0.050301  0.040241  0.000000     24.000000
  0.060361  0.040241  0.000000     24.000000
  0.070421  0.040241  0.000000     24.000000
  0.080481  0.040241  0.000000     24.000000
  0.090542  0.040241  0.000000     24.000000
  0.100602  0.040241  0.000000     24.000000
  0.110662  0.040241  0.000000     24.000000
  0.120722  0.040241  0.000000     24.000000
  0.130782  0.040241  0.000000     24.000000
  0.140842  0.040241  0.000000     24.000000
  0.150903  0.040241  0.000000     24.000000
  0.160963  0.040241  0.000000     24.000000
  0.171023  0.040241  0.000000     24.000000
  0.050301  0.050301  0.000000     12.000000
  0.060361  0.050301  0.000000     24.000000
  0.070421  0.050301  0.000000     24.000000
  0.080481  0.050301  0.000000     24.000000
  0.090542  0.050301  0.000000     24.000000
  0.100602  0.050301  0.000000     24.000000
  0.110662  0.050301  0.000000     24.000000
  0.120722  0.050301  0.000000     24.000000
  0.130782  0.050301  0.000000     24.000000
  0.140842  0.050301  0.000000     24.000000
  0.150903  0.050301  0.000000     24.000000
  0.160963  0.050301  0.000000     24.000000
  0.171023  0.050301  0.000000     24.000000
  0.060361  0.060361  0.000000     12.000000
  0.070421  0.060361  0.000000     24.000000
  0.080481  0.060361  0.000000     24.000000
  0.090542  0.060361  0.000000     24.000000
  0.100602  0.060361  0.000000     24.000000
  0.110662  0.060361  0.000000     24.000000
  0.120722  0.060361  0.000000     24.000000
  0.130782  0.060361  0.000000     24.000000
  0.140842  0.060361  0.000000     24.000000
  0.150903  0.060361  0.000000     24.000000
  0.160963  0.060361  0.000000     24.000000
  0.171023  0.060361  0.000000     24.000000
  0.070421  0.070421  0.000000     12.000000
  0.080481  0.070421  0.000000     24.000000
  0.090542  0.070421  0.000000     24.000000
  0.100602  0.070421  0.000000     24.000000
  0.110662  0.070421  0.000000     24.000000
  0.120722  0.070421  0.000000     24.000000
  0.130782  0.070421  0.000000     24.000000
  0.140842  0.070421  0.000000     24.000000
  0.150903  0.070421  0.000000     24.000000
  0.160963  0.070421  0.000000     24.000000
  0.171023  0.070421  0.000000     24.000000
  0.080481  0.080481  0.000000     12.000000
  0.090542  0.080481  0.000000     24.000000
  0.100602  0.080481  0.000000     24.000000
  0.110662  0.080481  0.000000     24.000000
  0.120722  0.080481  0.000000     24.000000
  0.130782  0.080481  0.000000     24.000000
  0.140842  0.080481  0.000000     24.000000
  0.150903  0.080481  0.000000     24.000000
  0.160963  0.080481  0.000000     24.000000
  0.171023  0.080481  0.000000     24.000000
  0.090542  0.090542  0.000000     12.000000
  0.100602  0.090542  0.000000     24.000000
  0.110662  0.090542  0.000000     24.000000
  0.120722  0.090542  0.000000     24.000000
  0.130782  0.090542  0.000000     24.000000
  0.140842  0.090542  0.000000     24.000000
  0.150903  0.090542  0.000000     24.000000
  0.160963  0.090542  0.000000     24.000000
  0.171023  0.090542  0.000000     24.000000
  0.100602  0.100602  0.000000     12.000000
  0.110662  0.100602  0.000000     24.000000
  0.120722  0.100602  0.000000     24.000000
  0.130782  0.100602  0.000000     24.000000
  0.140842  0.100602  0.000000     24.000000
  0.150903  0.100602  0.000000     24.000000
  0.160963  0.100602  0.000000     24.000000
  0.171023  0.100602  0.000000     24.000000
  0.110662  0.110662  0.000000     12.000000
  0.120722  0.110662  0.000000     24.000000
  0.130782  0.110662  0.000000     24.000000
  0.140842  0.110662  0.000000     24.000000
  0.150903  0.110662  0.000000     24.000000
  0.160963  0.110662  0.000000     24.000000
  0.171023  0.110662  0.000000     24.000000
  0.120722  0.120722  0.000000     12.000000
  0.130782  0.120722  0.000000     24.000000
  0.140842  0.120722  0.000000     24.000000
  0.150903  0.120722  0.000000     24.000000
  0.160963  0.120722  0.000000     24.000000
  0.171023  0.120722  0.000000     24.000000
  0.130782  0.130782  0.000000     12.000000
  0.140842  0.130782  0.000000     24.000000
  0.150903  0.130782  0.000000     24.000000
  0.160963  0.130782  0.000000     24.000000
  0.171023  0.130782  0.000000     24.000000
  0.140842  0.140842  0.000000     12.000000
  0.150903  0.140842  0.000000     24.000000
  0.160963  0.140842  0.000000     24.000000
  0.171023  0.140842  0.000000     24.000000
  0.150903  0.150903  0.000000     12.000000
  0.160963  0.150903  0.000000     24.000000
  0.171023  0.150903  0.000000     24.000000
  0.160963  0.160963  0.000000     12.000000
  0.171023  0.160963  0.000000     24.000000
  0.171023  0.171023  0.000000     12.000000
  0.010060  0.010060  0.010060      8.000000
  0.020120  0.010060  0.010060     24.000000
  0.030181  0.010060  0.010060     24.000000
  0.040241  0.010060  0.010060     24.000000
  0.050301  0.010060  0.010060     24.000000
  0.060361  0.010060  0.010060     24.000000
  0.070421  0.010060  0.010060     24.000000
  0.080481  0.010060  0.010060     24.000000
  0.090542  0.010060  0.010060     24.000000
  0.100602  0.010060  0.010060     24.000000
  0.110662  0.010060  0.010060     24.000000
  0.120722  0.010060  0.010060     24.000000
  0.130782  0.010060  0.010060     24.000000
  0.140842  0.010060  0.010060     24.000000
  0.150903  0.010060  0.010060     24.000000
  0.160963  0.010060  0.010060     24.000000
  0.171023  0.010060  0.010060     24.000000
  0.020120  0.020120  0.010060     24.000000
  0.030181  0.020120  0.010060     48.000000
  0.040241  0.020120  0.010060     48.000000
  0.050301  0.020120  0.010060     48.000000
  0.060361  0.020120  0.010060     48.000000
  0.070421  0.020120  0.010060     48.000000
  0.080481  0.020120  0.010060     48.000000
  0.090542  0.020120  0.010060     48.000000
  0.100602  0.020120  0.010060     48.000000
  0.110662  0.020120  0.010060     48.000000
  0.120722  0.020120  0.010060     48.000000
  0.130782  0.020120  0.010060     48.000000
  0.140842  0.020120  0.010060     48.000000
  0.150903  0.020120  0.010060     48.000000
  0.160963  0.020120  0.010060     48.000000
  0.171023  0.020120  0.010060     48.000000
  0.030181  0.030181  0.010060     24.000000
  0.040241  0.030181  0.010060     48.000000
  0.050301  0.030181  0.010060     48.000000
  0.060361  0.030181  0.010060     48.000000
  0.070421  0.030181  0.010060     48.000000
  0.080481  0.030181  0.010060     48.000000
  0.090542  0.030181  0.010060     48.000000
  0.100602  0.030181  0.010060     48.000000
  0.110662  0.030181  0.010060     48.000000
  0.120722  0.030181  0.010060     48.000000
  0.130782  0.030181  0.010060     48.000000
  0.140842  0.030181  0.010060     48.000000
  0.150903  0.030181  0.010060     48.000000
  0.160963  0.030181  0.010060     48.000000
  0.171023  0.030181  0.010060     48.000000
  0.040241  0.040241  0.010060     24.000000
  0.050301  0.040241  0.010060     48.000000
  0.060361  0.040241  0.010060     48.000000
  0.070421  0.040241  0.010060     48.000000
  0.080481  0.040241  0.010060     48.000000
  0.090542  0.040241  0.010060     48.000000
  0.100602  0.040241  0.010060     48.000000
  0.110662  0.040241  0.010060     48.000000
  0.120722  0.040241  0.010060     48.000000
  0.130782  0.040241  0.010060     48.000000
  0.140842  0.040241  0.010060     48.000000
  0.150903  0.040241  0.010060     48.000000
  0.160963  0.040241  0.010060     48.000000
  0.171023  0.040241  0.010060     48.000000
  0.050301  0.050301  0.010060     24.000000
  0.060361  0.050301  0.010060     48.000000
  0.070421  0.050301  0.010060     48.000000
  0.080481  0.050301  0.010060     48.000000
  0.090542  0.050301  0.010060     48.000000
  0.100602  0.050301  0.010060     48.000000
  0.110662  0.050301  0.010060     48.000000
  0.120722  0.050301  0.010060     48.000000
  0.130782  0.050301  0.010060     48.000000
  0.140842  0.050301  0.010060     48.000000
  0.150903  0.050301  0.010060     48.000000
  0.160963  0.050301  0.010060     48.000000
  0.171023  0.050301  0.010060     48.000000
  0.060361  0.060361  0.010060     24.000000
  0.070421  0.060361  0.010060     48.000000
  0.080481  0.060361  0.010060     48.000000
  0.090542  0.060361  0.010060     48.000000
  0.100602  0.060361  0.010060     48.000000
  0.110662  0.060361  0.010060     48.000000
  0.120722  0.060361  0.010060     48.000000
  0.130782  0.060361  0.010060     48.000000
  0.140842  0.060361  0.010060     48.000000
  0.150903  0.060361  0.010060     48.000000
  0.160963  0.060361  0.010060     48.000000
  0.171023  0.060361  0.010060     48.000000
  0.070421  0.070421  0.010060     24.000000
  0.080481  0.070421  0.010060     48.000000
  0.090542  0.070421  0.010060     48.000000
  0.100602  0.070421  0.010060     48.000000
  0.110662  0.070421  0.010060     48.000000
  0.120722  0.070421  0.010060     48.000000
  0.130782  0.070421  0.010060     48.000000
  0.140842  0.070421  0.010060     48.000000
  0.150903  0.070421  0.010060     48.000000
  0.160963  0.070421  0.010060     48.000000
  0.171023  0.070421  0.010060     48.000000
  0.080481  0.080481  0.010060     24.000000
  0.090542  0.080481  0.010060     48.000000
  0.100602  0.080481  0.010060     48.000000
  0.110662  0.080481  0.010060     48.000000
  0.120722  0.080481  0.010060     48.000000
  0.130782  0.080481  0.010060     48.000000
  0.140842  0.080481  0.010060     48.000000
  0.150903  0.080481  0.010060     48.000000
  0.160963  0.080481  0.010060     48.000000
  0.171023  0.080481  0.010060     48.000000
  0.090542  0.090542  0.010060     24.000000
  0.100602  0.090542  0.010060     48.000000
  0.110662  0.090542  0.010060     48.000000
  0.120722  0.090542  0.010060     48.000000
  0.130782  0.090542  0.010060     48.000000
  0.140842  0.090542  0.010060     48.000000
  0.150903  0.090542  0.010060     48.000000
[...]
     19      18.6007      0.00000
     20      19.8518      0.00000
     21      20.1116      0.00000
     22      20.5646      0.00000
     23      21.6577      0.00000
     24      22.4428      0.00000

 k-point  1135 :       0.4857    0.4571    0.4286
  band No.  band energies     occupation 
      1     -41.9218      1.00000
      2     -41.9142      1.00000
      3     -41.8677      1.00000
      4     -41.8505      1.00000
      5     -41.8083      1.00000
      6     -41.8000      1.00000
      7       7.7020      1.00000
      8       7.7465      1.00000
      9       7.8342      1.00000
     10       7.8734      1.00000
     11       8.0004      1.00000
     12       8.0207      1.00000
     13      11.5440      0.00000
     14      11.5451      0.00000
     15      11.5641      0.00000
     16      11.5651      0.00000
     17      17.3860      0.00000
     18      17.7128      0.00000
     19      18.9532      0.00000
     20      19.4020      0.00000
     21      20.2663      0.00000
     22      20.4557      0.00000
     23      21.7310      0.00000
     24      22.0309      0.00000

 k-point  1136 :       0.4857    0.4857    0.4286
  band No.  band energies     occupation 
      1     -41.9142      1.00000
      2     -41.9110      1.00000
      3     -41.8622      1.00000
      4     -41.8550      1.00000
      5     -41.8128      1.00000
      6     -41.8092      1.00000
      7       7.7405      1.00000
      8       7.7714      1.00000
      9       7.8030      1.00000
     10       7.8322      1.00000
     11       8.0208      1.00000
     12       8.0276      1.00000
     13      11.5481      0.00000
     14      11.5485      0.00000
     15      11.5698      0.00000
     16      11.5701      0.00000
     17      17.6927      0.00000
     18      17.8466      0.00000
     19      18.9047      0.00000
     20      19.0993      0.00000
     21      20.4090      0.00000
     22      20.5041      0.00000
     23      21.5554      0.00000
     24      21.6873      0.00000

 k-point  1137 :       0.4571    0.4571    0.4571
  band No.  band energies     occupation 
      1     -41.9185      1.00000
      2     -41.8902      1.00000
      3     -41.8902      1.00000
      4     -41.8313      1.00000
      5     -41.8313      1.00000
      6     -41.8029      1.00000
      7       7.7057      1.00000
      8       7.8257      1.00000
      9       7.8257      1.00000
     10       7.9301      1.00000
     11       7.9515      1.00000
     12       7.9515      1.00000
     13      11.5578      0.00000
     14      11.5578      0.00000
     15      11.5597      0.00000
     16      11.5597      0.00000
     17      17.4154      0.00000
     18      18.4273      0.00000
     19      18.4273      0.00000
     20      19.9974      0.00000
     21      20.0174      0.00000
     22      20.0174      0.00000
     23      21.4141      0.00000
     24      21.9915      0.00000

 k-point  1138 :       0.4857    0.4571    0.4571
  band No.  band energies     occupation 
      1     -41.9077      1.00000
      2     -41.8983      1.00000
      3     -41.8705      1.00000
      4     -41.8508      1.00000
      5     -41.8243      1.00000
      6     -41.8146      1.00000
      7       7.7470      1.00000
      8       7.7912      1.00000
      9       7.8549      1.00000
     10       7.8967      1.00000
     11       7.9532      1.00000
     12       7.9647      1.00000
     13      11.5590      0.00000
     14      11.5597      0.00000
     15      11.5668      0.00000
     16      11.5674      0.00000
     17      17.7894      0.00000
     18      18.1388      0.00000
     19      18.9480      0.00000
     20      19.4783      0.00000
     21      20.0216      0.00000
     22      20.0695      0.00000
     23      21.4013      0.00000
     24      21.6231      0.00000

 k-point  1139 :       0.4857    0.4857    0.4571
  band No.  band energies     occupation 
      1     -41.8966      1.00000
      2     -41.8914      1.00000
      3     -41.8663      1.00000
      4     -41.8552      1.00000
      5     -41.8321      1.00000
      6     -41.8266      1.00000
      7       7.7873      1.00000
      8       7.8225      1.00000
      9       7.8358      1.00000
     10       7.8707      1.00000
     11       7.9524      1.00000
     12       7.9558      1.00000
     13      11.5639      0.00000
     14      11.5641      0.00000
     15      11.5713      0.00000
     16      11.5715      0.00000
     17      18.1530      0.00000
     18      18.3597      0.00000
     19      18.9653      0.00000
     20      19.2598      0.00000
     21      19.9542      0.00000
     22      19.9555      0.00000
     23      21.2497      0.00000
     24      21.3364      0.00000

 k-point  1140 :       0.4857    0.4857    0.4857
  band No.  band energies     occupation 
      1     -41.8814      1.00000
      2     -41.8716      1.00000
      3     -41.8716      1.00000
      4     -41.8518      1.00000
      5     -41.8518      1.00000
      6     -41.8419      1.00000
      7       7.8245      1.00000
      8       7.8539      1.00000
      9       7.8539      1.00000
     10       7.8981      1.00000
     11       7.8981      1.00000
     12       7.9118      1.00000
     13      11.5721      0.00000
     14      11.5721      0.00000
     15      11.5721      0.00000
     16      11.5721      0.00000
     17      18.5778      0.00000
     18      18.8826      0.00000
     19      18.8826      0.00000
     20      19.4148      0.00000
     21      19.4148      0.00000
     22      19.6107      0.00000
     23      21.0922      0.00000
     24      21.1228      0.00000


--------------------------------------------------------------------------------------------------------


 soft charge-density along one line, spin component           1
         0         1         2         3         4         5         6         7         8         9
 total charge-density along one line
 
 soft charge-density along one line, spin component           2
         0         1         2         3         4         5         6         7         8         9
 total charge-density along one line
 
 pseudopotential strength for first ion, spin component:           1
-44.850   0.000   0.000   7.567  -0.000  -0.000  -0.000  -0.000
  0.000 -44.850  -0.000  -0.000   7.567   0.000   0.000  -0.000
  0.000  -0.000 -44.850  -0.000   0.000   7.567  -0.000   0.000
  7.567  -0.000  -0.000   5.639  -0.000  -0.000   0.000   0.000
 -0.000   7.567   0.000  -0.000   5.639  -0.000  -0.000   0.000
 -0.000   0.000   7.567  -0.000  -0.000   5.639   0.000  -0.000
 -0.000   0.000  -0.000   0.000  -0.000   0.000  -1.976  -0.000
 -0.000  -0.000   0.000   0.000   0.000  -0.000  -0.000  -1.976
  0.000  -0.000   0.000  -0.000   0.000  -0.000  -0.000   0.000
  0.000  -0.000  -0.000  -0.000   0.000   0.000   0.000   0.000
  0.000  -0.000   0.000  -0.000   0.000   0.000  -0.000  -0.000
 -0.000   0.000  -0.000   0.000  -0.000   0.000  -2.491  -0.000
 -0.000  -0.000   0.000   0.000   0.000  -0.000  -0.000  -2.491
  0.000  -0.000   0.000  -0.000   0.000  -0.000  -0.000   0.000
  0.000  -0.000  -0.000  -0.000   0.000   0.000   0.000   0.000
  0.000  -0.000   0.000  -0.000   0.000   0.000  -0.000  -0.000
  0.000   0.000   0.000   0.000   0.000  -0.000  -0.000  -0.000
  0.000   0.000   0.000   0.000   0.000  -0.000  -0.000  -0.000
 pseudopotential strength for first ion, spin component:           2
-42.872   0.000   0.000   6.731  -0.000  -0.000  -0.000  -0.000
  0.000 -42.872  -0.000  -0.000   6.731   0.000   0.000  -0.000
  0.000  -0.000 -42.872  -0.000   0.000   6.731  -0.000   0.000
  6.731  -0.000  -0.000   5.868  -0.000  -0.000   0.000   0.000
 -0.000   6.731   0.000  -0.000   5.868   0.000  -0.000   0.000
 -0.000   0.000   6.731  -0.000   0.000   5.868   0.000  -0.000
 -0.000   0.000  -0.000   0.000  -0.000   0.000  -0.442  -0.000
 -0.000  -0.000   0.000   0.000   0.000  -0.000  -0.000  -0.442
  0.000  -0.000   0.000  -0.000   0.000  -0.000  -0.000   0.000
  0.000  -0.000  -0.000  -0.000   0.000   0.000   0.000   0.000
  0.000  -0.000  -0.000  -0.000   0.000   0.000   0.000  -0.000
 -0.000   0.000  -0.000   0.000  -0.000   0.000  -0.983  -0.000
 -0.000  -0.000   0.000   0.000   0.000  -0.000  -0.000  -0.983
  0.000  -0.000   0.000  -0.000   0.000  -0.000  -0.000   0.000
  0.000  -0.000  -0.000  -0.000   0.000   0.000   0.000   0.000
  0.000  -0.000  -0.000  -0.000   0.000   0.000   0.000  -0.000
  0.000   0.000   0.000   0.000   0.000   0.000  -0.000  -0.000
  0.000   0.000   0.000   0.000   0.000   0.000  -0.000  -0.000
 total augmentation occupancy for first ion, spin component:           1
  1.992   0.000   0.000  -0.026  -0.000  -0.000   0.000   0.000   0.000  -0.000   0.000   0.000   0.000   0.000   0.000   0.000
  0.000   1.992   0.000   0.000  -0.026   0.000   0.000   0.000   0.000   0.000   0.000  -0.000   0.000   0.000   0.000  -0.000
  0.000   0.000   1.992   0.000  -0.000  -0.026   0.000   0.000  -0.000   0.000  -0.000  -0.000   0.000   0.000   0.000   0.000
 -0.026   0.000  -0.000   0.200   0.000  -0.000   0.000  -0.000  -0.000   0.000   0.000   0.000   0.000   0.000   0.000   0.000
 -0.000  -0.026   0.000  -0.000   0.200  -0.000  -0.000  -0.000   0.000  -0.000  -0.000  -0.000   0.000   0.000   0.000  -0.000
  0.000   0.000  -0.026  -0.000   0.000   0.200   0.000   0.000  -0.000   0.000   0.000   0.000   0.000  -0.000   0.000   0.000
  0.000   0.000   0.000   0.000   0.000   0.000   2.191   0.000   0.000  -0.000  -0.000  -1.240   0.000   0.000   0.000   0.000
  0.000   0.000   0.000   0.000   0.000   0.000   0.000   2.191   0.000   0.000  -0.000   0.000  -1.240  -0.000  -0.000  -0.000
  0.000   0.000   0.000   0.000   0.000   0.000   0.000  -0.000   3.390   0.000   0.000   0.000   0.000  -2.174  -0.000   0.000
 -0.000   0.000   0.000   0.000   0.000   0.000  -0.000  -0.000   0.000   2.191  -0.000  -0.000   0.000   0.000  -1.240   0.000
  0.000   0.000   0.000   0.000   0.000   0.000  -0.000  -0.000  -0.000  -0.000   3.390   0.000  -0.000   0.000  -0.000  -2.174
  0.000   0.000  -0.000   0.000   0.000   0.000  -1.240   0.000   0.000   0.000  -0.000   1.665  -0.000   0.000   0.000   0.000
  0.000   0.000   0.000   0.000   0.000   0.000  -0.000  -1.240  -0.000   0.000   0.000  -0.000   1.665   0.000  -0.000   0.000
 -0.000   0.000   0.000  -0.000   0.000   0.000   0.000   0.000  -2.174   0.000   0.000  -0.000  -0.000   2.221  -0.000  -0.000
  0.000   0.000   0.000   0.000   0.000   0.000  -0.000  -0.000  -0.000  -1.240  -0.000   0.000  -0.000   0.000   1.665  -0.000
 -0.000  -0.000   0.000   0.000  -0.000   0.000  -0.000  -0.000  -0.000   0.000  -2.174   0.000   0.000   0.000  -0.000   2.221
  0.000   0.000   0.000   0.000   0.000   0.000  -0.000   0.000  -0.000  -0.000  -0.000   0.000   0.000   0.000  -0.000  -0.000
  0.000   0.000   0.000  -0.000   0.000   0.000  -0.000  -0.000   0.000   0.000  -0.000   0.000   0.000  -0.000  -0.000  -0.000
 total augmentation occupancy for first ion, spin component:           2
 -0.002   0.000   0.000  -0.009   0.000   0.000   0.000   0.000   0.000   0.000   0.000   0.000   0.000  -0.000   0.000  -0.000
  0.000  -0.002   0.000  -0.000  -0.009  -0.000   0.000   0.000   0.000   0.000   0.000  -0.000   0.000   0.000   0.000  -0.000
  0.000   0.000  -0.002   0.000   0.000  -0.009   0.000   0.000  -0.000   0.000   0.000  -0.000   0.000   0.000   0.000   0.000
 -0.009  -0.000  -0.000  -0.018   0.000   0.000   0.000   0.000  -0.000   0.000   0.000   0.000   0.000   0.000   0.000   0.000
  0.000  -0.009  -0.000  -0.000  -0.018  -0.000   0.000   0.000   0.000   0.000   0.000   0.000   0.000   0.000   0.000   0.000
 -0.000  -0.000  -0.009   0.000   0.000  -0.018  -0.000   0.000   0.000  -0.000   0.000   0.000   0.000   0.000   0.000   0.000
  0.000   0.000   0.000   0.000   0.000   0.000   1.780   0.000  -0.000  -0.000   0.000  -0.674   0.000  -0.000   0.000   0.000
  0.000   0.000   0.000   0.000   0.000   0.000   0.000   1.780  -0.000   0.000  -0.000   0.000  -0.674   0.000   0.000  -0.000
 -0.000   0.000   0.000   0.000   0.000  -0.000   0.000  -0.000   2.802  -0.000   0.000  -0.000   0.000  -1.149  -0.000   0.000
  0.000   0.000   0.000   0.000   0.000   0.000  -0.000   0.000  -0.000   1.780  -0.000   0.000   0.000   0.000  -0.674  -0.000
 -0.000   0.000   0.000  -0.000   0.000  -0.000   0.000   0.000   0.000  -0.000   2.802  -0.000  -0.000  -0.000   0.000  -1.149
  0.000  -0.000  -0.000   0.000   0.000   0.000  -0.674   0.000  -0.000  -0.000  -0.000   0.001   0.000  -0.000   0.000  -0.000
  0.000   0.000   0.000   0.000   0.000   0.000   0.000  -0.674   0.000  -0.000  -0.000   0.000   0.001   0.000   0.000  -0.000
  0.000   0.000   0.000   0.000   0.000   0.000  -0.000   0.000  -1.149   0.000  -0.000  -0.000  -0.000   0.230   0.000   0.000
  0.000   0.000   0.000   0.000   0.000   0.000   0.000  -0.000  -0.000  -0.674  -0.000  -0.000   0.000   0.000   0.001   0.000
 -0.000   0.000   0.000   0.000   0.000   0.000   0.000  -0.000  -0.000   0.000  -1.149  -0.000  -0.000  -0.000   0.000   0.230
  0.000   0.000   0.000   0.000   0.000   0.000   0.000   0.000  -0.000   0.000   0.000   0.000   0.000  -0.000  -0.000  -0.000
  0.000   0.000   0.000  -0.000  -0.000  -0.000  -0.000   0.000  -0.000   0.000  -0.000  -0.000   0.000   0.000  -0.000   0.000


------------------------ aborting loop because EDIFF is reached ----------------------------------------


 


 total charge     
 
# of ion       s       p       d       tot
------------------------------------------
    1        0.385   6.376   6.077  12.838
    2        0.385   6.376   6.077  12.838
--------------------------------------------------
tot          0.770  12.752  12.155  25.677
 


 magnetization (x)
 
# of ion       s       p       d       tot
------------------------------------------
    1       -0.008  -0.039   2.300   2.253
    2       -0.008  -0.039   2.300   2.253
--------------------------------------------------
tot         -0.016  -0.078   4.599   4.506
 
    CHARGE:  cpu time    0.4139: real time    0.4150
    FORLOC:  cpu time    0.0002: real time    0.0002
    FORNL :  cpu time    3.2804: real time    3.2887
    STRESS:  cpu time    9.8076: real time    9.8323
    FORCOR:  cpu time    0.0099: real time    0.0099
    FORHAR:  cpu time    0.0011: real time    0.0011
    MIXING:  cpu time    0.0006: real time    0.0006
    OFIELD:  cpu time    0.0000: real time    0.0000

  FORCE on cell =-STRESS in cart. coord.  units (eV):
  Direction    XX          YY          ZZ          XY          YZ          ZX
  --------------------------------------------------------------------------------------
  Alpha Z   218.87049   218.87049   218.87049
  Ewald   -1205.52018 -1205.52018 -1205.52018    -0.00000    -0.00000    -0.00000
  Hartree   363.40874   363.40874   363.40874    -0.00000    -0.00000    -0.00000
  E(xc)    -179.80242  -179.80242  -179.80242     0.00000     0.00000    -0.00000
  Local     289.66411   289.66411   289.66411    -0.00000     0.00000    -0.00000
  n-local   -60.33837   -54.15579   -50.47317     2.78597    -1.47136     0.58873
  augment   285.34790   285.34790   285.34790     0.00000     0.00000     0.00000
  Kinetic   283.92601   282.58914   281.96121     3.04112    -0.75173     0.02617
  Fock        0.00000     0.00000     0.00000     0.00000     0.00000     0.00000
  -------------------------------------------------------------------------------------
  Total      -0.19501    -0.19501    -0.19501     0.00000     0.00000    -0.00000
  in kB     -13.63926   -13.63926   -13.63926     0.00000     0.00000    -0.00000
  external pressure =      -13.64 kB  Pullay stress =        0.00 kB


 VOLUME and BASIS-vectors are now :
 -----------------------------------------------------------------------------
  energy-cutoff  :      920.00
  volume of cell :       22.91
      direct lattice vectors                 reciprocal lattice vectors
     2.840052000  0.000000000  0.000000000     0.352106229  0.000000000  0.000000000
     0.000000000  2.840052000  0.000000000     0.000000000  0.352106229  0.000000000
     0.000000000  0.000000000  2.840052000     0.000000000  0.000000000  0.352106229

  length of vectors
     2.840052000  2.840052000  2.840052000     0.352106229  0.352106229  0.352106229


 FORCES acting on ions
    electron-ion (+dipol)            ewald-force                    non-local-force                 convergence-correction
 -----------------------------------------------------------------------------------------------
   0.425E-13 -.268E-13 -.451E-13   -.529E-15 -.103E-14 -.897E-14   0.000E+00 0.000E+00 0.000E+00   -.338E-13 0.822E-14 -.323E-14
   0.873E-12 0.748E-11 0.865E-11   0.472E-14 0.447E-14 0.926E-14   0.000E+00 0.000E+00 0.000E+00   -.142E-12 -.151E-13 -.124E-12
 -----------------------------------------------------------------------------------------------
   0.916E-12 0.745E-11 0.861E-11   0.419E-14 0.343E-14 0.284E-15   0.000E+00 0.000E+00 0.000E+00   -.175E-12 -.690E-14 -.127E-12
 
 
 POSITION                                       TOTAL-FORCE (eV/Angst)
 -----------------------------------------------------------------------------------
      0.00000      0.00000      0.00000        -0.000000     -0.000000     -0.000000
      1.42003      1.42003      1.42003         0.000000      0.000000      0.000000
 -----------------------------------------------------------------------------------
    total drift:                                0.000000      0.000000      0.000000


--------------------------------------------------------------------------------------------------------



  FREE ENERGIE OF THE ION-ELECTRON SYSTEM (eV)
  ---------------------------------------------------
  free  energy   TOTEN  =       -16.51547091 eV

  energy  without entropy=      -16.51547091  energy(sigma->0) =      -16.51547091
 


--------------------------------------------------------------------------------------------------------


    POTLOK:  cpu time    0.0154: real time    0.0154


--------------------------------------------------------------------------------------------------------


     LOOP+:  cpu time  295.6789: real time  296.4545
    4ORBIT:  cpu time    0.0000: real time    0.0000
 


 total charge     
 
# of ion       s       p       d       tot
------------------------------------------
    1        0.385   6.376   6.077  12.838
    2        0.385   6.376   6.077  12.838
--------------------------------------------------
tot          0.770  12.752  12.155  25.677
 


 magnetization (x)
 
# of ion       s       p       d       tot
------------------------------------------
    1       -0.008  -0.039   2.300   2.253
    2       -0.008  -0.039   2.300   2.253
--------------------------------------------------
tot         -0.016  -0.078   4.599   4.506
 
 BZINTS: Fermi energy:  9.638899; 28.000000 electrons
         Band energy:-399.010032;  BLOECHL correction: -0.004827

 total amount of memory used by VASP MPI-rank0    89503. kBytes
=======================================================================

   base      :      30000. kBytes
   nonlr-proj:        945. kBytes
   fftplans  :        478. kBytes
   grid      :       1141. kBytes
   one-center:         31. kBytes
   wavefun   :      56908. kBytes
 
  
  
 General timing and accounting informations for this job:
 ========================================================
  
                  Total CPU time used (sec):      311.864
                            User time (sec):      308.965
                          System time (sec):        2.899
                         Elapsed time (sec):      312.765
  
                   Maximum memory used (kb):      170016.
                   Average memory used (kb):           0.
  
                          Minor page faults:        68395
                          Major page faults:            0
                 Voluntary context switches:          239
