=========================================
SLURM_JOB_ID = 31881295
SLURM_JOB_NODELIST = lnode26
SLURM_GPUS = 
SLURM_CPUS_ON_NODE = 8
SLURM_JOB_PARTITION = lenovo
SLURM_TASK_PID = 2747514
CUDA_VISIBLE_DEVICES = 
==========================================
 running on    8 total cores
 distrk:  each k-point on    8 cores,    1 groups
 distr:  one band on    4 cores,    2 groups
 using from now: INCAR     
 vasp.5.4.4.18Apr17-6-g9f103f2a35 (build Apr 28 2018 00:24:27) complex          
  
 POSCAR found type information on POSCAR  Eu O 
 POSCAR found :  2 types and       4 ions
 scaLAPACK will be used
 LDA part: xc-table for Pade appr. of Perdew
 generate k-points for:    5    5    3
 POSCAR, INCAR and KPOINTS ok, starting setup
 FFT: planning ...
 WAVECAR not read
 entering main loop
       N       E                     dE             d eps       ncg     rms          rms(c)
DAV:   1     0.436907951829E+03    0.43691E+03   -0.18311E+04  3192   0.353E+03
DAV:   2     0.557208605239E+02   -0.38119E+03   -0.35507E+03  3592   0.420E+02
DAV:   3    -0.364795405747E+02   -0.92200E+02   -0.90243E+02  4584   0.265E+02
DAV:   4    -0.441094591636E+02   -0.76299E+01   -0.72982E+01  4668   0.689E+01
DAV:   5    -0.450134954267E+02   -0.90404E+00   -0.79904E+00  5040   0.190E+01    0.268E+01
DAV:   6    -0.855788941318E+02   -0.40565E+02   -0.66955E+02  4432   0.227E+02    0.108E+02
DAV:   7    -0.283197872495E+02    0.57259E+02   -0.46834E+02  4268   0.122E+02    0.261E+01
DAV:   8    -0.410012940531E+02   -0.12682E+02   -0.97810E+01  4296   0.624E+01    0.206E+01
DAV:   9    -0.414455203273E+02   -0.44423E+00   -0.90026E+00  4304   0.219E+01    0.121E+01
DAV:  10    -0.416609037099E+02   -0.21538E+00   -0.18853E+00  5056   0.107E+01    0.790E+00
DAV:  11    -0.416918452475E+02   -0.30942E-01   -0.48435E-01  5092   0.601E+00    0.512E+00
DAV:  12    -0.416205774244E+02    0.71268E-01   -0.96475E-01  4144   0.871E+00    0.188E+00
DAV:  13    -0.416219092354E+02   -0.13318E-02   -0.19538E-01  5232   0.414E+00    0.178E+00
DAV:  14    -0.416191842862E+02    0.27249E-02   -0.10898E-02  3752   0.913E-01    0.170E+00
DAV:  15    -0.416078080890E+02    0.11376E-01   -0.31519E-02  4232   0.175E+00    0.150E+00
DAV:  16    -0.416070733342E+02    0.73475E-03   -0.10715E-02  5120   0.110E+00    0.118E+00
DAV:  17    -0.416064079777E+02    0.66536E-03   -0.11937E-02  4808   0.957E-01    0.680E-01
DAV:  18    -0.416069486399E+02   -0.54066E-03   -0.38562E-03  4392   0.564E-01    0.407E-01
DAV:  19    -0.416071441561E+02   -0.19552E-03   -0.84071E-04  5276   0.279E-01    0.232E-01
DAV:  20    -0.416071636294E+02   -0.19473E-04   -0.90930E-04  4424   0.314E-01    0.528E-02
DAV:  21    -0.416071794385E+02   -0.15809E-04   -0.90443E-05  4712   0.800E-02    0.348E-02
DAV:  22    -0.416071603868E+02    0.19052E-04   -0.10978E-04  3832   0.846E-02    0.103E-02
DAV:  23    -0.416071614701E+02   -0.10833E-05   -0.93372E-06  4056   0.290E-02    0.111E-02
DAV:  24    -0.416071614169E+02    0.53215E-07   -0.49022E-07  1912   0.126E-02
   1 F= -.41607161E+02 E0= -.41610174E+02  d E =0.903688E-02  mag=    -0.0000
