=========================================
SLURM_JOB_ID = 31413422
SLURM_JOB_NODELIST = lnode15
SLURM_GPUS = 
SLURM_CPUS_ON_NODE = 8
SLURM_JOB_PARTITION = lenovo
SLURM_TASK_PID = 1793818
CUDA_VISIBLE_DEVICES = 
==========================================
 running on    8 total cores
 distrk:  each k-point on    8 cores,    1 groups
 distr:  one band on    4 cores,    2 groups
 using from now: INCAR     
 vasp.5.4.4.18Apr17-6-g9f103f2a35 (build Apr 28 2018 00:24:27) complex          
  
 POSCAR found type information on POSCAR  Eu O 
 POSCAR found :  2 types and       4 ions
 scaLAPACK will be used
 LDA part: xc-table for Pade appr. of Perdew
 POSCAR, INCAR and KPOINTS ok, starting setup
 FFT: planning ...
 WAVECAR not read
 entering main loop
       N       E                     dE             d eps       ncg     rms          rms(c)
DAV:   1     0.433425698315E+03    0.43343E+03   -0.18419E+04  4312   0.353E+03
DAV:   2     0.567020675895E+02   -0.37672E+03   -0.35191E+03  4696   0.410E+02
DAV:   3    -0.363364575542E+02   -0.93039E+02   -0.91135E+02  6244   0.260E+02
DAV:   4    -0.441574669624E+02   -0.78210E+01   -0.74395E+01  6196   0.700E+01
DAV:   5    -0.450153166277E+02   -0.85785E+00   -0.79929E+00  6632   0.191E+01    0.268E+01
DAV:   6    -0.860366647793E+02   -0.41021E+02   -0.66758E+02  5932   0.228E+02    0.109E+02
DAV:   7    -0.275654975663E+02    0.58471E+02   -0.46810E+02  5632   0.121E+02    0.268E+01
DAV:   8    -0.408863725459E+02   -0.13321E+02   -0.10461E+02  5732   0.630E+01    0.211E+01
DAV:   9    -0.414303069475E+02   -0.54393E+00   -0.10852E+01  5704   0.226E+01    0.122E+01
DAV:  10    -0.416246705600E+02   -0.19436E+00   -0.18604E+00  6752   0.106E+01    0.820E+00
DAV:  11    -0.416912642593E+02   -0.66594E-01   -0.42146E-01  6728   0.533E+00    0.546E+00
DAV:  12    -0.416353770370E+02    0.55887E-01   -0.11763E+00  5668   0.914E+00    0.196E+00
DAV:  13    -0.416268362367E+02    0.85408E-02   -0.18353E-01  6780   0.362E+00    0.180E+00
DAV:  14    -0.416225501445E+02    0.42861E-02   -0.15686E-02  5144   0.900E-01    0.166E+00
DAV:  15    -0.416108378605E+02    0.11712E-01   -0.24407E-02  6308   0.114E+00    0.145E+00
DAV:  16    -0.416105077359E+02    0.33012E-03   -0.17634E-02  6400   0.128E+00    0.984E-01
DAV:  17    -0.416113855964E+02   -0.87786E-03   -0.63765E-03  6616   0.560E-01    0.600E-01
DAV:  18    -0.416119965322E+02   -0.61094E-03   -0.21250E-03  5824   0.408E-01    0.279E-01
DAV:  19    -0.416120770801E+02   -0.80548E-04   -0.38934E-04  7104   0.168E-01    0.177E-01
DAV:  20    -0.416120641343E+02    0.12946E-04   -0.64513E-04  5448   0.234E-01    0.587E-02
DAV:  21    -0.416120659224E+02   -0.17881E-05   -0.46262E-05  6632   0.624E-02    0.233E-02
DAV:  22    -0.416120560349E+02    0.98875E-05   -0.53783E-05  4960   0.543E-02    0.908E-03
DAV:  23    -0.416120564516E+02   -0.41661E-06   -0.86320E-06  4392   0.257E-02
   1 F= -.41612056E+02 E0= -.41617223E+02  d E =0.154989E-01  mag=    -0.0000
