 vasp.5.4.4.18Apr17-6-g9f103f2a35 (build Apr 28 2018 00:24:27) complex          
  
 executed on             LinuxIFC date 2021.03.25  01:51:13
 running on    8 total cores
 distrk:  each k-point on    8 cores,    1 groups
 distr:  one band on NCORES_PER_BAND=   4 cores,    2 groups


--------------------------------------------------------------------------------------------------------


 INCAR:
 POTCAR:    PAW_PBE Eu 23Dec2003                  
 POTCAR:    PAW_PBE O 08Apr2002                   
 POTCAR:    PAW_PBE Eu 23Dec2003                  
   SHA256 =  ed303d27e7c5191953f9b15539336e6f36d9037c1d2e92e80c13d733697cb93d Eu
   COPYR  = (c) Copyright 23Dec2003 Georg Kresse                                
   COPYR  = This file is part of the software VASP. Any use, copying, and all ot
   COPYR  = If you do not have a valid VASP license, you may not use, copy or di
   VRHFIN =Eu : [core=Kr4d]                                                     
   LEXCH  = PE                                                                  
   EATOM  =  2619.8085 eV,  192.5505 Ry                                         
                                                                                
   TITEL  = PAW_PBE Eu 23Dec2003                                                
   LULTRA =        F    use ultrasoft PP ?                                      
   IUNSCR =        1    unscreen: 0-lin 1-nonlin 2-no                           
   RPACOR =    2.300    partial core radius                                     
   POMASS =  151.965; ZVAL   =   17.000    mass and valenz                      
   RCORE  =    2.800    outmost cutoff radius                                   
   RWIGS  =    2.800; RWIGS  =    1.482    wigner-seitz radius (au A)           
   ENMAX  =  249.668; ENMIN  =  187.251 eV                                      
   RCLOC  =    2.308    cutoff for local pot                                    
   LCOR   =        T    correct aug charges                                     
   LPAW   =        T    paw PP                                                  
   EAUG   =  549.628                                                            
   DEXC   =    0.000                                                            
   RMAX   =    2.870    core radius for proj-oper                               
   RAUG   =    1.300    factor for augmentation sphere                          
   RDEP   =    2.887    radius for radial grids                                 
   RDEPT  =    2.221    core radius for aug-charge                              
                                                                                
   Atomic configuration                                                         
   14 entries                                                                   
     n  l   j            E        occ.                                          
     1  0  0.50    -48354.7667   2.0000                                         
     2  0  0.50     -7939.6472   2.0000                                         
     2  1  1.50     -7072.6637   6.0000                                         
     3  0  0.50     -1747.1875   2.0000                                         
     3  1  1.50     -1477.5221   6.0000                                         
     3  2  2.50     -1117.4686  10.0000                                         
     4  0  0.50      -346.8682   2.0000                                         
     4  1  1.50      -258.1962   6.0000                                         
     4  2  2.50      -134.7724  10.0000                                         
     5  0  0.50       -44.6510   2.0000                                         
     6  0  0.50        -3.6227   2.0000                                         
     5  1  1.50       -23.7639   6.0000                                         
     5  2  2.50        -1.3130   0.0000                                         
     4  3  2.50        -2.7310   7.0000                                         
   Description                                                                  
     l       E           TYP  RCUT    TYP  RCUT                                 
     0    -44.6510453     23  2.400                                             
     0     -3.6226685     23  2.400                                             
     1    -23.7638687     23  2.400                                             
     1     27.2116520     23  2.400                                             
     2     -1.3129622     23  2.500                                             
     2     13.6058260     23  2.500                                             
     3     -2.7309948     23  2.800                                             
     3     -3.4014565     23  2.800                                             
  local pseudopotential read in
  partial core-charges read in
  partial kinetic energy density read in
  atomic valenz-charges read in
  non local Contribution for L=           0  read in
    real space projection operators read in
  non local Contribution for L=           0  read in
    real space projection operators read in
  non local Contribution for L=           1  read in
    real space projection operators read in
  non local Contribution for L=           1  read in
    real space projection operators read in
  non local Contribution for L=           2  read in
    real space projection operators read in
  non local Contribution for L=           2  read in
    real space projection operators read in
  non local Contribution for L=           3  read in
    real space projection operators read in
  non local Contribution for L=           3  read in
    real space projection operators read in
    PAW grid and wavefunctions read in
 
   number of l-projection  operators is LMAX  =           8
   number of lm-projection operators is LMMAX =          32
 
 POTCAR:    PAW_PBE O 08Apr2002                   
   SHA256 =  818f92134a0a090dccd8ba1447fa70422a3b330e708bb4f08108d8ae51209ddf O/
   COPYR  = (c) Copyright 08Apr2002 Georg Kresse                                
   COPYR  = This file is part of the software VASP. Any use, copying, and all ot
   COPYR  = If you do not have a valid VASP license, you may not use, copy or di
   VRHFIN =O: s2p4                                                              
   LEXCH  = PE                                                                  
   EATOM  =   432.3788 eV,   31.7789 Ry                                         
                                                                                
   TITEL  = PAW_PBE O 08Apr2002                                                 
   LULTRA =        F    use ultrasoft PP ?                                      
   IUNSCR =        1    unscreen: 0-lin 1-nonlin 2-no                           
   RPACOR =    1.200    partial core radius                                     
   POMASS =   16.000; ZVAL   =    6.000    mass and valenz                      
   RCORE  =    1.520    outmost cutoff radius                                   
   RWIGS  =    1.550; RWIGS  =    0.820    wigner-seitz radius (au A)           
   ENMAX  =  400.000; ENMIN  =  300.000 eV                                      
   ICORE  =        2    local potential                                         
   LCOR   =        T    correct aug charges                                     
   LPAW   =        T    paw PP                                                  
   EAUG   =  605.392                                                            
   DEXC   =    0.000                                                            
   RMAX   =    1.553    core radius for proj-oper                               
   RAUG   =    1.300    factor for augmentation sphere                          
   RDEP   =    1.550    radius for radial grids                                 
   RDEPT  =    1.329    core radius for aug-charge                              
                                                                                
   Atomic configuration                                                         
    4 entries                                                                   
     n  l   j            E        occ.                                          
     1  0  0.50      -514.6923   2.0000                                         
     2  0  0.50       -23.9615   2.0000                                         
     2  1  0.50        -9.0305   4.0000                                         
     3  2  1.50        -9.5241   0.0000                                         
   Description                                                                  
     l       E           TYP  RCUT    TYP  RCUT                                 
     0    -23.9615318     23  1.200                                             
     0     -9.5240782     23  1.200                                             
     1     -9.0304911     23  1.520                                             
     1      8.1634956     23  1.520                                             
     2     -9.5240782      7  1.500                                             
  local pseudopotential read in
  partial core-charges read in
  partial kinetic energy density read in
  kinetic energy density of atom read in
  atomic valenz-charges read in
  non local Contribution for L=           0  read in
    real space projection operators read in
  non local Contribution for L=           0  read in
    real space projection operators read in
  non local Contribution for L=           1  read in
    real space projection operators read in
  non local Contribution for L=           1  read in
    real space projection operators read in
    PAW grid and wavefunctions read in
 
   number of l-projection  operators is LMAX  =           4
   number of lm-projection operators is LMMAX =           8
 
  PAW_PBE Eu 23Dec2003                  :
 energy of atom  1       EATOM=-2619.8085
 kinetic energy error for atom=    0.0019 (will be added to EATOM!!)
  PAW_PBE O 08Apr2002                   :
 energy of atom  2       EATOM= -432.3788
 kinetic energy error for atom=    0.0224 (will be added to EATOM!!)
 
 
 POSCAR: Eu1 O1 str #: 1                         
  positions in direct lattice
  No initial velocities read in
 exchange correlation table for  LEXCH =        8
   RHO(1)=    0.500       N(1)  =     2000
   RHO(2)=  100.500       N(2)  =     4000
 


--------------------------------------------------------------------------------------------------------


 ion  position               nearest neighbor table
   1  0.000  0.000  0.000-   3 2.54   4 2.54   3 2.54   4 2.54   4 2.54   3 2.54
   2  0.500  0.000  0.500-   4 2.54   3 2.54   4 2.54   3 2.54   3 2.54   4 2.54
   3  0.750  0.500  0.250-   1 2.54   2 2.54   1 2.54   2 2.54   2 2.54   1 2.54
   4  0.250  0.500  0.750-   2 2.54   1 2.54   2 2.54   1 2.54   1 2.54   2 2.54
 
  LATTYP: Found a base centered monoclinic cell.
 ALAT       =     6.2226765187
 B/A-ratio  =     0.5773363404
 C/A-ratio  =     1.1546939568
 COS(beta)  =    -0.5000198342
  
  Lattice vectors:
  
 A1 = (   1.7963845000,   3.1112791000,   0.0000000000)
 A2 = (   3.5926456000,   0.0000000000,   0.0000000000)
 A3 = (  -3.5927860000,  -2.0742334000,  -5.8666680000)


Analysis of symmetry for initial positions (statically):
=====================================================================
 Subroutine PRICEL returns following result:
 
  LATTYP: Found a trigonal (rhomboedric) cell.
 ALAT       =     3.5926434857
 COS(alpha) =     0.5000183251
  
  Lattice vectors:
  
 A1 = (  -1.7963930000,  -1.0371167000,  -2.9333340000)
 A2 = (  -1.7963845000,  -3.1112791000,   0.0000000000)
 A3 = (  -3.5926456000,  -0.0000000000,  -0.0000000000)
 
   2 primitive cells build up your supercell.
 

 Routine SETGRP: Setting up the symmetry group for a 
 base centered monoclinic supercell.


 Subroutine GETGRP returns: Found  4 space group operations
 (whereof  4 operations were pure point group operations)
 out of a pool of  4 trial point group operations.


The static configuration has the point symmetry C_2h.


Analysis of symmetry for dynamics (positions and initial velocities):
=====================================================================
 Subroutine PRICEL returns following result:
 
  LATTYP: Found a trigonal (rhomboedric) cell.
 ALAT       =     3.5926434857
 COS(alpha) =     0.5000183251
  
  Lattice vectors:
  
 A1 = (  -1.7963930000,  -1.0371167000,  -2.9333340000)
 A2 = (  -1.7963845000,  -3.1112791000,   0.0000000000)
 A3 = (  -3.5926456000,  -0.0000000000,  -0.0000000000)
 
   2 primitive cells build up your supercell.
 

 Routine SETGRP: Setting up the symmetry group for a 
 base centered monoclinic supercell.


 Subroutine GETGRP returns: Found  4 space group operations
 (whereof  4 operations were pure point group operations)
 out of a pool of  4 trial point group operations.


The dynamic configuration has the point symmetry C_2h.


Analysis of structural, dynamic, and magnetic symmetry:
=====================================================================
 Subroutine PRICEL returns following result:
 
  LATTYP: Found a trigonal (rhomboedric) cell.
 ALAT       =     3.5926434857
 COS(alpha) =     0.5000183251
  
  Lattice vectors:
  
 A1 = (  -1.7963930000,  -1.0371167000,  -2.9333340000)
 A2 = (  -1.7963845000,  -3.1112791000,   0.0000000000)
 A3 = (  -3.5926456000,  -0.0000000000,  -0.0000000000)
 
   2 primitive cells build up your supercell.
 

 Routine SETGRP: Setting up the symmetry group for a 
 base centered monoclinic supercell.


 Subroutine GETGRP returns: Found  4 space group operations
 (whereof  4 operations were pure point group operations)
 out of a pool of  4 trial point group operations.


The magnetic configuration has the point symmetry C_2h.


 Subroutine INISYM returns: Found  4 space group operations
 (whereof  4 operations are pure point group operations),
 and found     2 'primitive' translations

 
 

Automatic generation of k-mesh.
 generate k-points for:    5    5    3
Space group operators:
 irot       det(A)        alpha          n_x          n_y          n_z        tau_x        tau_y        tau_z
    1     1.000000     0.000000     1.000000     0.000000     0.000000     0.000000     0.000000     0.000000
    2    -1.000000     0.000000     1.000000     0.000000     0.000000     0.000000     0.000000     0.000000
    3     1.000000   179.999999    -0.499990     0.866031     0.000001     0.000000     0.000000     0.000000
    4    -1.000000   179.999999    -0.499990     0.866031     0.000001     0.000000     0.000000     0.000000
 
 Subroutine IBZKPT returns following result:
 ===========================================
 
 Found     24 irreducible k-points:
 
 Following reciprocal coordinates:
            Coordinates               Weight
  0.000000  0.000000  0.000000      1.000000
  0.200000 -0.000000 -0.000000      4.000000
  0.400000 -0.000000 -0.000000      4.000000
  0.000000  0.200000 -0.000000      2.000000
  0.200000  0.200000 -0.000000      4.000000
  0.400000  0.200000 -0.000000      4.000000
 -0.400000  0.200000  0.000000      2.000000
  0.000000  0.400000 -0.000000      2.000000
  0.200000  0.400000 -0.000000      2.000000
  0.000000  0.000000  0.333333      2.000000
  0.200000 -0.000000  0.333333      4.000000
  0.400000 -0.000000  0.333333      4.000000
 -0.400000  0.000000  0.333333      4.000000
 -0.200000  0.000000  0.333333      4.000000
  0.000000  0.200000  0.333333      2.000000
  0.200000  0.200000  0.333333      4.000000
  0.400000  0.200000  0.333333      4.000000
 -0.400000  0.200000  0.333333      4.000000
  0.000000  0.400000  0.333333      2.000000
  0.200000  0.400000  0.333333      4.000000
  0.400000  0.400000  0.333333      4.000000
 -0.000000 -0.400000  0.333333      2.000000
  0.200000 -0.400000  0.333333      4.000000
 -0.000000 -0.200000  0.333333      2.000000
 
 Following cartesian coordinates:
            Coordinates               Weight
  0.000000  0.000000  0.000000      1.000000
  0.055669 -0.032142  0.011363      4.000000
  0.111339 -0.064284  0.022726      4.000000
  0.055669  0.032140  0.022726      2.000000
  0.111339 -0.000002  0.034089      4.000000
  0.167008 -0.032144  0.045452      4.000000
 -0.055669  0.096424  0.000000      2.000000
  0.111339  0.064280  0.045452      2.000000
  0.167008  0.032138  0.056815      2.000000
  0.000000  0.000000  0.056818      2.000000
  0.055669 -0.032142  0.068181      4.000000
  0.111339 -0.064284  0.079544      4.000000
 -0.111339  0.064284  0.034092      4.000000
 -0.055669  0.032142  0.045455      4.000000
  0.055669  0.032140  0.079544      2.000000
  0.111339 -0.000002  0.090907      4.000000
  0.167008 -0.032144  0.102270      4.000000
 -0.055669  0.096424  0.056818      4.000000
  0.111339  0.064280  0.102270      2.000000
  0.167008  0.032138  0.113633      4.000000
  0.222677 -0.000004  0.124996      4.000000
 -0.111339 -0.064280  0.011366      2.000000
 -0.055669 -0.096422  0.022729      4.000000
 -0.055669 -0.032140  0.034092      2.000000
 


--------------------------------------------------------------------------------------------------------




 Dimension of arrays:
   k-points           NKPTS =     24   k-points in BZ     NKDIM =     24   number of bands    NBANDS=     28
   number of dos      NEDOS =    301   number of ions     NIONS =      4
   non local maximal  LDIM  =      8   non local SUM 2l+1 LMDIM =     32
   total plane-waves  NPLWV =  14400
   max r-space proj   IRMAX =      1   max aug-charges    IRDMAX=  12752
   dimension x,y,z NGX =    20 NGY =   20 NGZ =   36
   dimension x,y,z NGXF=    40 NGYF=   40 NGZF=   72
   support grid    NGXF=    40 NGYF=   40 NGZF=   72
   ions per type =               2   2
   NGX,Y,Z   is equivalent  to a cutoff of   9.25,  9.25,  9.62 a.u.
   NGXF,Y,Z  is equivalent  to a cutoff of  18.51, 18.51, 19.24 a.u.

 SYSTEM =  "EuO"                                   
 POSCAR =  Eu1 O1 str #: 1                         

 Startparameter for this run:
   NWRITE =      2    write-flag & timer
   PREC   = normal    normal or accurate (medium, high low for compatibility)
   ISTART =      0    job   : 0-new  1-cont  2-samecut
   ICHARG =      2    charge: 1-file 2-atom 10-const
   ISPIN  =      2    spin polarized calculation?
   LNONCOLLINEAR =      F non collinear calculations
   LSORBIT =      F    spin-orbit coupling
   INIWAV =      1    electr: 0-lowe 1-rand  2-diag
   LASPH  =      F    aspherical Exc in radial PAW
   METAGGA=      F    non-selfconsistent MetaGGA calc.

 Electronic Relaxation 1
   ENCUT  =  500.0 eV  36.75 Ry    6.06 a.u.   6.55  6.55 11.35*2*pi/ulx,y,z
   ENINI  =  500.0     initial cutoff
   ENAUG  =  605.4 eV  augmentation charge cutoff
   NELM   =     60;   NELMIN=  2; NELMDL= -5     # of ELM steps 
   EDIFF  = 0.1E-05   stopping-criterion for ELM
   LREAL  =      F    real-space projection
   NLSPLINE    = F    spline interpolate recip. space projectors
   LCOMPAT=      F    compatible to vasp.4.4
   GGA_COMPAT  = T    GGA compatible to vasp.4.4-vasp.4.6
   LMAXPAW     = -100 max onsite density
   LMAXMIX     =    2 max onsite mixed and CHGCAR
   VOSKOWN=      0    Vosko Wilk Nusair interpolation
   ROPT   =    0.00000   0.00000
 Ionic relaxation
   EDIFFG = 0.1E-04   stopping-criterion for IOM
   NSW    =      0    number of steps for IOM
   NBLOCK =      1;   KBLOCK =      1    inner block; outer block 
   IBRION =     -1    ionic relax: 0-MD 1-quasi-New 2-CG
   NFREE  =      1    steps in history (QN), initial steepest desc. (CG)
   ISIF   =      2    stress and relaxation
   IWAVPR =     10    prediction:  0-non 1-charg 2-wave 3-comb
   ISYM   =      2    0-nonsym 1-usesym 2-fastsym
   LCORR  =      T    Harris-Foulkes like correction to forces

   POTIM  = 0.5000    time-step for ionic-motion
   TEIN   =    0.0    initial temperature
   TEBEG  =    0.0;   TEEND  =   0.0 temperature during run
   SMASS  =  -3.00    Nose mass-parameter (am)
   estimated Nose-frequenzy (Omega)   =  0.10E-29 period in steps =****** mass=  -0.295E-27a.u.
   SCALEE = 1.0000    scale energy and forces
   NPACO  =    256;   APACO  = 16.0  distance and # of slots for P.C.
   PSTRESS=    0.0 pullay stress

  Mass of Ions in am
   POMASS = 151.97 16.00
  Ionic Valenz
   ZVAL   =  17.00  6.00
  Atomic Wigner-Seitz radii
   RWIGS  =  -1.00 -1.00
  virtual crystal weights 
   VCA    =   1.00  1.00
   NELECT =      46.0000    total number of electrons
   NUPDOWN=      -1.0000    fix difference up-down

 DOS related values:
   EMIN   =  10.00;   EMAX   =-10.00  energy-range for DOS
   EFERMI =   0.00
   ISMEAR =     1;   SIGMA  =   0.10  broadening in eV -4-tet -1-fermi 0-gaus

 Electronic relaxation 2 (details)
   IALGO  =     38    algorithm
   LDIAG  =      T    sub-space diagonalisation (order eigenvalues)
   LSUBROT=      F    optimize rotation matrix (better conditioning)
   TURBO    =      0    0=normal 1=particle mesh
   IRESTART =      0    0=no restart 2=restart with 2 vectors
   NREBOOT  =      0    no. of reboots
   NMIN     =      0    reboot dimension
   EREF     =   0.00    reference energy to select bands
   IMIX   =      4    mixing-type and parameters
     AMIX     =   0.40;   BMIX     =  1.00
     AMIX_MAG =   1.60;   BMIX_MAG =  1.00
     AMIN     =   0.10
     WC   =   100.;   INIMIX=   1;  MIXPRE=   1;  MAXMIX= -45

 Intra band minimization:
   WEIMIN = 0.0000     energy-eigenvalue tresh-hold
   EBREAK =  0.89E-08  absolut break condition
   DEPER  =   0.30     relativ break condition  

   TIME   =   0.40     timestep for ELM

  volume/ion in A,a.u.               =      16.39       110.63
  Fermi-wavevector in a.u.,A,eV,Ry     =   1.454607  2.748810 28.788335  2.115883
  Thomas-Fermi vector in A             =   2.571738
 
 Write flags
   LWAVE        =      F    write WAVECAR
   LDOWNSAMPLE  =      F    k-point downsampling of WAVECAR
   LCHARG       =      F    write CHGCAR
   LVTOT        =      F    write LOCPOT, total local potential
   LVHAR        =      F    write LOCPOT, Hartree potential only
   LELF         =      F    write electronic localiz. function (ELF)
   LORBIT       =     11    0 simple, 1 ext, 2 COOP (PROOUT), +10 PAW based schemes


 Dipole corrections
   LMONO  =      F    monopole corrections only (constant potential shift)
   LDIPOL =      F    correct potential (dipole corrections)
   IDIPOL =      0    1-x, 2-y, 3-z, 4-all directions 
   EPSILON=  1.0000000 bulk dielectric constant

 Exchange correlation treatment:
   GGA     =    --    GGA type
   LEXCH   =     8    internal setting for exchange type
   VOSKOWN=      0    Vosko Wilk Nusair interpolation
   LHFCALC =     F    Hartree Fock is set to
   LHFONE  =     F    Hartree Fock one center treatment
   AEXX    =    0.0000 exact exchange contribution

 Linear response parameters
   LEPSILON=     F    determine dielectric tensor
   LRPA    =     F    only Hartree local field effects (RPA)
   LNABLA  =     F    use nabla operator in PAW spheres
   LVEL    =     F    velocity operator in full k-point grid
   LINTERFAST=   F  fast interpolation
   KINTER  =     0    interpolate to denser k-point grid
   CSHIFT  =0.1000    complex shift for real part using Kramers Kronig
   OMEGAMAX=  -1.0    maximum frequency
   DEG_THRESHOLD= 0.2000000E-02 threshold for treating states as degnerate
   RTIME   =   -0.100 relaxation time in fs
  (WPLASMAI=    0.000 imaginary part of plasma frequency in eV, 0.658/RTIME)
   DFIELD  = 0.0000000 0.0000000 0.0000000 field for delta impulse in time
 
 Orbital magnetization related:
   ORBITALMAG=     F  switch on orbital magnetization
   LCHIMAG   =     F  perturbation theory with respect to B field
   DQ        =  0.001000  dq finite difference perturbation B field
   LLRAUG    =     F  two centre corrections for induced B field



--------------------------------------------------------------------------------------------------------


 Static calculation
 charge density and potential will be updated during run
 spin polarized calculation
 Variant of blocked Davidson
 Davidson routine will perform the subspace rotation
 perform sub-space diagonalisation
    after iterative eigenvector-optimisation
 modified Broyden-mixing scheme, WC =      100.0
 initial mixing is a Kerker type mixing with AMIX =  0.4000 and BMIX =      1.0000
 Hartree-type preconditioning will be used
 using additional bands            5
 reciprocal scheme for non local part
 use partial core corrections
 calculate Harris-corrections to forces 
   (improved forces if not selfconsistent)
 use gradient corrections 
 use of overlap-Matrix (Vanderbilt PP)
 Methfessel and Paxton  Order N= 1 SIGMA  =   0.10


--------------------------------------------------------------------------------------------------------


  energy-cutoff  :      500.00
  volume of cell :       65.58
      direct lattice vectors                 reciprocal lattice vectors
     1.796261100 -3.111279100  0.000000000     0.278346409 -0.160711128  0.056814756
     1.796384500  3.111279100  0.000000000     0.278346409  0.160700088  0.113630332
    -1.796244100 -1.037045700  5.866668000     0.000000000  0.000000000  0.170454507

  length of vectors
     3.592577289  3.592638990  6.222519592     0.326393484  0.340900416  0.170454507


 
 k-points in units of 2pi/SCALE and weight: read from INCAR                         
   0.00000000  0.00000000  0.00000000       0.013
   0.05566928 -0.03214223  0.01136295       0.053
   0.11133856 -0.06428445  0.02272590       0.053
   0.05566928  0.03214002  0.02272607       0.027
   0.11133856 -0.00000221  0.03408902       0.053
   0.16700785 -0.03214443  0.04545197       0.053
  -0.05566928  0.09642447  0.00000016       0.027
   0.11133856  0.06428004  0.04545213       0.027
   0.16700785  0.03213781  0.05681508       0.027
   0.00000000  0.00000000  0.05681817       0.027
   0.05566928 -0.03214223  0.06818112       0.053
   0.11133856 -0.06428445  0.07954407       0.053
  -0.11133856  0.06428445  0.03409227       0.053
  -0.05566928  0.03214223  0.04545522       0.053
   0.05566928  0.03214002  0.07954424       0.027
   0.11133856 -0.00000221  0.09090719       0.053
   0.16700785 -0.03214443  0.10227014       0.053
  -0.05566928  0.09642447  0.05681833       0.053
   0.11133856  0.06428004  0.10227030       0.027
   0.16700785  0.03213781  0.11363325       0.053
   0.22267713 -0.00000442  0.12499620       0.053
  -0.11133856 -0.06428004  0.01136604       0.027
  -0.05566928 -0.09642226  0.02272899       0.053
  -0.05566928 -0.03214002  0.03409210       0.027
 
 k-points in reciprocal lattice and weights: read from INCAR                         
   0.00000000  0.00000000  0.00000000       0.013
   0.20000000 -0.00000000 -0.00000000       0.053
   0.40000000 -0.00000000 -0.00000000       0.053
   0.00000000  0.20000000 -0.00000000       0.027
   0.20000000  0.20000000 -0.00000000       0.053
   0.40000000  0.20000000 -0.00000000       0.053
  -0.40000000  0.20000000  0.00000000       0.027
   0.00000000  0.40000000 -0.00000000       0.027
   0.20000000  0.40000000 -0.00000000       0.027
   0.00000000  0.00000000  0.33333333       0.027
   0.20000000 -0.00000000  0.33333333       0.053
   0.40000000 -0.00000000  0.33333333       0.053
  -0.40000000  0.00000000  0.33333333       0.053
  -0.20000000  0.00000000  0.33333333       0.053
   0.00000000  0.20000000  0.33333333       0.027
   0.20000000  0.20000000  0.33333333       0.053
   0.40000000  0.20000000  0.33333333       0.053
  -0.40000000  0.20000000  0.33333333       0.053
   0.00000000  0.40000000  0.33333333       0.027
   0.20000000  0.40000000  0.33333333       0.053
   0.40000000  0.40000000  0.33333333       0.053
  -0.00000000 -0.40000000  0.33333333       0.027
   0.20000000 -0.40000000  0.33333333       0.053
  -0.00000000 -0.20000000  0.33333333       0.027
 
 position of ions in fractional coordinates (direct lattice) 
   0.00000000  0.00000000  0.00000000
   0.50000000  0.00000000  0.50000000
   0.75000006  0.50000004  0.25000002
   0.25000006  0.50000004  0.75000002
 
 position of ions in cartesian coordinates  (Angst):
   0.00000000  0.00000000  0.00000000
   0.00000850 -2.07416240  2.93333400
   1.79632720 -1.03708130  1.46666710
   0.00007460  0.00003540  4.40000110
 


--------------------------------------------------------------------------------------------------------


 k-point  1 :   0.0000 0.0000 0.0000  plane waves:    1701
 k-point  2 :   0.2000-0.0000-0.0000  plane waves:    1688
 k-point  3 :   0.4000-0.0000-0.0000  plane waves:    1666
 k-point  4 :   0.0000 0.2000-0.0000  plane waves:    1659
 k-point  5 :   0.2000 0.2000-0.0000  plane waves:    1664
 k-point  6 :   0.4000 0.2000-0.0000  plane waves:    1659
 k-point  7 :  -0.4000 0.2000 0.0000  plane waves:    1663
 k-point  8 :   0.0000 0.4000-0.0000  plane waves:    1644
 k-point  9 :   0.2000 0.4000-0.0000  plane waves:    1646
 k-point 10 :   0.0000 0.0000 0.3333  plane waves:    1678
 k-point 11 :   0.2000-0.0000 0.3333  plane waves:    1673
 k-point 12 :   0.4000-0.0000 0.3333  plane waves:    1661
 k-point 13 :  -0.4000 0.0000 0.3333  plane waves:    1658
 k-point 14 :  -0.2000 0.0000 0.3333  plane waves:    1667
 k-point 15 :   0.0000 0.2000 0.3333  plane waves:    1670
 k-point 16 :   0.2000 0.2000 0.3333  plane waves:    1659
 k-point 17 :   0.4000 0.2000 0.3333  plane waves:    1657
 k-point 18 :  -0.4000 0.2000 0.3333  plane waves:    1666
 k-point 19 :   0.0000 0.4000 0.3333  plane waves:    1659
 k-point 20 :   0.2000 0.4000 0.3333  plane waves:    1659
 k-point 21 :   0.4000 0.4000 0.3333  plane waves:    1658
 k-point 22 :  -0.0000-0.4000 0.3333  plane waves:    1653
 k-point 23 :   0.2000-0.4000 0.3333  plane waves:    1665
 k-point 24 :  -0.0000-0.2000 0.3333  plane waves:    1679

 maximum and minimum number of plane-waves per node :       434      400

 maximum number of plane-waves:      1701
 maximum index in each direction: 
   IXMAX=    6   IYMAX=    6   IZMAX=   11
   IXMIN=   -6   IYMIN=   -6   IZMIN=  -11


 parallel 3D FFT for wavefunctions:
    minimum data exchange during FFTs selected (reduces bandwidth)
 parallel 3D FFT for charge:
    minimum data exchange during FFTs selected (reduces bandwidth)


 total amount of memory used by VASP MPI-rank0    42312. kBytes
=======================================================================

   base      :      30000. kBytes
   nonl-proj :       5237. kBytes
   fftplans  :        607. kBytes
   grid      :       1468. kBytes
   one-center:         98. kBytes
   wavefun   :       4902. kBytes
 
     INWAV:  cpu time    0.0000: real time    0.0001
 Broyden mixing: mesh for mixing (old mesh)
   NGX = 13   NGY = 13   NGZ = 23
  (NGX  = 40   NGY  = 40   NGZ  = 72)
  gives a total of   3887 points

 initial charge density was supplied:
 charge density of overlapping atoms calculated
 number of electron      46.0000000 magnetization       0.0000000
 keeping initial charge density in first step


--------------------------------------------------------------------------------------------------------


 Maximum index for augmentation-charges         1568 (set IRDMAX)


--------------------------------------------------------------------------------------------------------


 First call to EWALD:  gamma=   0.440
 Maximum number of real-space cells 3x 4x 2
 Maximum number of reciprocal cells 3x 3x 4

    FEWALD:  cpu time    0.0012: real time    0.0012


--------------------------------------- Iteration      1(   1)  ---------------------------------------


    POTLOK:  cpu time    0.0182: real time    0.0202
    SETDIJ:  cpu time    0.0089: real time    0.0090
     EDDAV:  cpu time    0.6063: real time    0.6211
       DOS:  cpu time    0.0017: real time    0.0017
    --------------------------------------------
      LOOP:  cpu time    0.6351: real time    0.6519

 eigenvalue-minimisations  :  3192
 total energy-change (2. order) : 0.4369080E+03  (-0.1831076E+04)
 number of electron      46.0000000 magnetization       0.0000000
 augmentation part       46.0000000 magnetization       0.0000000

 Free energy of the ion-electron system (eV)
  ---------------------------------------------------
  alpha Z        PSCENC =       453.10565554
  Ewald energy   TEWEN  =     -4853.25068260
  -Hartree energ DENC   =     -1394.95400397
  -exchange      EXHF   =         0.00000000
  -V(xc)+E(xc)   XCENC  =       227.31529704
  PAW double counting   =      5122.54265185    -5413.80328534
  entropy T*S    EENTRO =        -0.00272309
  eigenvalues    EBANDS =       191.62887723
  atomic energy  EATOM  =      6104.32616516
  Solvation  Ediel_sol  =         0.00000000
  ---------------------------------------------------
  free energy    TOTEN  =       436.90795183 eV

  energy without entropy =      436.91067491  energy(sigma->0) =      436.90885952


--------------------------------------------------------------------------------------------------------




--------------------------------------- Iteration      1(   2)  ---------------------------------------


     EDDAV:  cpu time    0.6643: real time    0.6692
       DOS:  cpu time    0.0017: real time    0.0017
    --------------------------------------------
      LOOP:  cpu time    0.6660: real time    0.6709

 eigenvalue-minimisations  :  3592
 total energy-change (2. order) :-0.3811871E+03  (-0.3550720E+03)
 number of electron      46.0000000 magnetization       0.0000000
 augmentation part       46.0000000 magnetization       0.0000000

 Free energy of the ion-electron system (eV)
  ---------------------------------------------------
  alpha Z        PSCENC =       453.10565554
  Ewald energy   TEWEN  =     -4853.25068260
  -Hartree energ DENC   =     -1394.95400397
  -exchange      EXHF   =         0.00000000
  -V(xc)+E(xc)   XCENC  =       227.31529704
  PAW double counting   =      5122.54265185    -5413.80328534
  entropy T*S    EENTRO =         0.00164508
  eigenvalues    EBANDS =      -189.56258224
  atomic energy  EATOM  =      6104.32616516
  Solvation  Ediel_sol  =         0.00000000
  ---------------------------------------------------
  free energy    TOTEN  =        55.72086052 eV

  energy without entropy =       55.71921545  energy(sigma->0) =       55.72031216


--------------------------------------------------------------------------------------------------------




--------------------------------------- Iteration      1(   3)  ---------------------------------------


     EDDAV:  cpu time    0.8123: real time    0.8145
       DOS:  cpu time    0.0020: real time    0.0020
    --------------------------------------------
      LOOP:  cpu time    0.8143: real time    0.8165

 eigenvalue-minimisations  :  4584
 total energy-change (2. order) :-0.9220040E+02  (-0.9024284E+02)
 number of electron      46.0000000 magnetization       0.0000000
 augmentation part       46.0000000 magnetization       0.0000000

 Free energy of the ion-electron system (eV)
  ---------------------------------------------------
  alpha Z        PSCENC =       453.10565554
  Ewald energy   TEWEN  =     -4853.25068260
  -Hartree energ DENC   =     -1394.95400397
  -exchange      EXHF   =         0.00000000
  -V(xc)+E(xc)   XCENC  =       227.31529704
  PAW double counting   =      5122.54265185    -5413.80328534
  entropy T*S    EENTRO =        -0.00452911
  eigenvalues    EBANDS =      -281.75680916
  atomic energy  EATOM  =      6104.32616516
  Solvation  Ediel_sol  =         0.00000000
  ---------------------------------------------------
  free energy    TOTEN  =       -36.47954057 eV

  energy without entropy =      -36.47501147  energy(sigma->0) =      -36.47803087


--------------------------------------------------------------------------------------------------------




--------------------------------------- Iteration      1(   4)  ---------------------------------------


     EDDAV:  cpu time    0.8226: real time    0.8248
       DOS:  cpu time    0.0020: real time    0.0020
    --------------------------------------------
      LOOP:  cpu time    0.8246: real time    0.8268

 eigenvalue-minimisations  :  4668
 total energy-change (2. order) :-0.7629919E+01  (-0.7298216E+01)
 number of electron      46.0000000 magnetization       0.0000000
 augmentation part       46.0000000 magnetization       0.0000000

 Free energy of the ion-electron system (eV)
  ---------------------------------------------------
  alpha Z        PSCENC =       453.10565554
  Ewald energy   TEWEN  =     -4853.25068260
  -Hartree energ DENC   =     -1394.95400397
  -exchange      EXHF   =         0.00000000
  -V(xc)+E(xc)   XCENC  =       227.31529704
  PAW double counting   =      5122.54265185    -5413.80328534
  entropy T*S    EENTRO =        -0.00995747
  eigenvalues    EBANDS =      -289.38129938
  atomic energy  EATOM  =      6104.32616516
  Solvation  Ediel_sol  =         0.00000000
  ---------------------------------------------------
  free energy    TOTEN  =       -44.10945916 eV

  energy without entropy =      -44.09950169  energy(sigma->0) =      -44.10614001


--------------------------------------------------------------------------------------------------------




--------------------------------------- Iteration      1(   5)  ---------------------------------------


     EDDAV:  cpu time    0.8830: real time    0.8854
       DOS:  cpu time    0.0021: real time    0.0021
    CHARGE:  cpu time    0.0461: real time    0.0462
    MIXING:  cpu time    0.0005: real time    0.0005
    --------------------------------------------
      LOOP:  cpu time    0.9317: real time    0.9342

 eigenvalue-minimisations  :  5040
 total energy-change (2. order) :-0.9040363E+00  (-0.7990411E+00)
 number of electron      45.9999953 magnetization       0.0000000
 augmentation part        8.7022989 magnetization       0.0000000

 Broyden mixing:
  rms(total) = 0.26821E+01    rms(broyden)= 0.26819E+01
  rms(prec ) = 0.49416E+01
  weight for this iteration     100.00

 Free energy of the ion-electron system (eV)
  ---------------------------------------------------
  alpha Z        PSCENC =       453.10565554
  Ewald energy   TEWEN  =     -4853.25068260
  -Hartree energ DENC   =     -1394.95400397
  -exchange      EXHF   =         0.00000000
  -V(xc)+E(xc)   XCENC  =       227.31529704
  PAW double counting   =      5122.54265185    -5413.80328534
  entropy T*S    EENTRO =        -0.00921503
  eigenvalues    EBANDS =      -290.28607808
  atomic energy  EATOM  =      6104.32616516
  Solvation  Ediel_sol  =         0.00000000
  ---------------------------------------------------
  free energy    TOTEN  =       -45.01349543 eV

  energy without entropy =      -45.00428040  energy(sigma->0) =      -45.01042375


--------------------------------------------------------------------------------------------------------




--------------------------------------- Iteration      1(   6)  ---------------------------------------


    POTLOK:  cpu time    0.0157: real time    0.0158
    SETDIJ:  cpu time    0.0080: real time    0.0081
     EDDAV:  cpu time    0.7903: real time    0.7922
       DOS:  cpu time    0.0018: real time    0.0018
    CHARGE:  cpu time    0.0407: real time    0.0409
    MIXING:  cpu time    0.0006: real time    0.0006
    --------------------------------------------
      LOOP:  cpu time    0.8571: real time    0.8594

 eigenvalue-minimisations  :  4432
 total energy-change (2. order) :-0.4056540E+02  (-0.6695513E+02)
 number of electron      46.0000044 magnetization       0.0000000
 augmentation part       22.4559522 magnetization       0.0000000

 Broyden mixing:
  rms(total) = 0.10826E+02    rms(broyden)= 0.10826E+02
  rms(prec ) = 0.17658E+02
  weight for this iteration     100.00

 eigenvalues of (default mixing * dielectric matrix)
  average eigenvalue GAMMA=   0.1454
  0.1454

 Free energy of the ion-electron system (eV)
  ---------------------------------------------------
  alpha Z        PSCENC =       453.10565554
  Ewald energy   TEWEN  =     -4853.25068260
  -Hartree energ DENC   =     -1269.09765567
  -exchange      EXHF   =         0.00000000
  -V(xc)+E(xc)   XCENC  =       223.78940133
  PAW double counting   =      4938.35133994    -5173.95250426
  entropy T*S    EENTRO =        -0.00189745
  eigenvalues    EBANDS =      -508.84871614
  atomic energy  EATOM  =      6104.32616516
  Solvation  Ediel_sol  =         0.00000000
  ---------------------------------------------------
  free energy    TOTEN  =       -85.57889413 eV

  energy without entropy =      -85.57699669  energy(sigma->0) =      -85.57826165


--------------------------------------------------------------------------------------------------------




--------------------------------------- Iteration      1(   7)  ---------------------------------------


    POTLOK:  cpu time    0.0154: real time    0.0155
    SETDIJ:  cpu time    0.0079: real time    0.0079
     EDDAV:  cpu time    0.7632: real time    0.7650
       DOS:  cpu time    0.0021: real time    0.0021
    CHARGE:  cpu time    0.0438: real time    0.0439
    MIXING:  cpu time    0.0006: real time    0.0006
    --------------------------------------------
      LOOP:  cpu time    0.8330: real time    0.8350

 eigenvalue-minimisations  :  4268
 total energy-change (2. order) : 0.5725911E+02  (-0.4683381E+02)
 number of electron      45.9999983 magnetization       0.0000000
 augmentation part       10.7375405 magnetization       0.0000000

 Broyden mixing:
  rms(total) = 0.26109E+01    rms(broyden)= 0.26105E+01
  rms(prec ) = 0.26864E+01
  weight for this iteration     100.00

 eigenvalues of (default mixing * dielectric matrix)
  average eigenvalue GAMMA=   0.2177
  0.2177  0.2177

 Free energy of the ion-electron system (eV)
  ---------------------------------------------------
  alpha Z        PSCENC =       453.10565554
  Ewald energy   TEWEN  =     -4853.25068260
  -Hartree energ DENC   =     -1356.28868284
  -exchange      EXHF   =         0.00000000
  -V(xc)+E(xc)   XCENC  =       224.28992112
  PAW double counting   =      5162.63176138    -5452.32092063
  entropy T*S    EENTRO =         0.00023875
  eigenvalues    EBANDS =      -310.81324314
  atomic energy  EATOM  =      6104.32616516
  Solvation  Ediel_sol  =         0.00000000
  ---------------------------------------------------
  free energy    TOTEN  =       -28.31978725 eV

  energy without entropy =      -28.32002600  energy(sigma->0) =      -28.31986683


--------------------------------------------------------------------------------------------------------




--------------------------------------- Iteration      1(   8)  ---------------------------------------


    POTLOK:  cpu time    0.0151: real time    0.0152
    SETDIJ:  cpu time    0.0077: real time    0.0078
     EDDAV:  cpu time    0.7628: real time    0.7648
       DOS:  cpu time    0.0018: real time    0.0018
    CHARGE:  cpu time    0.0485: real time    0.0486
    MIXING:  cpu time    0.0007: real time    0.0007
    --------------------------------------------
      LOOP:  cpu time    0.8366: real time    0.8388

 eigenvalue-minimisations  :  4296
 total energy-change (2. order) :-0.1268151E+02  (-0.9781017E+01)
 number of electron      45.9999981 magnetization       0.0000000
 augmentation part       12.0580204 magnetization       0.0000000

 Broyden mixing:
  rms(total) = 0.20578E+01    rms(broyden)= 0.20576E+01
  rms(prec ) = 0.23141E+01
  weight for this iteration     100.00

 eigenvalues of (default mixing * dielectric matrix)
  average eigenvalue GAMMA=   0.3385
  0.4053  0.4053  0.2049

 Free energy of the ion-electron system (eV)
  ---------------------------------------------------
  alpha Z        PSCENC =       453.10565554
  Ewald energy   TEWEN  =     -4853.25068260
  -Hartree energ DENC   =     -1352.07297121
  -exchange      EXHF   =         0.00000000
  -V(xc)+E(xc)   XCENC  =       225.47061372
  PAW double counting   =      5184.12780743    -5474.72938423
  entropy T*S    EENTRO =         0.00001050
  eigenvalues    EBANDS =      -327.97850837
  atomic energy  EATOM  =      6104.32616516
  Solvation  Ediel_sol  =         0.00000000
  ---------------------------------------------------
  free energy    TOTEN  =       -41.00129405 eV

  energy without entropy =      -41.00130455  energy(sigma->0) =      -41.00129755


--------------------------------------------------------------------------------------------------------




--------------------------------------- Iteration      1(   9)  ---------------------------------------


    POTLOK:  cpu time    0.0156: real time    0.0160
    SETDIJ:  cpu time    0.0080: real time    0.0080
     EDDAV:  cpu time    0.7662: real time    0.7685
       DOS:  cpu time    0.0020: real time    0.0020
    CHARGE:  cpu time    0.0441: real time    0.0442
    MIXING:  cpu time    0.0007: real time    0.0007
    --------------------------------------------
      LOOP:  cpu time    0.8366: real time    0.8394

 eigenvalue-minimisations  :  4304
 total energy-change (2. order) :-0.4442263E+00  (-0.9002566E+00)
 number of electron      45.9999975 magnetization       0.0000000
 augmentation part       11.4634898 magnetization       0.0000000

 Broyden mixing:
  rms(total) = 0.12068E+01    rms(broyden)= 0.12068E+01
  rms(prec ) = 0.14762E+01
  weight for this iteration     100.00

 eigenvalues of (default mixing * dielectric matrix)
  average eigenvalue GAMMA=   0.5311
  0.7954  0.2008  0.5642  0.5642

 Free energy of the ion-electron system (eV)
  ---------------------------------------------------
  alpha Z        PSCENC =       453.10565554
  Ewald energy   TEWEN  =     -4853.25068260
  -Hartree energ DENC   =     -1373.90515481
  -exchange      EXHF   =         0.00000000
  -V(xc)+E(xc)   XCENC  =       227.93836356
  PAW double counting   =      5211.93074687    -5511.21498630
  entropy T*S    EENTRO =         0.00752128
  eigenvalues    EBANDS =      -300.38314903
  atomic energy  EATOM  =      6104.32616516
  Solvation  Ediel_sol  =         0.00000000
  ---------------------------------------------------
  free energy    TOTEN  =       -41.44552033 eV

  energy without entropy =      -41.45304161  energy(sigma->0) =      -41.44802742


--------------------------------------------------------------------------------------------------------




--------------------------------------- Iteration      1(  10)  ---------------------------------------


    POTLOK:  cpu time    0.0152: real time    0.0153
    SETDIJ:  cpu time    0.0077: real time    0.0078
     EDDAV:  cpu time    0.8894: real time    0.8917
       DOS:  cpu time    0.0020: real time    0.0020
    CHARGE:  cpu time    0.0458: real time    0.0459
    MIXING:  cpu time    0.0007: real time    0.0007
    --------------------------------------------
      LOOP:  cpu time    0.9609: real time    0.9634

 eigenvalue-minimisations  :  5056
 total energy-change (2. order) :-0.2153834E+00  (-0.1885328E+00)
 number of electron      45.9999975 magnetization       0.0000000
 augmentation part       11.1368006 magnetization       0.0000000

 Broyden mixing:
  rms(total) = 0.78989E+00    rms(broyden)= 0.78988E+00
  rms(prec ) = 0.10834E+01
  weight for this iteration     100.00

 eigenvalues of (default mixing * dielectric matrix)
  average eigenvalue GAMMA=   0.6007
  0.8939  0.8939  0.2012  0.5072  0.5072

 Free energy of the ion-electron system (eV)
  ---------------------------------------------------
  alpha Z        PSCENC =       453.10565554
  Ewald energy   TEWEN  =     -4853.25068260
  -Hartree energ DENC   =     -1382.86895583
  -exchange      EXHF   =         0.00000000
  -V(xc)+E(xc)   XCENC  =       229.81775439
  PAW double counting   =      5231.17628601    -5538.16893342
  entropy T*S    EENTRO =         0.00374614
  eigenvalues    EBANDS =      -285.80193911
  atomic energy  EATOM  =      6104.32616516
  Solvation  Ediel_sol  =         0.00000000
  ---------------------------------------------------
  free energy    TOTEN  =       -41.66090371 eV

  energy without entropy =      -41.66464985  energy(sigma->0) =      -41.66215242


--------------------------------------------------------------------------------------------------------




--------------------------------------- Iteration      1(  11)  ---------------------------------------


    POTLOK:  cpu time    0.0153: real time    0.0154
    SETDIJ:  cpu time    0.0078: real time    0.0078
     EDDAV:  cpu time    0.8941: real time    0.8964
       DOS:  cpu time    0.0020: real time    0.0020
    CHARGE:  cpu time    0.0455: real time    0.0456
    MIXING:  cpu time    0.0007: real time    0.0007
    --------------------------------------------
      LOOP:  cpu time    0.9654: real time    0.9680

 eigenvalue-minimisations  :  5092
 total energy-change (2. order) :-0.3094154E-01  (-0.4843548E-01)
 number of electron      45.9999976 magnetization       0.0000000
 augmentation part       11.2250464 magnetization       0.0000000

 Broyden mixing:
  rms(total) = 0.51191E+00    rms(broyden)= 0.51190E+00
  rms(prec ) = 0.71989E+00
  weight for this iteration     100.00

 eigenvalues of (default mixing * dielectric matrix)
  average eigenvalue GAMMA=   0.8312
  1.9007  1.1933  0.2010  0.5164  0.5164  0.6595

 Free energy of the ion-electron system (eV)
  ---------------------------------------------------
  alpha Z        PSCENC =       453.10565554
  Ewald energy   TEWEN  =     -4853.25068260
  -Hartree energ DENC   =     -1383.45772789
  -exchange      EXHF   =         0.00000000
  -V(xc)+E(xc)   XCENC  =       230.76889806
  PAW double counting   =      5243.17918004    -5552.48649047
  entropy T*S    EENTRO =         0.00180633
  eigenvalues    EBANDS =      -283.87864941
  atomic energy  EATOM  =      6104.32616516
  Solvation  Ediel_sol  =         0.00000000
  ---------------------------------------------------
  free energy    TOTEN  =       -41.69184525 eV

  energy without entropy =      -41.69365157  energy(sigma->0) =      -41.69244736


--------------------------------------------------------------------------------------------------------




--------------------------------------- Iteration      1(  12)  ---------------------------------------


    POTLOK:  cpu time    0.0150: real time    0.0152
    SETDIJ:  cpu time    0.0077: real time    0.0077
     EDDAV:  cpu time    0.7488: real time    0.7507
       DOS:  cpu time    0.0020: real time    0.0020
    CHARGE:  cpu time    0.0469: real time    0.0470
    MIXING:  cpu time    0.0008: real time    0.0008
    --------------------------------------------
      LOOP:  cpu time    0.8212: real time    0.8234

 eigenvalue-minimisations  :  4144
 total energy-change (2. order) : 0.7126782E-01  (-0.9647507E-01)
 number of electron      45.9999981 magnetization      -0.0000000
 augmentation part       11.5537151 magnetization      -0.0000000

 Broyden mixing:
  rms(total) = 0.18773E+00    rms(broyden)= 0.18771E+00
  rms(prec ) = 0.25173E+00
  weight for this iteration     100.00

 eigenvalues of (default mixing * dielectric matrix)
  average eigenvalue GAMMA=   0.9315
  2.9114  1.1203  0.2010  0.5218  0.5218  0.6222  0.6222

 Free energy of the ion-electron system (eV)
  ---------------------------------------------------
  alpha Z        PSCENC =       453.10565554
  Ewald energy   TEWEN  =     -4853.25068260
  -Hartree energ DENC   =     -1379.32479263
  -exchange      EXHF   =         0.00000000
  -V(xc)+E(xc)   XCENC  =       232.21454176
  PAW double counting   =      5264.51035356    -5575.00010874
  entropy T*S    EENTRO =         0.00634791
  eigenvalues    EBANDS =      -288.20805739
  atomic energy  EATOM  =      6104.32616516
  Solvation  Ediel_sol  =         0.00000000
  ---------------------------------------------------
  free energy    TOTEN  =       -41.62057742 eV

  energy without entropy =      -41.62692533  energy(sigma->0) =      -41.62269339


--------------------------------------------------------------------------------------------------------




--------------------------------------- Iteration      1(  13)  ---------------------------------------


    POTLOK:  cpu time    0.0152: real time    0.0153
    SETDIJ:  cpu time    0.0078: real time    0.0078
     EDDAV:  cpu time    0.9214: real time    0.9238
       DOS:  cpu time    0.0020: real time    0.0020
    CHARGE:  cpu time    0.0416: real time    0.0417
    MIXING:  cpu time    0.0008: real time    0.0008
    --------------------------------------------
      LOOP:  cpu time    0.9888: real time    0.9914

 eigenvalue-minimisations  :  5232
 total energy-change (2. order) :-0.1331811E-02  (-0.1953795E-01)
 number of electron      45.9999984 magnetization      -0.0000000
 augmentation part       11.6526733 magnetization      -0.0000000

 Broyden mixing:
  rms(total) = 0.17806E+00    rms(broyden)= 0.17805E+00
  rms(prec ) = 0.24366E+00
  weight for this iteration     100.00

 eigenvalues of (default mixing * dielectric matrix)
  average eigenvalue GAMMA=   0.9139
  3.0512  1.1101  0.2010  0.5185  0.5185  0.6449  0.6449  0.6224

 Free energy of the ion-electron system (eV)
  ---------------------------------------------------
  alpha Z        PSCENC =       453.10565554
  Ewald energy   TEWEN  =     -4853.25068260
  -Hartree energ DENC   =     -1377.65795962
  -exchange      EXHF   =         0.00000000
  -V(xc)+E(xc)   XCENC  =       232.60790071
  PAW double counting   =      5269.82954934    -5579.50560230
  entropy T*S    EENTRO =         0.00829892
  eigenvalues    EBANDS =      -291.08523438
  atomic energy  EATOM  =      6104.32616516
  Solvation  Ediel_sol  =         0.00000000
  ---------------------------------------------------
  free energy    TOTEN  =       -41.62190924 eV

  energy without entropy =      -41.63020816  energy(sigma->0) =      -41.62467554


--------------------------------------------------------------------------------------------------------




--------------------------------------- Iteration      1(  14)  ---------------------------------------


    POTLOK:  cpu time    0.0151: real time    0.0153
    SETDIJ:  cpu time    0.0077: real time    0.0078
     EDDAV:  cpu time    0.6869: real time    0.6885
       DOS:  cpu time    0.0020: real time    0.0020
    CHARGE:  cpu time    0.0433: real time    0.0436
    MIXING:  cpu time    0.0010: real time    0.0010
    --------------------------------------------
      LOOP:  cpu time    0.7561: real time    0.7581

 eigenvalue-minimisations  :  3752
 total energy-change (2. order) : 0.2724949E-02  (-0.1089828E-02)
 number of electron      45.9999984 magnetization      -0.0000000
 augmentation part       11.6691591 magnetization      -0.0000000

 Broyden mixing:
  rms(total) = 0.17015E+00    rms(broyden)= 0.17015E+00
  rms(prec ) = 0.23269E+00
  weight for this iteration     100.00

 eigenvalues of (default mixing * dielectric matrix)
  average eigenvalue GAMMA=   0.9782
  3.3220  0.2010  0.5180  0.5180  0.9833  0.9833  0.9479  0.6653  0.6653

 Free energy of the ion-electron system (eV)
  ---------------------------------------------------
  alpha Z        PSCENC =       453.10565554
  Ewald energy   TEWEN  =     -4853.25068260
  -Hartree energ DENC   =     -1377.54224006
  -exchange      EXHF   =         0.00000000
  -V(xc)+E(xc)   XCENC  =       232.65051224
  PAW double counting   =      5272.16113032    -5581.35516823
  entropy T*S    EENTRO =         0.00861926
  eigenvalues    EBANDS =      -291.72317591
  atomic energy  EATOM  =      6104.32616516
  Solvation  Ediel_sol  =         0.00000000
  ---------------------------------------------------
  free energy    TOTEN  =       -41.61918429 eV

  energy without entropy =      -41.62780355  energy(sigma->0) =      -41.62205737


--------------------------------------------------------------------------------------------------------




--------------------------------------- Iteration      1(  15)  ---------------------------------------


    POTLOK:  cpu time    0.0158: real time    0.0160
    SETDIJ:  cpu time    0.0078: real time    0.0078
     EDDAV:  cpu time    0.7541: real time    0.7558
       DOS:  cpu time    0.0020: real time    0.0020
    CHARGE:  cpu time    0.0432: real time    0.0433
    MIXING:  cpu time    0.0010: real time    0.0010
    --------------------------------------------
      LOOP:  cpu time    0.8237: real time    0.8258

 eigenvalue-minimisations  :  4232
 total energy-change (2. order) : 0.1137620E-01  (-0.3151855E-02)
 number of electron      45.9999983 magnetization      -0.0000000
 augmentation part       11.7188651 magnetization      -0.0000000

 Broyden mixing:
  rms(total) = 0.15047E+00    rms(broyden)= 0.15047E+00
  rms(prec ) = 0.19788E+00
  weight for this iteration     100.00

 eigenvalues of (default mixing * dielectric matrix)
  average eigenvalue GAMMA=   0.9993
  3.1881  1.2806  1.2806  0.2010  0.5189  0.5189  0.8303  0.8303  0.7284  0.6164

 Free energy of the ion-electron system (eV)
  ---------------------------------------------------
  alpha Z        PSCENC =       453.10565554
  Ewald energy   TEWEN  =     -4853.25068260
  -Hartree energ DENC   =     -1377.23174052
  -exchange      EXHF   =         0.00000000
  -V(xc)+E(xc)   XCENC  =       232.72585545
  PAW double counting   =      5279.95802694    -5587.76615056
  entropy T*S    EENTRO =         0.00895050
  eigenvalues    EBANDS =      -293.48388801
  atomic energy  EATOM  =      6104.32616516
  Solvation  Ediel_sol  =         0.00000000
  ---------------------------------------------------
  free energy    TOTEN  =       -41.60780809 eV

  energy without entropy =      -41.61675859  energy(sigma->0) =      -41.61079159


--------------------------------------------------------------------------------------------------------




--------------------------------------- Iteration      1(  16)  ---------------------------------------


    POTLOK:  cpu time    0.0156: real time    0.0158
    SETDIJ:  cpu time    0.0079: real time    0.0079
     EDDAV:  cpu time    0.9006: real time    0.9029
       DOS:  cpu time    0.0019: real time    0.0019
    CHARGE:  cpu time    0.0435: real time    0.0436
    MIXING:  cpu time    0.0011: real time    0.0011
    --------------------------------------------
      LOOP:  cpu time    0.9708: real time    0.9733

 eigenvalue-minimisations  :  5120
 total energy-change (2. order) : 0.7347548E-03  (-0.1071453E-02)
 number of electron      45.9999983 magnetization       0.0000000
 augmentation part       11.7013374 magnetization       0.0000000

 Broyden mixing:
  rms(total) = 0.11795E+00    rms(broyden)= 0.11795E+00
  rms(prec ) = 0.14546E+00
  weight for this iteration     100.00

 eigenvalues of (default mixing * dielectric matrix)
  average eigenvalue GAMMA=   1.0688
  3.4129  1.7788  1.7788  0.2010  0.5181  0.5181  0.8215  0.8215  0.6467  0.6298
  0.6298

 Free energy of the ion-electron system (eV)
  ---------------------------------------------------
  alpha Z        PSCENC =       453.10565554
  Ewald energy   TEWEN  =     -4853.25068260
  -Hartree energ DENC   =     -1377.66885293
  -exchange      EXHF   =         0.00000000
  -V(xc)+E(xc)   XCENC  =       232.64891841
  PAW double counting   =      5283.53416892    -5591.12778283
  entropy T*S    EENTRO =         0.00929822
  eigenvalues    EBANDS =      -293.18396123
  atomic energy  EATOM  =      6104.32616516
  Solvation  Ediel_sol  =         0.00000000
  ---------------------------------------------------
  free energy    TOTEN  =       -41.60707333 eV

  energy without entropy =      -41.61637155  energy(sigma->0) =      -41.61017274


--------------------------------------------------------------------------------------------------------




--------------------------------------- Iteration      1(  17)  ---------------------------------------


    POTLOK:  cpu time    0.0155: real time    0.0156
    SETDIJ:  cpu time    0.0078: real time    0.0078
     EDDAV:  cpu time    0.8489: real time    0.8510
       DOS:  cpu time    0.0019: real time    0.0019
    CHARGE:  cpu time    0.0415: real time    0.0416
    MIXING:  cpu time    0.0011: real time    0.0011
    --------------------------------------------
      LOOP:  cpu time    0.9167: real time    0.9191

 eigenvalue-minimisations  :  4808
 total energy-change (2. order) : 0.6653565E-03  (-0.1193693E-02)
 number of electron      45.9999982 magnetization      -0.0000000
 augmentation part       11.6959083 magnetization      -0.0000000

 Broyden mixing:
  rms(total) = 0.68013E-01    rms(broyden)= 0.68009E-01
  rms(prec ) = 0.80826E-01
  weight for this iteration     100.00

 eigenvalues of (default mixing * dielectric matrix)
  average eigenvalue GAMMA=   1.0815
  2.5801  2.3362  2.3362  0.2010  0.8688  0.8688  0.5184  0.5184  0.6710  0.6710
  0.7039  0.7039

 Free energy of the ion-electron system (eV)
  ---------------------------------------------------
  alpha Z        PSCENC =       453.10565554
  Ewald energy   TEWEN  =     -4853.25068260
  -Hartree energ DENC   =     -1377.63502801
  -exchange      EXHF   =         0.00000000
  -V(xc)+E(xc)   XCENC  =       232.46611759
  PAW double counting   =      5286.85212191    -5594.01762660
  entropy T*S    EENTRO =         0.00975032
  eigenvalues    EBANDS =      -293.46288129
  atomic energy  EATOM  =      6104.32616516
  Solvation  Ediel_sol  =         0.00000000
  ---------------------------------------------------
  free energy    TOTEN  =       -41.60640798 eV

  energy without entropy =      -41.61615830  energy(sigma->0) =      -41.60965809


--------------------------------------------------------------------------------------------------------




--------------------------------------- Iteration      1(  18)  ---------------------------------------


    POTLOK:  cpu time    0.0152: real time    0.0153
    SETDIJ:  cpu time    0.0077: real time    0.0077
     EDDAV:  cpu time    0.7759: real time    0.7779
       DOS:  cpu time    0.0020: real time    0.0020
    CHARGE:  cpu time    0.0427: real time    0.0428
    MIXING:  cpu time    0.0012: real time    0.0012
    --------------------------------------------
      LOOP:  cpu time    0.8447: real time    0.8470

 eigenvalue-minimisations  :  4392
 total energy-change (2. order) :-0.5406623E-03  (-0.3856180E-03)
 number of electron      45.9999982 magnetization       0.0000000
 augmentation part       11.6793795 magnetization       0.0000000

 Broyden mixing:
  rms(total) = 0.40740E-01    rms(broyden)= 0.40739E-01
  rms(prec ) = 0.46761E-01
  weight for this iteration     100.00

 eigenvalues of (default mixing * dielectric matrix)
  average eigenvalue GAMMA=   1.0826
  2.6161  2.4656  2.4656  0.2010  0.5184  0.5184  0.8842  0.8842  0.8353  0.8353
  0.6312  0.6312  0.5875

 Free energy of the ion-electron system (eV)
  ---------------------------------------------------
  alpha Z        PSCENC =       453.10565554
  Ewald energy   TEWEN  =     -4853.25068260
  -Hartree energ DENC   =     -1377.69610586
  -exchange      EXHF   =         0.00000000
  -V(xc)+E(xc)   XCENC  =       232.36341140
  PAW double counting   =      5286.27663059    -5593.67113942
  entropy T*S    EENTRO =         0.00944999
  eigenvalues    EBANDS =      -293.07033344
  atomic energy  EATOM  =      6104.32616516
  Solvation  Ediel_sol  =         0.00000000
  ---------------------------------------------------
  free energy    TOTEN  =       -41.60694864 eV

  energy without entropy =      -41.61639863  energy(sigma->0) =      -41.61009864


--------------------------------------------------------------------------------------------------------




--------------------------------------- Iteration      1(  19)  ---------------------------------------


    POTLOK:  cpu time    0.0149: real time    0.0151
    SETDIJ:  cpu time    0.0076: real time    0.0076
     EDDAV:  cpu time    0.9199: real time    0.9222
       DOS:  cpu time    0.0020: real time    0.0020
    CHARGE:  cpu time    0.0425: real time    0.0426
    MIXING:  cpu time    0.0012: real time    0.0012
    --------------------------------------------
      LOOP:  cpu time    0.9882: real time    0.9907

 eigenvalue-minimisations  :  5276
 total energy-change (2. order) :-0.1955162E-03  (-0.8407089E-04)
 number of electron      45.9999982 magnetization       0.0000000
 augmentation part       11.6721965 magnetization       0.0000000

 Broyden mixing:
  rms(total) = 0.23157E-01    rms(broyden)= 0.23157E-01
  rms(prec ) = 0.27049E-01
  weight for this iteration     100.00

 eigenvalues of (default mixing * dielectric matrix)
  average eigenvalue GAMMA=   1.1153
  2.7921  2.7921  2.2767  1.0949  1.0949  0.8540  0.8540  0.2010  0.5184  0.5184
  0.6859  0.6859  0.6230  0.6230

 Free energy of the ion-electron system (eV)
  ---------------------------------------------------
  alpha Z        PSCENC =       453.10565554
  Ewald energy   TEWEN  =     -4853.25068260
  -Hartree energ DENC   =     -1377.62731071
  -exchange      EXHF   =         0.00000000
  -V(xc)+E(xc)   XCENC  =       232.29911516
  PAW double counting   =      5285.10923147    -5592.62461201
  entropy T*S    EENTRO =         0.00927421
  eigenvalues    EBANDS =      -292.95398039
  atomic energy  EATOM  =      6104.32616516
  Solvation  Ediel_sol  =         0.00000000
  ---------------------------------------------------
  free energy    TOTEN  =       -41.60714416 eV

  energy without entropy =      -41.61641837  energy(sigma->0) =      -41.61023556


--------------------------------------------------------------------------------------------------------




--------------------------------------- Iteration      1(  20)  ---------------------------------------


    POTLOK:  cpu time    0.0151: real time    0.0152
    SETDIJ:  cpu time    0.0077: real time    0.0077
     EDDAV:  cpu time    0.7858: real time    0.7878
       DOS:  cpu time    0.0020: real time    0.0020
    CHARGE:  cpu time    0.0458: real time    0.0459
    MIXING:  cpu time    0.0013: real time    0.0013
    --------------------------------------------
      LOOP:  cpu time    0.8577: real time    0.8600

 eigenvalue-minimisations  :  4424
 total energy-change (2. order) :-0.1947332E-04  (-0.9093022E-04)
 number of electron      45.9999982 magnetization      -0.0000000
 augmentation part       11.6625980 magnetization      -0.0000000

 Broyden mixing:
  rms(total) = 0.52786E-02    rms(broyden)= 0.52778E-02
  rms(prec ) = 0.66653E-02
  weight for this iteration     100.00

 eigenvalues of (default mixing * dielectric matrix)
  average eigenvalue GAMMA=   1.1325
  2.7581  2.7581  2.0509  2.0509  0.2010  0.5184  0.5184  0.8572  0.8572  0.9176
  0.9176  0.6938  0.6938  0.5972  0.5972

 Free energy of the ion-electron system (eV)
  ---------------------------------------------------
  alpha Z        PSCENC =       453.10565554
  Ewald energy   TEWEN  =     -4853.25068260
  -Hartree energ DENC   =     -1377.59473411
  -exchange      EXHF   =         0.00000000
  -V(xc)+E(xc)   XCENC  =       232.21180367
  PAW double counting   =      5283.87302741    -5591.50016130
  entropy T*S    EENTRO =         0.00912790
  eigenvalues    EBANDS =      -292.78736531
  atomic energy  EATOM  =      6104.32616516
  Solvation  Ediel_sol  =         0.00000000
  ---------------------------------------------------
  free energy    TOTEN  =       -41.60716363 eV

  energy without entropy =      -41.61629153  energy(sigma->0) =      -41.61020626


--------------------------------------------------------------------------------------------------------




--------------------------------------- Iteration      1(  21)  ---------------------------------------


    POTLOK:  cpu time    0.0152: real time    0.0153
    SETDIJ:  cpu time    0.0077: real time    0.0077
     EDDAV:  cpu time    0.8338: real time    0.8359
       DOS:  cpu time    0.0021: real time    0.0021
    CHARGE:  cpu time    0.0461: real time    0.0462
    MIXING:  cpu time    0.0014: real time    0.0014
    --------------------------------------------
      LOOP:  cpu time    0.9063: real time    0.9086

 eigenvalue-minimisations  :  4712
 total energy-change (2. order) :-0.1580912E-04  (-0.9044251E-05)
 number of electron      45.9999982 magnetization      -0.0000000
 augmentation part       11.6636137 magnetization      -0.0000000

 Broyden mixing:
  rms(total) = 0.34809E-02    rms(broyden)= 0.34807E-02
  rms(prec ) = 0.53533E-02
  weight for this iteration     100.00

 eigenvalues of (default mixing * dielectric matrix)
  average eigenvalue GAMMA=   1.1979
  2.9890  2.9890  2.4532  2.4532  1.0456  1.0456  0.8561  0.8561  0.2010  0.5184
  0.5184  0.6902  0.6902  0.7052  0.6212  0.5346

 Free energy of the ion-electron system (eV)
  ---------------------------------------------------
  alpha Z        PSCENC =       453.10565554
  Ewald energy   TEWEN  =     -4853.25068260
  -Hartree energ DENC   =     -1377.67201930
  -exchange      EXHF   =         0.00000000
  -V(xc)+E(xc)   XCENC  =       232.22836509
  PAW double counting   =      5284.18842750    -5591.77322533
  entropy T*S    EENTRO =         0.00910575
  eigenvalues    EBANDS =      -292.76897124
  atomic energy  EATOM  =      6104.32616516
  Solvation  Ediel_sol  =         0.00000000
  ---------------------------------------------------
  free energy    TOTEN  =       -41.60717944 eV

  energy without entropy =      -41.61628519  energy(sigma->0) =      -41.61021469


--------------------------------------------------------------------------------------------------------




--------------------------------------- Iteration      1(  22)  ---------------------------------------


    POTLOK:  cpu time    0.0150: real time    0.0151
    SETDIJ:  cpu time    0.0075: real time    0.0075
     EDDAV:  cpu time    0.6906: real time    0.6924
       DOS:  cpu time    0.0021: real time    0.0021
    CHARGE:  cpu time    0.0462: real time    0.0463
    MIXING:  cpu time    0.0015: real time    0.0015
    --------------------------------------------
      LOOP:  cpu time    0.7629: real time    0.7650

 eigenvalue-minimisations  :  3832
 total energy-change (2. order) : 0.1905171E-04  (-0.1097781E-04)
 number of electron      45.9999982 magnetization       0.0000000
 augmentation part       11.6597732 magnetization       0.0000000

 Broyden mixing:
  rms(total) = 0.10296E-02    rms(broyden)= 0.10285E-02
  rms(prec ) = 0.10683E-02
  weight for this iteration     100.00

 eigenvalues of (default mixing * dielectric matrix)
  average eigenvalue GAMMA=   1.1875
  2.9156  2.9156  2.8300  2.4443  1.0553  1.0553  0.2010  0.8535  0.8535  0.5184
  0.5184  0.7612  0.7612  0.6769  0.6769  0.5851  0.5651

 Free energy of the ion-electron system (eV)
  ---------------------------------------------------
  alpha Z        PSCENC =       453.10565554
  Ewald energy   TEWEN  =     -4853.25068260
  -Hartree energ DENC   =     -1377.75935804
  -exchange      EXHF   =         0.00000000
  -V(xc)+E(xc)   XCENC  =       232.22716944
  PAW double counting   =      5283.85383668    -5591.49409874
  entropy T*S    EENTRO =         0.00905379
  eigenvalues    EBANDS =      -292.62490161
  atomic energy  EATOM  =      6104.32616516
  Solvation  Ediel_sol  =         0.00000000
  ---------------------------------------------------
  free energy    TOTEN  =       -41.60716039 eV

  energy without entropy =      -41.61621417  energy(sigma->0) =      -41.61017832


--------------------------------------------------------------------------------------------------------




--------------------------------------- Iteration      1(  23)  ---------------------------------------


    POTLOK:  cpu time    0.0151: real time    0.0152
    SETDIJ:  cpu time    0.0077: real time    0.0077
     EDDAV:  cpu time    0.7449: real time    0.7466
       DOS:  cpu time    0.0021: real time    0.0021
    CHARGE:  cpu time    0.0466: real time    0.0467
    MIXING:  cpu time    0.0018: real time    0.0018
    --------------------------------------------
      LOOP:  cpu time    0.8181: real time    0.8201

 eigenvalue-minimisations  :  4056
 total energy-change (2. order) :-0.1083285E-05  (-0.9337228E-06)
 number of electron      45.9999982 magnetization       0.0000000
 augmentation part       11.6590853 magnetization       0.0000000

 Broyden mixing:
  rms(total) = 0.11134E-02    rms(broyden)= 0.11130E-02
  rms(prec ) = 0.13823E-02
  weight for this iteration     100.00

 eigenvalues of (default mixing * dielectric matrix)
  average eigenvalue GAMMA=   1.1628
  2.9362  2.9362  2.9347  2.2236  1.1247  1.1247  0.2010  0.8532  0.8532  0.5184
  0.5184  0.8160  0.8160  0.6498  0.6498  0.6243  0.6243  0.5265

 Free energy of the ion-electron system (eV)
  ---------------------------------------------------
  alpha Z        PSCENC =       453.10565554
  Ewald energy   TEWEN  =     -4853.25068260
  -Hartree energ DENC   =     -1377.78050357
  -exchange      EXHF   =         0.00000000
  -V(xc)+E(xc)   XCENC  =       232.22839930
  PAW double counting   =      5283.82914456    -5591.47991970
  entropy T*S    EENTRO =         0.00903492
  eigenvalues    EBANDS =      -292.59445509
  atomic energy  EATOM  =      6104.32616516
  Solvation  Ediel_sol  =         0.00000000
  ---------------------------------------------------
  free energy    TOTEN  =       -41.60716147 eV

  energy without entropy =      -41.61619639  energy(sigma->0) =      -41.61017311


--------------------------------------------------------------------------------------------------------




--------------------------------------- Iteration      1(  24)  ---------------------------------------


    POTLOK:  cpu time    0.0159: real time    0.0161
    SETDIJ:  cpu time    0.0080: real time    0.0080
     EDDAV:  cpu time    0.4323: real time    0.4335
       DOS:  cpu time    0.0021: real time    0.0021
    --------------------------------------------
      LOOP:  cpu time    0.4583: real time    0.4597

 eigenvalue-minimisations  :  1912
 total energy-change (2. order) : 0.5321544E-07  (-0.4902156E-07)
 number of electron      45.9999982 magnetization       0.0000000
 augmentation part       11.6590853 magnetization       0.0000000

 Free energy of the ion-electron system (eV)
  ---------------------------------------------------
  alpha Z        PSCENC =       453.10565554
  Ewald energy   TEWEN  =     -4853.25068260
  -Hartree energ DENC   =     -1377.77492609
  -exchange      EXHF   =         0.00000000
  -V(xc)+E(xc)   XCENC  =       232.22768190
  PAW double counting   =      5283.81947500    -5591.47352134
  entropy T*S    EENTRO =         0.00903688
  eigenvalues    EBANDS =      -292.59604586
  atomic energy  EATOM  =      6104.32616516
  Solvation  Ediel_sol  =         0.00000000
  ---------------------------------------------------
  free energy    TOTEN  =       -41.60716142 eV

  energy without entropy =      -41.61619829  energy(sigma->0) =      -41.61017371


--------------------------------------------------------------------------------------------------------




 average (electrostatic) potential at core
  the test charge radii are     1.1829  0.7215
  (the norm of the test charge is              1.0000)
       1 -37.4366       2 -37.4366       3 -71.1774       4 -71.1774
 
 
 
 E-fermi :   4.8180     XC(G=0): -11.0356     alpha+bet :-12.2018


 spin component 1

 k-point     1 :       0.0000    0.0000    0.0000
  band No.  band energies     occupation 
      1     -36.3072      1.00000
      2     -33.2529      1.00000
      3     -16.2871      1.00000
      4     -14.7753      1.00000
      5     -14.7742      1.00000
      6     -13.8526      1.00000
      7     -13.6285      1.00000
      8     -12.4748      1.00000
      9     -12.4733      1.00000
     10     -11.4721      1.00000
     11      -1.0301      1.00000
     12       0.0189      1.00000
     13       0.0191      1.00000
     14       1.1156      1.00000
     15       1.1158      1.00000
     16       1.1181      1.00000
     17       4.3867      1.00000
     18       4.5675      1.00113
     19       4.5684      1.00118
     20       4.7098      1.03167
     21       4.7573      0.92292
     22       4.8246      0.44451
     23       4.8249      0.44148
     24       5.3494     -0.00000
     25       7.0653     -0.00000
     26       7.1720     -0.00000
     27       7.1721     -0.00000
     28       7.9425      0.00000

 k-point     2 :       0.2000   -0.0000   -0.0000
  band No.  band energies     occupation 
      1     -36.2824      1.00000
      2     -33.2214      1.00000
      3     -16.0246      1.00000
      4     -15.4169      1.00000
      5     -14.8427      1.00000
      6     -13.9446      1.00000
      7     -13.6790      1.00000
      8     -12.5603      1.00000
      9     -12.1988      1.00000
     10     -11.7797      1.00000
     11      -0.4861      1.00000
     12       0.1194      1.00000
     13       0.2041      1.00000
     14       0.5505      1.00000
     15       0.8863      1.00000
     16       0.9537      1.00000
     17       4.4000      1.00000
     18       4.5422      1.00034
     19       4.5584      1.00075
     20       4.6354      1.01346
     21       4.6605      1.02424
     22       4.6941      1.03543
     23       4.7830      0.77734
     24       6.4203     -0.00000
     25       6.7164     -0.00000
     26       7.5419     -0.00000
     27       8.0103      0.00000
     28       8.1703      0.00000

 k-point     3 :       0.4000   -0.0000   -0.0000
  band No.  band energies     occupation 
      1     -36.2419      1.00000
      2     -33.1698      1.00000
      3     -16.0993      1.00000
      4     -15.3877      1.00000
      5     -14.9503      1.00000
      6     -14.7046      1.00000
      7     -13.3220      1.00000
      8     -12.6959      1.00000
      9     -12.5356      1.00000
     10     -11.8729      1.00000
     11      -0.1870      1.00000
     12       0.0139      1.00000
     13       0.4905      1.00000
     14       0.5198      1.00000
     15       0.7020      1.00000
     16       0.8587      1.00000
     17       4.4152      1.00000
     18       4.4940      1.00002
     19       4.5080      1.00005
     20       4.5785      1.00183
     21       4.6012      1.00447
     22       4.6525      1.02053
     23       4.7665      0.87831
     24       5.7114     -0.00000
     25       6.7935     -0.00000
     26       8.2203      0.00000
     27       8.7641      0.00000
     28       9.0198      0.00000

 k-point     4 :       0.0000    0.2000   -0.0000
  band No.  band energies     occupation 
      1     -36.2824      1.00000
      2     -33.2215      1.00000
      3     -15.9890      1.00000
      4     -15.4699      1.00000
      5     -14.8457      1.00000
      6     -14.0452      1.00000
      7     -13.5189      1.00000
      8     -12.5575      1.00000
      9     -12.1928      1.00000
     10     -11.8284      1.00000
     11      -0.2860      1.00000
     12       0.1907      1.00000
     13       0.3812      1.00000
     14       0.4178      1.00000
     15       0.6944      1.00000
     16       0.6969      1.00000
     17       4.3997      1.00000
     18       4.5274      1.00016
     19       4.5623      1.00089
     20       4.6371      1.01407
     21       4.6568      1.02251
     22       4.6848      1.03394
     23       4.7644      0.88934
     24       6.5697     -0.00000
     25       7.0181     -0.00000
     26       7.1023     -0.00000
     27       7.9502      0.00000
     28       8.1157      0.00000

 k-point     5 :       0.2000    0.2000   -0.0000
  band No.  band energies     occupation 
      1     -36.2497      1.00000
      2     -33.1797      1.00000
[...]
 -4.027  -0.351  -0.000   0.000   0.000   0.000  -0.000  -0.000
  0.000  -0.000 -15.666   0.000   0.000   7.375  -0.000  -0.000
 -0.000   0.000   0.000 -15.667   0.000  -0.000   7.377  -0.000
 -0.000   0.000   0.000   0.000 -15.666  -0.000  -0.000   7.375
  0.000   0.000   7.375  -0.000  -0.000   4.937   0.000   0.000
 -0.000  -0.000  -0.000   7.377  -0.000   0.000   4.936   0.000
 -0.000  -0.000  -0.000  -0.000   7.375   0.000   0.000   4.937
  0.000   0.000  -0.000   0.000   0.000  -0.000   0.000   0.000
  0.000  -0.000  -0.000   0.000   0.000  -0.000   0.000   0.000
 -0.001  -0.000  -0.000  -0.000   0.000  -0.000  -0.000   0.000
  0.000  -0.000   0.000  -0.000  -0.000   0.000  -0.000  -0.000
  0.000   0.000  -0.000  -0.000  -0.000  -0.000  -0.000  -0.000
 -0.000  -0.000  -0.000   0.000   0.000   0.000  -0.000  -0.000
 -0.000   0.000  -0.000   0.000   0.000   0.000  -0.000  -0.000
  0.001   0.000   0.000   0.000  -0.000   0.000   0.000  -0.000
 -0.000   0.000   0.000  -0.000  -0.000  -0.000   0.000   0.000
 -0.000  -0.000   0.000  -0.000  -0.000   0.000   0.000   0.000
 -0.000   0.000   0.000  -0.003   0.000  -0.000  -0.001  -0.000
 -0.000   0.000  -0.000   0.000  -0.003   0.000  -0.000  -0.001
 -0.000   0.000   0.001  -0.000  -0.000   0.001   0.000   0.000
 -0.000   0.000   0.000  -0.003   0.000  -0.000  -0.000  -0.000
  0.000  -0.000  -0.000  -0.000   0.001   0.000   0.000   0.001
  0.000  -0.000  -0.003   0.000  -0.000  -0.001  -0.000   0.000
  0.000  -0.000  -0.000  -0.000   0.000   0.000   0.000  -0.000
 -0.000   0.000   0.000  -0.003   0.000  -0.000  -0.001  -0.000
 -0.000   0.000  -0.000   0.000  -0.003   0.000  -0.000  -0.001
 -0.000   0.000   0.001  -0.000  -0.000   0.001   0.000   0.000
 -0.000   0.000   0.000  -0.003   0.000  -0.000  -0.000  -0.000
  0.000  -0.000  -0.000  -0.000   0.001   0.000   0.000   0.001
  0.000  -0.000  -0.003   0.000  -0.000  -0.001  -0.000   0.000
  0.000  -0.000  -0.000  -0.000   0.000   0.000   0.000  -0.000
 pseudopotential strength for first ion, spin component:           2
-15.721   0.721   0.000  -0.000  -0.000   0.000  -0.000  -0.000
  0.721  -3.402  -0.000   0.000   0.000   0.000  -0.000  -0.000
  0.000  -0.000 -17.545   0.000   0.000   7.756  -0.000  -0.000
 -0.000   0.000   0.000 -17.547   0.000  -0.000   7.759  -0.000
 -0.000   0.000   0.000   0.000 -17.545  -0.000  -0.000   7.756
  0.000   0.000   7.756  -0.000  -0.000   5.168   0.000   0.000
 -0.000  -0.000  -0.000   7.759  -0.000   0.000   5.166   0.000
 -0.000  -0.000  -0.000  -0.000   7.756   0.000   0.000   5.168
  0.000   0.000  -0.000   0.000   0.000  -0.000   0.000   0.000
  0.000  -0.000  -0.000   0.000   0.000  -0.000   0.000   0.000
 -0.000  -0.000  -0.000  -0.000   0.000  -0.000  -0.000   0.000
  0.000  -0.000   0.000  -0.000  -0.000   0.000  -0.000  -0.000
  0.000   0.000  -0.000  -0.000  -0.000  -0.000  -0.000  -0.000
 -0.000  -0.000  -0.000   0.000   0.000   0.000  -0.000  -0.000
 -0.000   0.000  -0.000   0.000   0.000   0.000  -0.000  -0.000
  0.001   0.000   0.000   0.000  -0.000   0.000   0.000  -0.000
 -0.000   0.000   0.000  -0.000  -0.000  -0.000   0.000   0.000
 -0.000  -0.000   0.000  -0.000  -0.000   0.000   0.000   0.000
 -0.000   0.000   0.000  -0.021   0.000  -0.000   0.012  -0.000
 -0.000   0.000  -0.000   0.000  -0.026  -0.000  -0.000   0.014
 -0.000   0.000   0.010  -0.000   0.000  -0.005   0.000  -0.000
 -0.000   0.000  -0.000  -0.019  -0.000   0.000   0.010   0.000
  0.000  -0.000   0.000  -0.000   0.010  -0.000   0.000  -0.005
  0.000  -0.000  -0.026   0.000  -0.000   0.014  -0.000  -0.000
  0.000  -0.000  -0.000  -0.000   0.000   0.000   0.000  -0.000
 -0.000   0.000   0.000  -0.021   0.000  -0.000   0.012  -0.000
 -0.000   0.000  -0.000   0.000  -0.025  -0.000  -0.000   0.014
 -0.000   0.000   0.010  -0.000   0.000  -0.005   0.000  -0.000
 -0.000   0.000  -0.000  -0.018  -0.000   0.000   0.010   0.000
  0.000  -0.000   0.000  -0.000   0.010  -0.000   0.000  -0.005
  0.000  -0.000  -0.025   0.000  -0.000   0.014  -0.000  -0.000
  0.000  -0.000  -0.000  -0.000   0.000   0.000   0.000  -0.000
 total augmentation occupancy for first ion, spin component:           1
  1.992  -0.038  -0.000   0.000   0.000  -0.000   0.000   0.000  -0.000   0.000  -0.000   0.000  -0.000   0.000   0.000  -0.000
 -0.038   0.605  -0.000   0.000  -0.000   0.000   0.000   0.000   0.000   0.000  -0.001   0.000   0.000   0.000   0.000  -0.000
  0.000   0.000   2.012  -0.000  -0.000  -0.020   0.000   0.000   0.000   0.000   0.000   0.000   0.000  -0.000   0.000  -0.000
 -0.000  -0.000  -0.000   2.013   0.000   0.000  -0.020   0.000   0.000   0.000  -0.000   0.000  -0.000   0.000   0.000  -0.000
  0.000   0.000  -0.000   0.000   2.012   0.000   0.000  -0.020  -0.000   0.000  -0.000   0.000   0.000  -0.000   0.000  -0.000
  0.000   0.000  -0.020   0.000   0.000   0.020  -0.000  -0.000   0.000   0.000   0.000  -0.000  -0.000   0.000   0.000   0.000
  0.000   0.000   0.000  -0.020   0.000  -0.000   0.020  -0.000   0.000   0.000   0.000   0.000   0.000   0.000   0.000   0.000
  0.000   0.000   0.000   0.000  -0.020  -0.000  -0.000   0.020   0.000   0.000   0.000   0.000   0.000   0.000  -0.000   0.000
 -0.000   0.000  -0.000   0.000  -0.000   0.000  -0.000   0.000   0.230  -0.000  -0.001  -0.082  -0.000   0.063  -0.000  -0.000
  0.000   0.000   0.000   0.000   0.000   0.000   0.000   0.000  -0.000   0.288  -0.000  -0.000  -0.082  -0.000   0.084  -0.000
 -0.000  -0.001   0.000  -0.000   0.000   0.000   0.000   0.000  -0.001  -0.000   0.171  -0.000  -0.000  -0.000  -0.000   0.041
  0.000   0.000   0.000   0.000   0.000  -0.000   0.000   0.000  -0.082  -0.000  -0.000   0.288  -0.000  -0.031  -0.000  -0.000
 -0.000   0.000   0.000   0.000   0.000  -0.000   0.000  -0.000  -0.000  -0.082  -0.000  -0.000   0.230  -0.000  -0.031  -0.000
  0.000   0.000   0.000  -0.000   0.000  -0.000   0.000   0.000   0.063  -0.000  -0.000  -0.031  -0.000   0.018  -0.000  -0.000
  0.000   0.000   0.000   0.000   0.000   0.000  -0.000   0.000  -0.000   0.084  -0.000  -0.000  -0.031  -0.000   0.026  -0.000
 -0.000  -0.000   0.000   0.000   0.000   0.000   0.000   0.000  -0.000  -0.000   0.041  -0.000  -0.000  -0.000  -0.000   0.010
  0.000   0.000   0.000   0.000   0.000   0.000   0.000   0.000  -0.031  -0.000  -0.000   0.084  -0.000  -0.011  -0.000  -0.000
  0.000   0.000   0.000  -0.000   0.000   0.000  -0.000   0.000  -0.000  -0.031  -0.000  -0.000   0.063  -0.000  -0.011  -0.000
  0.000   0.000   0.000  -0.120   0.000   0.000   0.083   0.000   0.000   0.000   0.000   0.000  -0.000   0.000   0.000   0.000
  0.000  -0.000  -0.000   0.000  -0.147  -0.000  -0.000   0.101   0.000  -0.000   0.000   0.000   0.000   0.000   0.000   0.000
  0.000   0.000   0.064  -0.000  -0.000  -0.045  -0.000  -0.000   0.000  -0.000   0.000   0.000   0.000   0.000   0.000  -0.000
 -0.000  -0.000   0.000  -0.108   0.000  -0.000   0.074  -0.000   0.000   0.000   0.000  -0.000   0.000   0.000   0.000  -0.000
  0.000   0.000  -0.000  -0.000   0.064  -0.000  -0.000  -0.045   0.000   0.000   0.000  -0.000   0.000   0.000   0.000   0.000
  0.000   0.000  -0.147   0.000  -0.000   0.101  -0.000  -0.000   0.000  -0.000   0.000   0.000  -0.000   0.000   0.000   0.000
  0.000   0.000  -0.000  -0.000   0.000   0.000   0.000  -0.000   0.000  -0.000   0.000   0.000   0.000   0.000  -0.000   0.000
 -0.000   0.000  -0.000   0.122  -0.000  -0.000  -0.076  -0.000  -0.000   0.000  -0.000   0.000   0.000   0.000   0.000  -0.000
  0.000  -0.000   0.000  -0.000   0.149   0.000   0.000  -0.093   0.000  -0.000  -0.000   0.000   0.000   0.000  -0.000   0.000
  0.000  -0.000  -0.065   0.000   0.000   0.041   0.000   0.000   0.000   0.000   0.000   0.000   0.000  -0.000   0.000   0.000
 -0.000   0.000  -0.000   0.109  -0.000   0.000  -0.068   0.000   0.000   0.000   0.000  -0.000   0.000   0.000   0.000   0.000
  0.000  -0.000   0.000   0.000  -0.065   0.000   0.000   0.041   0.000   0.000   0.000   0.000  -0.000   0.000   0.000   0.000
  0.000   0.000   0.149  -0.000   0.000  -0.093   0.000   0.000   0.000   0.000   0.000   0.000   0.000   0.000   0.000   0.000
  0.000   0.000   0.000   0.000  -0.000  -0.000  -0.000   0.000   0.000   0.000  -0.000   0.000   0.000   0.000   0.000   0.000
 total augmentation occupancy for first ion, spin component:           2
 -0.042  -0.160   0.000  -0.000   0.000   0.000   0.000   0.000   0.000   0.000   0.000   0.000   0.000   0.000   0.000   0.000
 -0.160   0.130  -0.000   0.000   0.000   0.000   0.000  -0.000   0.000   0.000  -0.008   0.000   0.000   0.000   0.000  -0.002
  0.000   0.000  -0.007  -0.000   0.000  -0.044   0.000  -0.000  -0.000   0.000   0.000   0.000   0.000   0.000   0.000   0.000
 -0.000   0.000  -0.000  -0.008  -0.000   0.000  -0.044   0.000   0.000   0.000   0.000   0.000   0.000  -0.000   0.000   0.000
  0.000   0.000   0.000  -0.000  -0.007  -0.000   0.000  -0.044   0.000   0.000   0.000   0.000   0.000   0.000   0.000   0.000
  0.000   0.000  -0.044   0.000  -0.000   0.003  -0.000  -0.000   0.000   0.000   0.000   0.000   0.000   0.000   0.000  -0.000
  0.000   0.000   0.000  -0.044   0.000  -0.000   0.003  -0.000   0.000   0.000   0.000   0.000   0.000   0.000   0.000   0.000
  0.000   0.000  -0.000   0.000  -0.044  -0.000  -0.000   0.003   0.000  -0.000  -0.000   0.000   0.000   0.000   0.000   0.000
  0.000   0.000  -0.000   0.000   0.000   0.000   0.000  -0.000   0.042  -0.000  -0.000  -0.005   0.000   0.011  -0.000  -0.000
  0.000   0.000  -0.000   0.000   0.000   0.000   0.000  -0.000  -0.000   0.041  -0.000  -0.000  -0.005  -0.000   0.011  -0.000
  0.000  -0.008   0.000   0.000  -0.000   0.000  -0.000  -0.000  -0.000  -0.000   0.029  -0.000  -0.000  -0.000  -0.000   0.007
  0.000   0.000   0.000   0.000  -0.000   0.000   0.000   0.000  -0.005  -0.000  -0.000   0.041  -0.000  -0.003  -0.000  -0.000
  0.000   0.000   0.000  -0.000   0.000   0.000   0.000   0.000   0.000  -0.005  -0.000  -0.000   0.042   0.000  -0.003  -0.000
  0.000   0.000  -0.000  -0.000   0.000   0.000  -0.000  -0.000   0.011  -0.000  -0.000  -0.003   0.000   0.003  -0.000  -0.000
  0.000   0.000   0.000   0.000   0.000   0.000   0.000   0.000  -0.000   0.011  -0.000  -0.000  -0.003  -0.000   0.003  -0.000
  0.000  -0.002   0.000   0.000   0.000  -0.000   0.000   0.000  -0.000  -0.000   0.007  -0.000  -0.000  -0.000  -0.000   0.002
  0.000   0.000   0.000   0.000   0.000   0.000  -0.000  -0.000  -0.003  -0.000  -0.000   0.011  -0.000  -0.001  -0.000  -0.000
  0.000   0.000   0.000   0.000   0.000  -0.000  -0.000   0.000   0.000  -0.003  -0.000  -0.000   0.011   0.000  -0.001  -0.000
  0.000   0.000  -0.000  -0.013  -0.000   0.000   0.026   0.000   0.000   0.000   0.000  -0.000  -0.000   0.000   0.000  -0.000
  0.000   0.000   0.000   0.000  -0.015  -0.000  -0.000   0.030   0.000   0.000   0.000   0.000   0.000   0.000   0.000   0.000
 -0.000   0.000   0.006   0.000  -0.000  -0.011  -0.000  -0.000   0.000  -0.000   0.000  -0.000   0.000  -0.000  -0.000   0.000
 -0.000   0.000   0.000  -0.013   0.000  -0.000   0.025  -0.000   0.000  -0.000   0.000  -0.000  -0.000   0.000  -0.000   0.000
  0.000   0.000  -0.000   0.000   0.006  -0.000  -0.000  -0.011   0.000   0.000   0.000   0.000   0.000   0.000  -0.000   0.000
  0.000   0.000  -0.015   0.000   0.000   0.030  -0.000  -0.000   0.000  -0.000  -0.000   0.000   0.000   0.000   0.000   0.000
  0.000  -0.000  -0.000  -0.000   0.000   0.000   0.000  -0.000   0.000   0.000  -0.000   0.000   0.000   0.000   0.000   0.000
  0.000  -0.000   0.000  -0.001   0.000  -0.000  -0.012  -0.000   0.000  -0.000   0.000  -0.000  -0.000  -0.000   0.000  -0.000
  0.000   0.000   0.000   0.000  -0.002   0.000   0.000  -0.013   0.000   0.000   0.000   0.000   0.000   0.000   0.000  -0.000
  0.000   0.000   0.002  -0.000   0.000   0.003  -0.000   0.000  -0.000   0.000   0.000   0.000   0.000  -0.000   0.000   0.000
  0.000  -0.000  -0.000   0.000  -0.000   0.000  -0.013   0.000   0.000  -0.000   0.000   0.000   0.000  -0.000   0.000   0.000
  0.000   0.000   0.000  -0.000   0.002   0.000  -0.000   0.003   0.000   0.000   0.000   0.000   0.000   0.000  -0.000   0.000
  0.000   0.000  -0.002   0.000   0.000  -0.013   0.000   0.000   0.000   0.000   0.000   0.000   0.000   0.000   0.000   0.000
  0.000   0.000   0.000  -0.000  -0.000  -0.000  -0.000   0.000   0.000   0.000  -0.000   0.000  -0.000   0.000   0.000   0.000


------------------------ aborting loop because EDIFF is reached ----------------------------------------


 


 total charge     
 
# of ion       s       p       d       f       tot
--------------------------------------------------
    1        2.083   5.888   0.616   6.717  15.304
    2        2.083   5.888   0.616   6.717  15.304
    3        1.557   3.407   0.000   0.000   4.965
    4        1.557   3.407   0.000   0.000   4.965
--------------------------------------------------
tot          7.281  18.591   1.233  13.434  40.538

 


 magnetization (x)
 
# of ion       s       p       d       f       tot
--------------------------------------------------
    1       -0.006  -0.010   0.102   6.612   6.698
    2        0.006   0.010  -0.102  -6.612  -6.698
    3        0.000  -0.000   0.000   0.000  -0.000
    4        0.000  -0.000   0.000   0.000  -0.000
--------------------------------------------------
tot         -0.000  -0.000   0.000  -0.000  -0.000

 
    CHARGE:  cpu time    0.0498: real time    0.0500
    FORLOC:  cpu time    0.0007: real time    0.0007
    FORNL :  cpu time    0.1753: real time    0.1758
    STRESS:  cpu time    0.2451: real time    0.2457
    FORCOR:  cpu time    0.0155: real time    0.0156
    FORHAR:  cpu time    0.0020: real time    0.0020
    MIXING:  cpu time    0.0016: real time    0.0016
    OFIELD:  cpu time    0.0000: real time    0.0000

  FORCE on cell =-STRESS in cart. coord.  units (eV):
  Direction    XX          YY          ZZ          XY          YZ          ZX
  --------------------------------------------------------------------------------------
  Alpha Z   453.10566   453.10566   453.10566
  Ewald   -1617.75261 -1617.75125 -1617.75302     0.00351     0.00252    -0.00245
  Hartree   459.29387   459.25496   459.12526     0.03411    -0.01549    -0.02867
  E(xc)    -244.13716  -244.13783  -244.15329     0.00055    -0.00035    -0.00060
  Local     422.47329   422.54654   422.78400    -0.06459     0.02081     0.04268
  n-local  -225.24859  -227.71206  -226.48182    -0.71555     0.26334    -0.15258
  augment    96.46380    96.45597    96.40137     0.00624    -0.00039    -0.00016
  Kinetic   650.86220   662.28595   656.89515     3.32800    -1.98406     1.13775
  Fock        0.00000     0.00000     0.00000     0.00000     0.00000     0.00000
  -------------------------------------------------------------------------------------
  Total      -0.44668    -0.44491    -0.07670    -0.00153     0.00284     0.00493
  in kB     -10.91340   -10.87019    -1.87406    -0.03738     0.06947     0.12038
  external pressure =       -7.89 kB  Pullay stress =        0.00 kB


 VOLUME and BASIS-vectors are now :
 -----------------------------------------------------------------------------
  energy-cutoff  :      500.00
  volume of cell :       65.58
      direct lattice vectors                 reciprocal lattice vectors
     1.796261100 -3.111279100  0.000000000     0.278346409 -0.160711128  0.056814756
     1.796384500  3.111279100  0.000000000     0.278346409  0.160700088  0.113630332
    -1.796244100 -1.037045700  5.866668000     0.000000000  0.000000000  0.170454507

  length of vectors
     3.592577289  3.592638990  6.222519592     0.326393484  0.340900416  0.170454507


 FORCES acting on ions
    electron-ion (+dipol)            ewald-force                    non-local-force                 convergence-correction
 -----------------------------------------------------------------------------------------------
   -.291E-05 0.196E-05 -.193E-05   0.283E-04 -.191E-04 0.187E-04   -.688E-21 -.148E-20 0.212E-21   -.291E-08 0.195E-08 -.192E-08
   -.291E-05 0.196E-05 -.193E-05   0.283E-04 -.191E-04 0.187E-04   -.476E-21 -.159E-21 0.212E-21   -.291E-08 0.195E-08 -.192E-08
   -.168E-03 0.113E-03 -.111E-03   -.283E-04 0.191E-04 -.187E-04   -.847E-21 -.582E-21 0.000E+00   -.962E-08 0.642E-08 -.635E-08
   -.168E-03 0.113E-03 -.111E-03   -.283E-04 0.191E-04 -.187E-04   0.847E-21 -.127E-20 0.000E+00   -.962E-08 0.642E-08 -.635E-08
 -----------------------------------------------------------------------------------------------
   -.343E-03 0.231E-03 -.227E-03   0.197E-14 0.640E-14 0.911E-17   -.116E-20 -.349E-20 0.424E-21   -.251E-07 0.168E-07 -.165E-07
 
 
 POSITION                                       TOTAL-FORCE (eV/Angst)
 -----------------------------------------------------------------------------------
      0.00000      0.00000      0.00000         0.000000     -0.000000     -0.000000
      0.00001     -2.07416      2.93333         0.000000     -0.000000     -0.000000
      1.79633     -1.03708      1.46667        -0.000000      0.000000      0.000000
      0.00007      0.00004      4.40000        -0.000000      0.000000      0.000000
 -----------------------------------------------------------------------------------
    total drift:                               -0.000343      0.000231     -0.000227


--------------------------------------------------------------------------------------------------------



  FREE ENERGIE OF THE ION-ELECTRON SYSTEM (eV)
  ---------------------------------------------------
  free  energy   TOTEN  =       -41.60716142 eV

  energy  without entropy=      -41.61619829  energy(sigma->0) =      -41.61017371
 


--------------------------------------------------------------------------------------------------------


    POTLOK:  cpu time    0.0233: real time    0.0233


--------------------------------------------------------------------------------------------------------


     LOOP+:  cpu time   20.6034: real time   20.6892
    4ORBIT:  cpu time    0.0000: real time    0.0000
 


 total charge     
 
# of ion       s       p       d       f       tot
--------------------------------------------------
    1        2.083   5.888   0.616   6.717  15.304
    2        2.083   5.888   0.616   6.717  15.304
    3        1.557   3.407   0.000   0.000   4.965
    4        1.557   3.407   0.000   0.000   4.965
--------------------------------------------------
tot          7.281  18.591   1.233  13.434  40.538

 


 magnetization (x)
 
# of ion       s       p       d       f       tot
--------------------------------------------------
    1       -0.006  -0.010   0.102   6.612   6.698
    2        0.006   0.010  -0.102  -6.612  -6.698
    3        0.000  -0.000   0.000   0.000  -0.000
    4        0.000  -0.000   0.000   0.000  -0.000
--------------------------------------------------
tot         -0.000  -0.000   0.000  -0.000  -0.000

 

 total amount of memory used by VASP MPI-rank0    42312. kBytes
=======================================================================

   base      :      30000. kBytes
   nonl-proj :       5237. kBytes
   fftplans  :        607. kBytes
   grid      :       1468. kBytes
   one-center:         98. kBytes
   wavefun   :       4902. kBytes
 
  
  
 General timing and accounting informations for this job:
 ========================================================
  
                  Total CPU time used (sec):       21.839
                            User time (sec):       21.690
                          System time (sec):        0.150
                         Elapsed time (sec):       22.588
  
                   Maximum memory used (kb):       61044.
                   Average memory used (kb):           0.
  
                          Minor page faults:        18033
                          Major page faults:            0
                 Voluntary context switches:         1413
