       N       E                     dE             d eps       ncg     rms          rms(c)
DAV:   1     0.519771673953E+04    0.51977E+04   -0.18423E+05 10120   0.190E+03
DAV:   2     0.420972866123E+03   -0.47767E+04   -0.45448E+04  8800   0.640E+02
DAV:   3    -0.129711255932E+03   -0.55068E+03   -0.50321E+03  9432   0.228E+02
DAV:   4    -0.160514857324E+03   -0.30804E+02   -0.30079E+02  9744   0.499E+01
DAV:   5    -0.161116300117E+03   -0.60144E+00   -0.59914E+00  9616   0.777E+00
DAV:   6    -0.161132488430E+03   -0.16188E-01   -0.16172E-01  9768   0.124E+00
DAV:   7    -0.161133150125E+03   -0.66170E-03   -0.66145E-03  9964   0.259E-01
DAV:   8    -0.161133181652E+03   -0.31527E-04   -0.31522E-04  9824   0.541E-02
DAV:   9    -0.161133183418E+03   -0.17660E-05   -0.17666E-05  9768   0.130E-02
DAV:  10    -0.161133183487E+03   -0.69726E-07   -0.68622E-07  5960   0.264E-03
   1 F= -.16113318E+03 E0= -.16088986E+03  d E =-.486645E+00  mag=    11.6748
