=========================================
SLURM_JOB_ID = 63603125
SLURM_JOB_NODELIST = lnode29
SLURM_GPUS = 
SLURM_CPUS_ON_NODE = 16
SLURM_JOB_PARTITION = lenovo
SLURM_TASK_PID = 4141886
CUDA_VISIBLE_DEVICES = 
==========================================
 running on   16 total cores
 distrk:  each k-point on   16 cores,    1 groups
 distr:  one band on    4 cores,    4 groups
 using from now: INCAR     
 vasp.5.4.4.18Apr17-6-g9f103f2a35 (build Apr 28 2018 00:24:27) complex          
  
 POSCAR found type information on POSCAR  Ni
 POSCAR found :  1 types and       2 ions
 scaLAPACK will be used

 ----------------------------------------------------------------------------- 
|                                                                             |
|  ADVICE TO THIS USER RUNNING 'VASP/VAMP'   (HEAR YOUR MASTER'S VOICE ...):  |
|                                                                             |
|      You have a (more or less) 'small supercell' and for smaller cells      |
|      it is recommended  to use the reciprocal-space projection scheme!      |
|      The real space optimization is not  efficient for small cells and it   |
|      is also less accurate ...                                              |
|      Therefore set LREAL=.FALSE. in the  INCAR file                         |
|                                                                             |
 ----------------------------------------------------------------------------- 

 LDA part: xc-table for Pade appr. of Perdew
 POSCAR, INCAR and KPOINTS ok, starting setup
 FFT: planning ...
 WAVECAR not read
 entering main loop
       N       E                     dE             d eps       ncg     rms          rms(c)
DAV:   1     0.373119527963E+03    0.37312E+03   -0.23190E+04 23552   0.247E+03
DAV:   2     0.122198150904E+02   -0.36090E+03   -0.35067E+03 21680   0.651E+02
DAV:   3    -0.127454030856E+01   -0.13494E+02   -0.12841E+02 22804   0.156E+02
DAV:   4    -0.146275661946E+01   -0.18822E+00   -0.18797E+00 23544   0.181E+01
DAV:   5    -0.146818247402E+01   -0.54259E-02   -0.54260E-02 23912   0.320E+00    0.377E+01
DAV:   6    -0.670360616988E+01   -0.52354E+01   -0.29884E+01 22196   0.890E+01    0.155E+01
DAV:   7    -0.562336214885E+01    0.10802E+01   -0.87875E+00 22908   0.519E+01    0.290E+00
DAV:   8    -0.568132441991E+01   -0.57962E-01   -0.29405E-01 23192   0.783E+00    0.129E+00
DAV:   9    -0.570657558440E+01   -0.25251E-01   -0.40281E-02 30028   0.318E+00    0.118E+00
DAV:  10    -0.573162000688E+01   -0.25044E-01   -0.14415E-02 30080   0.171E+00    0.109E+00
DAV:  11    -0.571434236872E+01    0.17278E-01   -0.40594E-03 28388   0.109E+00    0.111E+00
DAV:  12    -0.574078410301E+01   -0.26442E-01   -0.91534E-03 35048   0.142E+00    0.103E+00
DAV:  13    -0.575242788988E+01   -0.11644E-01   -0.40796E-03 32760   0.803E-01    0.977E-01
DAV:  14    -0.579534668547E+01   -0.42919E-01   -0.17603E-01 34804   0.596E+00    0.792E-01
DAV:  15    -0.575968489776E+01    0.35662E-01   -0.95198E-02 33480   0.440E+00    0.749E-01
DAV:  16    -0.580422083545E+01   -0.44536E-01   -0.63389E-02 32532   0.482E+00    0.200E-01
DAV:  17    -0.580583062234E+01   -0.16098E-02   -0.45984E-03 22620   0.987E-01    0.113E-01
DAV:  18    -0.580631579007E+01   -0.48517E-03   -0.13392E-03 33744   0.617E-01    0.586E-02
DAV:  19    -0.580637810683E+01   -0.62317E-04   -0.21011E-04 29636   0.274E-01    0.172E-02
DAV:  20    -0.580635809230E+01    0.20015E-04   -0.26776E-05 31380   0.854E-02    0.207E-02
DAV:  21    -0.580632217929E+01    0.35913E-04   -0.26924E-05 34224   0.814E-02    0.101E-02
DAV:  22    -0.580633323830E+01   -0.11059E-04   -0.43067E-06 30092   0.424E-02    0.146E-03
DAV:  23    -0.580633333834E+01   -0.10004E-06   -0.25553E-07 19384   0.674E-03    0.138E-03
DAV:  24    -0.580632973625E+01    0.36021E-05   -0.16079E-07 11504   0.752E-03    0.118E-03
DAV:  25    -0.580633080572E+01   -0.10695E-05   -0.61335E-08 11656   0.379E-03    0.135E-03
DAV:  26    -0.580633320159E+01   -0.23959E-05   -0.51589E-08 10876   0.467E-03    0.635E-04
DAV:  27    -0.580633392779E+01   -0.72619E-06   -0.15236E-08 10852   0.139E-03    0.425E-04
DAV:  28    -0.580633430653E+01   -0.37874E-06   -0.39682E-09 10836   0.676E-04    0.322E-04
DAV:  29    -0.580633522699E+01   -0.92046E-06   -0.78736E-09 10836   0.155E-03    0.819E-05
DAV:  30    -0.580633534504E+01   -0.11806E-06   -0.31551E-09 10828   0.604E-04    0.405E-05
DAV:  31    -0.580633535504E+01   -0.99944E-08   -0.21099E-10 10824   0.200E-04
   1 F= -.58063354E+01 E0= -.58063354E+01  d E =0.000000E+00  mag=     0.0000
