=========================================
SLURM_JOB_ID = 63455431
SLURM_JOB_NODELIST = lnode56
SLURM_GPUS = 
SLURM_CPUS_ON_NODE = 8
SLURM_JOB_PARTITION = lenovo
SLURM_TASK_PID = 2494271
CUDA_VISIBLE_DEVICES = 
==========================================
 running on    8 total cores
 distrk:  each k-point on    8 cores,    1 groups
 distr:  one band on    4 cores,    2 groups
 using from now: INCAR     
 vasp.5.4.4.18Apr17-6-g9f103f2a35 (build Apr 28 2018 00:24:27) complex          
  
 POSCAR found type information on POSCAR  Co
 POSCAR found :  1 types and       2 ions
 scaLAPACK will be used

 ----------------------------------------------------------------------------- 
|                                                                             |
|  ADVICE TO THIS USER RUNNING 'VASP/VAMP'   (HEAR YOUR MASTER'S VOICE ...):  |
|                                                                             |
|      You have a (more or less) 'small supercell' and for smaller cells      |
|      it is recommended  to use the reciprocal-space projection scheme!      |
|      The real space optimization is not  efficient for small cells and it   |
|      is also less accurate ...                                              |
|      Therefore set LREAL=.FALSE. in the  INCAR file                         |
|                                                                             |
 ----------------------------------------------------------------------------- 

 LDA part: xc-table for Pade appr. of Perdew
 POSCAR, INCAR and KPOINTS ok, starting setup
 FFT: planning ...
 WAVECAR not read
 entering main loop
       N       E                     dE             d eps       ncg     rms          rms(c)
DAV:   1     0.780403041107E+02    0.78040E+02   -0.74247E+03  4264   0.151E+03
DAV:   2    -0.140874339980E+02   -0.92128E+02   -0.86039E+02  4256   0.264E+02
DAV:   3    -0.161947130871E+02   -0.21073E+01   -0.20360E+01  4880   0.573E+01
DAV:   4    -0.162247176422E+02   -0.30005E-01   -0.30031E-01  6080   0.532E+00
DAV:   5    -0.162249952865E+02   -0.27764E-03   -0.27850E-03  5076   0.471E-01    0.144E+01
DAV:   6    -0.142618157475E+02    0.19632E+01   -0.16507E+01  4472   0.835E+01    0.797E+00
DAV:   7    -0.139286135750E+02    0.33320E+00   -0.22979E+00  4610   0.298E+01    0.482E+00
DAV:   8    -0.140782262996E+02   -0.14961E+00   -0.15167E-01  5744   0.635E+00    0.217E+00
DAV:   9    -0.140352253728E+02    0.43001E-01   -0.34342E-02  6118   0.278E+00    0.237E+00
DAV:  10    -0.140249736089E+02    0.10252E-01   -0.96026E-04  6106   0.446E-01    0.266E+00
DAV:  11    -0.140697411490E+02   -0.44768E-01   -0.32513E-02  5236   0.302E+00    0.424E-01
DAV:  12    -0.140701983727E+02   -0.45722E-03   -0.98515E-04  6006   0.379E-01    0.158E-01
DAV:  13    -0.140699993301E+02    0.19904E-03   -0.16832E-04  5666   0.212E-01    0.874E-03
DAV:  14    -0.140699841665E+02    0.15164E-04   -0.63794E-06  4748   0.284E-02    0.786E-03
DAV:  15    -0.140699896636E+02   -0.54971E-05   -0.32239E-07  4844   0.698E-03    0.449E-03
DAV:  16    -0.140699980885E+02   -0.84249E-05   -0.18063E-07  3094   0.640E-03    0.517E-04
DAV:  17    -0.140699973337E+02    0.75476E-06   -0.11236E-08  2314   0.143E-03    0.345E-04
DAV:  18    -0.140699982183E+02   -0.88460E-06   -0.28665E-09  2236   0.779E-04    0.781E-05
DAV:  19    -0.140699981470E+02    0.71281E-07   -0.83092E-10  2188   0.305E-04
   1 F= -.14069998E+02 E0= -.14069998E+02  d E =0.000000E+00  mag=     3.1562
