=========================================
SLURM_JOB_ID = 29753349
SLURM_JOB_NODELIST = lnode41
SLURM_GPUS = 
SLURM_CPUS_ON_NODE = 8
SLURM_JOB_PARTITION = lenovo
SLURM_TASK_PID = 812746
CUDA_VISIBLE_DEVICES = 
==========================================
 running on    8 total cores
 distrk:  each k-point on    8 cores,    1 groups
 distr:  one band on    4 cores,    2 groups
 using from now: INCAR     
 vasp.5.4.4.18Apr17-6-g9f103f2a35 (build Apr 28 2018 00:24:27) complex          
  
 POSCAR found type information on POSCAR  Mn Bi
 POSCAR found :  2 types and      12 ions
 scaLAPACK will be used
 LDA part: xc-table for Pade appr. of Perdew
 POSCAR, INCAR and KPOINTS ok, starting setup
 FFT: planning ...
 WAVECAR not read
 entering main loop
       N       E                     dE             d eps       ncg     rms          rms(c)
DAV:   1     0.547650508788E+03    0.54765E+03   -0.23699E+04297088   0.136E+03
DAV:   2     0.188190935543E+02   -0.52883E+03   -0.51597E+03297448   0.387E+02
DAV:   3    -0.663324491673E+02   -0.85152E+02   -0.81055E+02488996   0.146E+02
DAV:   4    -0.751867998654E+02   -0.88544E+01   -0.86631E+01516976   0.592E+01
DAV:   5    -0.757333702977E+02   -0.54657E+00   -0.54006E+00495728   0.152E+01    0.238E+01
DAV:   6    -0.854463052206E+02   -0.97129E+01   -0.25161E+02527576   0.147E+02    0.583E+01
DAV:   7    -0.691549064803E+02    0.16291E+02   -0.12252E+02520740   0.824E+01    0.141E+01
DAV:   8    -0.696552094682E+02   -0.50030E+00   -0.23769E+01547720   0.580E+01    0.123E+01
DAV:   9    -0.695005518185E+02    0.15466E+00   -0.10456E+01556112   0.354E+01    0.531E+00
DAV:  10    -0.695233357513E+02   -0.22784E-01   -0.22432E+00526048   0.181E+01    0.426E+00
DAV:  11    -0.694489064847E+02    0.74429E-01   -0.15059E+00522936   0.133E+01    0.261E+00
DAV:  12    -0.694674442385E+02   -0.18538E-01   -0.16086E+00558752   0.128E+01    0.263E+00
DAV:  13    -0.694374695008E+02    0.29975E-01   -0.54222E-01525468   0.772E+00    0.182E+00
DAV:  14    -0.694535867850E+02   -0.16117E-01   -0.91642E-02520404   0.366E+00    0.141E+00
DAV:  15    -0.694482406313E+02    0.53462E-02   -0.34464E-02494604   0.263E+00    0.945E-01
DAV:  16    -0.694456837187E+02    0.25569E-02   -0.26311E-02514220   0.215E+00    0.531E-01
DAV:  17    -0.694464503365E+02   -0.76662E-03   -0.17598E-02513800   0.163E+00    0.207E-01
DAV:  18    -0.694472080416E+02   -0.75771E-03   -0.47392E-03513392   0.642E-01    0.165E-01
DAV:  19    -0.694481512292E+02   -0.94319E-03   -0.14912E-03508532   0.374E-01    0.171E-01
DAV:  20    -0.694484820266E+02   -0.33080E-03   -0.82747E-04513144   0.296E-01    0.148E-01
DAV:  21    -0.694487319826E+02   -0.24996E-03   -0.52112E-04521544   0.258E-01    0.127E-01
DAV:  22    -0.694489500480E+02   -0.21807E-03   -0.35971E-04520800   0.231E-01    0.981E-02
DAV:  23    -0.694490578225E+02   -0.10777E-03   -0.27816E-04527296   0.184E-01    0.613E-02
DAV:  24    -0.694491163353E+02   -0.58513E-04   -0.16953E-04519120   0.136E-01    0.213E-02
DAV:  25    -0.694491280934E+02   -0.11758E-04   -0.61693E-05529640   0.815E-02    0.133E-02
DAV:  26    -0.694491293926E+02   -0.12993E-05   -0.13554E-05431744   0.439E-02    0.787E-03
DAV:  27    -0.694491299182E+02   -0.52555E-06   -0.58402E-06281872   0.248E-02
   1 F= -.69449130E+02 E0= -.69448400E+02  d E =-.219017E-02  mag=    -0.0000
