=========================================
SLURM_JOB_ID = 31883056
SLURM_JOB_NODELIST = lnode34
SLURM_GPUS = 
SLURM_CPUS_ON_NODE = 8
SLURM_JOB_PARTITION = lenovo
SLURM_TASK_PID = 1455850
CUDA_VISIBLE_DEVICES = 
==========================================
 running on    8 total cores
 distrk:  each k-point on    8 cores,    1 groups
 distr:  one band on    8 cores,    1 groups
 using from now: INCAR     
 vasp.5.4.4.18Apr17-6-g9f103f2a35 (build Apr 28 2018 00:24:27) complex          
  
 POSCAR found type information on POSCAR  Mn Bi
 POSCAR found :  2 types and       4 ions
 scaLAPACK will be used

 ----------------------------------------------------------------------------- 
|                                                                             |
|           W    W    AA    RRRRR   N    N  II  N    N   GGGG   !!!           |
|           W    W   A  A   R    R  NN   N  II  NN   N  G    G  !!!           |
|           W    W  A    A  R    R  N N  N  II  N N  N  G       !!!           |
|           W WW W  AAAAAA  RRRRR   N  N N  II  N  N N  G  GGG   !            |
|           WW  WW  A    A  R   R   N   NN  II  N   NN  G    G                |
|           W    W  A    A  R    R  N    N  II  N    N   GGGG   !!!           |
|                                                                             |
|      For optimal performance we recommend to set                            |
|        NCORE= 4 - approx SQRT( number of cores)                             |
|      NCORE specifies how many cores store one orbital (NPAR=cpu/NCORE).     |
|      This setting can  greatly improve the performance of VASP for DFT.     |
|      The default,   NCORE=1            might be grossly inefficient         |
|      on modern multi-core architectures or massively parallel machines.     |
|      Do your own testing !!!!                                               |
|      Unfortunately you need to use the default for GW and RPA calculations. |
|      (for HF NCORE is supported but not extensively tested yet)             |
|                                                                             |
 ----------------------------------------------------------------------------- 

 LDA part: xc-table for Pade appr. of Perdew
 generate k-points for:    3    2    3
 POSCAR, INCAR and KPOINTS ok, starting setup
 FFT: planning ...
 WAVECAR not read
 entering main loop
       N       E                     dE             d eps       ncg     rms          rms(c)
DAV:   1     0.145793411381E+03    0.14579E+03   -0.83092E+03   640   0.125E+03
DAV:   2    -0.688003896037E+01   -0.15267E+03   -0.14889E+03   640   0.312E+02
DAV:   3    -0.242563576538E+02   -0.17376E+02   -0.17006E+02  1088   0.998E+01
DAV:   4    -0.249206446719E+02   -0.66429E+00   -0.65980E+00   904   0.209E+01
DAV:   5    -0.249480772922E+02   -0.27433E-01   -0.27396E-01  1064   0.444E+00    0.134E+01
DAV:   6    -0.284180004704E+02   -0.34699E+01   -0.78715E+01  1168   0.137E+02    0.312E+01
DAV:   7    -0.226755963242E+02    0.57424E+01   -0.48593E+01  1120   0.818E+01    0.543E+00
DAV:   8    -0.229039736258E+02   -0.22838E+00   -0.16368E+00  1048   0.108E+01    0.271E+00
DAV:   9    -0.228939826416E+02    0.99910E-02   -0.40433E-01  1128   0.102E+01    0.152E+00
DAV:  10    -0.229153222759E+02   -0.21340E-01   -0.82382E-02  1032   0.318E+00    0.100E+00
DAV:  11    -0.229229451717E+02   -0.76229E-02   -0.29859E-02  1064   0.235E+00    0.689E-01
DAV:  12    -0.229253187173E+02   -0.23735E-02   -0.15368E-02   912   0.142E+00    0.122E-01
DAV:  13    -0.229255097362E+02   -0.19102E-03   -0.12087E-03  1040   0.361E-01    0.626E-02
DAV:  14    -0.229255128038E+02   -0.30677E-05   -0.23971E-04  1056   0.220E-01    0.463E-02
DAV:  15    -0.229255271992E+02   -0.14395E-04   -0.37671E-05   784   0.707E-02    0.191E-02
DAV:  16    -0.229255310927E+02   -0.38935E-05   -0.13104E-05   976   0.458E-02    0.690E-03
DAV:  17    -0.229255319767E+02   -0.88401E-06   -0.12503E-06   552   0.166E-02
   1 F= -.22925532E+02 E0= -.22925974E+02  d E =0.132610E-02  mag=    -0.0001
