=========================================
SLURM_JOB_ID = 63601023
SLURM_JOB_NODELIST = lnode27
SLURM_GPUS = 
SLURM_CPUS_ON_NODE = 8
SLURM_JOB_PARTITION = lenovo
SLURM_TASK_PID = 1617965
CUDA_VISIBLE_DEVICES = 
==========================================
 running on    8 total cores
 distrk:  each k-point on    8 cores,    1 groups
 distr:  one band on    4 cores,    2 groups
 using from now: INCAR     
 vasp.5.4.4.18Apr17-6-g9f103f2a35 (build Apr 28 2018 00:24:27) complex          
  
 POSCAR found type information on POSCAR  Ni O 
 POSCAR found :  2 types and      32 ions
 scaLAPACK will be used

 ----------------------------------------------------------------------------- 
|                                                                             |
|  ADVICE TO THIS USER RUNNING 'VASP/VAMP'   (HEAR YOUR MASTER'S VOICE ...):  |
|                                                                             |
|      You have a (more or less) 'large supercell' and for larger cells       |
|      it might be more efficient to use real space projection opertators     |
|      So try LREAL= Auto  in the INCAR   file.                               |
|      Mind:          For very  accurate calculation you might also keep the  |
|      reciprocal projection scheme          (i.e. LREAL=.FALSE.)             |
|                                                                             |
 ----------------------------------------------------------------------------- 

 LDA part: xc-table for Pade appr. of Perdew
 POSCAR, INCAR and KPOINTS ok, starting setup
 FFT: planning ...
 WAVECAR not read
 entering main loop
       N       E                     dE             d eps       ncg     rms          rms(c)
DAV:   1     0.532484247490E+04    0.53248E+04   -0.18079E+05 10080   0.187E+03
DAV:   2     0.429489427222E+03   -0.48954E+04   -0.46269E+04  8824   0.640E+02
DAV:   3    -0.157124619400E+03   -0.58661E+03   -0.54364E+03  9456   0.235E+02
DAV:   4    -0.189852122427E+03   -0.32728E+02   -0.31758E+02  9872   0.511E+01
DAV:   5    -0.190602160625E+03   -0.75004E+00   -0.74422E+00  9600   0.861E+00    0.612E+01
DAV:   6    -0.170326630447E+03    0.20276E+02   -0.27304E+02 11324   0.795E+01    0.712E+01
DAV:   7    -0.154485602528E+03    0.15841E+02   -0.58512E+01 10600   0.510E+01    0.298E+01
DAV:   8    -0.154748830829E+03   -0.26323E+00   -0.10381E+01  9624   0.733E+00    0.149E+01
DAV:   9    -0.154688591973E+03    0.60239E-01   -0.23095E-01 10264   0.222E+00    0.257E+00
DAV:  10    -0.154689000141E+03   -0.40817E-03   -0.11202E-01  9688   0.142E+00    0.125E+00
DAV:  11    -0.154690643593E+03   -0.16435E-02   -0.91991E-03 11248   0.399E-01    0.837E-01
DAV:  12    -0.154692896159E+03   -0.22526E-02   -0.89424E-03 11416   0.431E-01    0.344E-01
DAV:  13    -0.154695868047E+03   -0.29719E-02   -0.16589E-03 10016   0.123E-01    0.188E-01
DAV:  14    -0.154696516475E+03   -0.64843E-03   -0.54328E-04 10960   0.103E-01    0.730E-02
DAV:  15    -0.154696614632E+03   -0.98158E-04   -0.12626E-04 10448   0.387E-02    0.346E-02
DAV:  16    -0.154696636699E+03   -0.22066E-04   -0.22729E-05 10200   0.216E-02    0.119E-02
DAV:  17    -0.154696642683E+03   -0.59848E-05   -0.58015E-06  7360   0.920E-03    0.367E-03
DAV:  18    -0.154696642822E+03   -0.13877E-06   -0.41612E-07  5120   0.333E-03
   1 F= -.15469664E+03 E0= -.15445969E+03  d E =-.473908E+00  mag=    12.4008
 writing wavefunctions
