       N       E                     dE             d eps       ncg     rms          rms(c)
DAV:   1     0.116933257385E+04    0.11693E+04   -0.31425E+04 26776   0.314E+03
DAV:   2     0.305667710890E+03   -0.86366E+03   -0.78792E+03 32368   0.634E+02
DAV:   3    -0.115328026077E+02   -0.31720E+03   -0.31019E+03 36000   0.334E+02
DAV:   4    -0.594751651949E+02   -0.47942E+02   -0.47010E+02 43088   0.126E+02
DAV:   5    -0.638752884010E+02   -0.44001E+01   -0.42217E+01 46840   0.402E+01    0.276E+01
DAV:   6    -0.752959545923E+02   -0.11421E+02   -0.94722E+01 38248   0.105E+02    0.329E+01
DAV:   7    -0.767169383914E+02   -0.14210E+01   -0.30844E+01 35648   0.614E+01    0.151E+01
DAV:   8    -0.745876933720E+02    0.21292E+01   -0.96946E+00 33840   0.473E+01    0.667E+00
DAV:   9    -0.751275154589E+02   -0.53982E+00   -0.99763E+00 40936   0.209E+01    0.715E+00
DAV:  10    -0.749212478383E+02    0.20627E+00   -0.22336E+00 36552   0.148E+01    0.397E+00
DAV:  11    -0.749713212325E+02   -0.50073E-01   -0.64634E-01 45872   0.596E+00    0.284E+00
DAV:  12    -0.749516770651E+02    0.19644E-01   -0.13217E-01 41024   0.260E+00    0.162E+00
DAV:  13    -0.749283723912E+02    0.23305E-01   -0.54492E-02 40888   0.192E+00    0.834E-01
DAV:  14    -0.749232388805E+02    0.51335E-02   -0.19327E-02 45280   0.884E-01    0.340E-01
DAV:  15    -0.749229181968E+02    0.32068E-03   -0.66724E-03 41816   0.619E-01    0.106E-01
DAV:  16    -0.749232560603E+02   -0.33786E-03   -0.14547E-03 46960   0.288E-01    0.149E-01
DAV:  17    -0.749230993177E+02    0.15674E-03   -0.48313E-04 41488   0.193E-01    0.806E-02
DAV:  18    -0.749230694811E+02    0.29837E-04   -0.13823E-04 46304   0.966E-02    0.281E-02
DAV:  19    -0.749230689269E+02    0.55424E-06   -0.17963E-05 42040   0.321E-02    0.218E-02
DAV:  20    -0.749230596133E+02    0.93135E-05   -0.66988E-06 26920   0.262E-02    0.552E-03
DAV:  21    -0.749230589554E+02    0.65800E-06   -0.25928E-06 22448   0.144E-02
   1 F= -.74923059E+02 E0= -.74923059E+02  d E =0.000000E+00  mag=    -0.0000
