=========================================
SLURM_JOB_ID = 63457538
SLURM_JOB_NODELIST = lnode31
SLURM_GPUS = 
SLURM_CPUS_ON_NODE = 8
SLURM_JOB_PARTITION = lenovo
SLURM_TASK_PID = 2326679
CUDA_VISIBLE_DEVICES = 
==========================================
 running on    8 total cores
 distrk:  each k-point on    8 cores,    1 groups
 distr:  one band on    4 cores,    2 groups
 using from now: INCAR     
 vasp.5.4.4.18Apr17-6-g9f103f2a35 (build Apr 28 2018 00:24:27) complex          
  
 POSCAR found type information on POSCAR  Eu
 POSCAR found :  1 types and       4 ions
 scaLAPACK will be used

 ----------------------------------------------------------------------------- 
|                                                                             |
|  ADVICE TO THIS USER RUNNING 'VASP/VAMP'   (HEAR YOUR MASTER'S VOICE ...):  |
|                                                                             |
|      You have a (more or less) 'small supercell' and for smaller cells      |
|      it is recommended  to use the reciprocal-space projection scheme!      |
|      The real space optimization is not  efficient for small cells and it   |
|      is also less accurate ...                                              |
|      Therefore set LREAL=.FALSE. in the  INCAR file                         |
|                                                                             |
 ----------------------------------------------------------------------------- 

 LDA part: xc-table for Pade appr. of Perdew
 POSCAR, INCAR and KPOINTS ok, starting setup
 FFT: planning ...
 WAVECAR not read
 entering main loop
       N       E                     dE             d eps       ncg     rms          rms(c)
DAV:   1     0.771501975015E+03    0.77150E+03   -0.20991E+04 10040   0.214E+03
DAV:   2     0.158606736295E+03   -0.61290E+03   -0.48169E+03 10536   0.331E+02
DAV:   3    -0.743127170516E+01   -0.16604E+03   -0.15962E+03  9072   0.186E+02
DAV:   4    -0.276405900216E+02   -0.20209E+02   -0.19104E+02 12932   0.586E+01
DAV:   5    -0.295677673469E+02   -0.19272E+01   -0.18724E+01 15568   0.191E+01    0.224E+01
DAV:   6    -0.442204187060E+02   -0.14653E+02   -0.57140E+01 10624   0.701E+01    0.302E+01
DAV:   7    -0.426178075215E+02    0.16026E+01   -0.87865E+00 11016   0.183E+01    0.107E+01
DAV:   8    -0.410253171164E+02    0.15925E+01   -0.33243E+00 11752   0.139E+01    0.343E+00
DAV:   9    -0.410823679650E+02   -0.57051E-01   -0.17037E+00 11992   0.105E+01    0.392E+00
DAV:  10    -0.410551692198E+02    0.27199E-01   -0.31404E-01 13136   0.381E+00    0.128E+00
DAV:  11    -0.411199759982E+02   -0.64807E-01   -0.53316E-02 15012   0.117E+00    0.642E-01
DAV:  12    -0.411564139400E+02   -0.36438E-01   -0.39651E-02 11704   0.971E-01    0.576E-01
DAV:  13    -0.411571690994E+02   -0.75516E-03   -0.14201E-02 12480   0.716E-01    0.185E-01
DAV:  14    -0.411556193446E+02    0.15498E-02   -0.12536E-02 12692   0.350E-01    0.145E-01
DAV:  15    -0.411551324549E+02    0.48689E-03   -0.13091E-03 14084   0.157E-01    0.118E-01
DAV:  16    -0.411547181607E+02    0.41429E-03   -0.82599E-04 13620   0.198E-01    0.412E-02
DAV:  17    -0.411551406652E+02   -0.42250E-03   -0.19617E-04 13592   0.664E-02    0.910E-03
DAV:  18    -0.411552599226E+02   -0.11926E-03   -0.33315E-05 15080   0.273E-02    0.353E-03
DAV:  19    -0.411552389115E+02    0.21011E-04   -0.56652E-06 13444   0.822E-03    0.173E-03
DAV:  20    -0.411552501032E+02   -0.11192E-04   -0.10885E-06 10784   0.332E-03    0.101E-03
DAV:  21    -0.411552447438E+02    0.53594E-05   -0.11206E-07  7144   0.195E-03    0.894E-04
DAV:  22    -0.411552410864E+02    0.36574E-05   -0.41142E-08  4940   0.180E-03    0.322E-04
DAV:  23    -0.411552403304E+02    0.75601E-06   -0.17504E-08  4820   0.701E-04    0.282E-04
DAV:  24    -0.411552403193E+02    0.11152E-07   -0.99969E-09  4744   0.902E-04
   1 F= -.41155240E+02 E0= -.41155240E+02  d E =0.000000E+00  mag=    29.7445
