=========================================
SLURM_JOB_ID = 31881294
SLURM_JOB_NODELIST = lnode55
SLURM_GPUS = 
SLURM_CPUS_ON_NODE = 8
SLURM_JOB_PARTITION = lenovo
SLURM_TASK_PID = 1630443
CUDA_VISIBLE_DEVICES = 
==========================================
 running on    8 total cores
 distrk:  each k-point on    8 cores,    1 groups
 distr:  one band on    4 cores,    2 groups
 using from now: INCAR     
 vasp.5.4.4.18Apr17-6-g9f103f2a35 (build Apr 28 2018 00:24:27) complex          
  
 POSCAR found type information on POSCAR  Eu O 
 POSCAR found :  2 types and       4 ions
 scaLAPACK will be used
 LDA part: xc-table for Pade appr. of Perdew
 generate k-points for:    4    4    3
 POSCAR, INCAR and KPOINTS ok, starting setup
 FFT: planning ...
 WAVECAR not read
 entering main loop
       N       E                     dE             d eps       ncg     rms          rms(c)
DAV:   1     0.443259013470E+03    0.44326E+03   -0.18401E+04  2784   0.355E+03
DAV:   2     0.505328848479E+02   -0.39273E+03   -0.36864E+03  3248   0.420E+02
DAV:   3    -0.366562177533E+02   -0.87189E+02   -0.85288E+02  3888   0.270E+02
DAV:   4    -0.440981946289E+02   -0.74420E+01   -0.69358E+01  4060   0.658E+01
DAV:   5    -0.450071232661E+02   -0.90893E+00   -0.84643E+00  4272   0.195E+01    0.276E+01
DAV:   6    -0.948850110732E+02   -0.49878E+02   -0.76984E+02  3824   0.236E+02    0.112E+02
DAV:   7    -0.278786517177E+02    0.67006E+02   -0.50189E+02  3664   0.124E+02    0.276E+01
DAV:   8    -0.412375676400E+02   -0.13359E+02   -0.10339E+02  3748   0.619E+01    0.201E+01
DAV:   9    -0.414755226672E+02   -0.23796E+00   -0.86287E+00  3764   0.213E+01    0.131E+01
DAV:  10    -0.416203712691E+02   -0.14485E+00   -0.25364E+00  4112   0.120E+01    0.822E+00
DAV:  11    -0.416854703954E+02   -0.65099E-01   -0.47102E-01  4484   0.515E+00    0.565E+00
DAV:  12    -0.416409668053E+02    0.44504E-01   -0.12381E+00  3760   0.956E+00    0.158E+00
DAV:  13    -0.416417292592E+02   -0.76245E-03   -0.19062E-01  4468   0.411E+00    0.130E+00
DAV:  14    -0.416389008995E+02    0.28284E-02   -0.19425E-02  3688   0.115E+00    0.118E+00
DAV:  15    -0.416353025655E+02    0.35983E-02   -0.27611E-02  4120   0.121E+00    0.788E-01
DAV:  16    -0.416324685019E+02    0.28341E-02   -0.13373E-02  4100   0.123E+00    0.451E-01
DAV:  17    -0.416314372997E+02    0.10312E-02   -0.31873E-03  3888   0.492E-01    0.305E-01
DAV:  18    -0.416313150840E+02    0.12222E-03   -0.88726E-04  4204   0.320E-01    0.180E-01
DAV:  19    -0.416312554376E+02    0.59646E-04   -0.32277E-04  4064   0.172E-01    0.944E-02
DAV:  20    -0.416312050529E+02    0.50385E-04   -0.53420E-04  3976   0.257E-01    0.453E-02
DAV:  21    -0.416312054237E+02   -0.37082E-06   -0.63697E-05  3840   0.561E-02    0.421E-02
DAV:  22    -0.416312062439E+02   -0.82024E-06   -0.26186E-05  3792   0.358E-02    0.243E-02
DAV:  23    -0.416312080047E+02   -0.17608E-05   -0.49075E-06  2564   0.222E-02    0.844E-03
DAV:  24    -0.416312079931E+02    0.11568E-07   -0.53993E-07  1620   0.114E-02
   1 F= -.41631208E+02 E0= -.41638456E+02  d E =0.217427E-01  mag=     0.0000
