=========================================
SLURM_JOB_ID = 30545225
SLURM_JOB_NODELIST = lnode59
SLURM_GPUS = 
SLURM_CPUS_ON_NODE = 8
SLURM_JOB_PARTITION = lenovo
SLURM_TASK_PID = 1548341
CUDA_VISIBLE_DEVICES = 
==========================================
 running on    8 total cores
 distrk:  each k-point on    8 cores,    1 groups
 distr:  one band on    4 cores,    2 groups
 using from now: INCAR     
 vasp.5.4.4.18Apr17-6-g9f103f2a35 (build Apr 28 2018 00:24:27) complex          
  
 POSCAR found type information on POSCAR  Eu O 
 POSCAR found :  2 types and       4 ions
 scaLAPACK will be used
 LDA part: xc-table for Pade appr. of Perdew
 POSCAR, INCAR and KPOINTS ok, starting setup
 FFT: planning ...
 WAVECAR not read
 entering main loop
       N       E                     dE             d eps       ncg     rms          rms(c)
DAV:   1     0.436663840465E+03    0.43666E+03   -0.18274E+04  2160   0.352E+03
DAV:   2     0.537239922954E+02   -0.38294E+03   -0.35899E+03  2424   0.418E+02
DAV:   3    -0.364597108561E+02   -0.90184E+02   -0.88425E+02  3060   0.263E+02
DAV:   4    -0.440842632337E+02   -0.76246E+01   -0.71814E+01  3068   0.686E+01
DAV:   5    -0.450304284200E+02   -0.94617E+00   -0.87398E+00  3340   0.195E+01    0.277E+01
DAV:   6    -0.969200878600E+02   -0.51890E+02   -0.80195E+02  3012   0.246E+02    0.113E+02
DAV:   7    -0.277861730675E+02    0.69134E+02   -0.47277E+02  2744   0.122E+02    0.259E+01
DAV:   8    -0.410544620250E+02   -0.13268E+02   -0.98837E+01  2792   0.617E+01    0.223E+01
DAV:   9    -0.414463572366E+02   -0.39190E+00   -0.98452E+00  2916   0.210E+01    0.148E+01
DAV:  10    -0.415045270375E+02   -0.58170E-01   -0.19139E+00  3192   0.104E+01    0.108E+01
DAV:  11    -0.416836927534E+02   -0.17917E+00   -0.68017E-01  3184   0.622E+00    0.694E+00
DAV:  12    -0.418256984204E+02   -0.14201E+00   -0.13355E+00  3496   0.798E+00    0.472E+00
DAV:  13    -0.416325486130E+02    0.19315E+00   -0.69890E-01  2948   0.702E+00    0.251E+00
DAV:  14    -0.416207538927E+02    0.11795E-01   -0.13403E-01  3280   0.259E+00    0.162E+00
DAV:  15    -0.416251360021E+02   -0.43821E-02   -0.51769E-02  2928   0.155E+00    0.740E-01
DAV:  16    -0.416213603995E+02    0.37756E-02   -0.35432E-02  2720   0.160E+00    0.362E-01
DAV:  17    -0.416207014336E+02    0.65897E-03   -0.33907E-03  3496   0.660E-01    0.207E-01
DAV:  18    -0.416205798950E+02    0.12154E-03   -0.43018E-04  3416   0.206E-01    0.187E-01
DAV:  19    -0.416204985744E+02    0.81321E-04   -0.15239E-04  3352   0.123E-01    0.173E-01
DAV:  20    -0.416205546162E+02   -0.56042E-04   -0.58188E-04  3232   0.169E-01    0.909E-02
DAV:  21    -0.416205476076E+02    0.70085E-05   -0.13811E-04  3176   0.103E-01    0.668E-02
DAV:  22    -0.416205276733E+02    0.19934E-04   -0.24946E-05  2760   0.374E-02    0.453E-02
DAV:  23    -0.416205193641E+02    0.83091E-05   -0.20299E-05  2904   0.327E-02    0.334E-02
DAV:  24    -0.416205171709E+02    0.21932E-05   -0.10697E-05  2268   0.219E-02    0.119E-02
DAV:  25    -0.416205172386E+02   -0.67722E-07   -0.21069E-06  1740   0.143E-02
   1 F= -.41620517E+02 E0= -.41628086E+02  d E =0.227060E-01  mag=     0.0000
