 vasp.5.4.4.18Apr17-6-g9f103f2a35 (build Apr 28 2018 00:24:27) complex          
  
 executed on             LinuxIFC date 2021.03.25  01:51:13
 running on    8 total cores
 distrk:  each k-point on    8 cores,    1 groups
 distr:  one band on NCORES_PER_BAND=   4 cores,    2 groups


--------------------------------------------------------------------------------------------------------


 INCAR:
 POTCAR:    PAW_PBE Eu 23Dec2003                  
 POTCAR:    PAW_PBE O 08Apr2002                   
 POTCAR:    PAW_PBE Eu 23Dec2003                  
   SHA256 =  ed303d27e7c5191953f9b15539336e6f36d9037c1d2e92e80c13d733697cb93d Eu
   COPYR  = (c) Copyright 23Dec2003 Georg Kresse                                
   COPYR  = This file is part of the software VASP. Any use, copying, and all ot
   COPYR  = If you do not have a valid VASP license, you may not use, copy or di
   VRHFIN =Eu : [core=Kr4d]                                                     
   LEXCH  = PE                                                                  
   EATOM  =  2619.8085 eV,  192.5505 Ry                                         
                                                                                
   TITEL  = PAW_PBE Eu 23Dec2003                                                
   LULTRA =        F    use ultrasoft PP ?                                      
   IUNSCR =        1    unscreen: 0-lin 1-nonlin 2-no                           
   RPACOR =    2.300    partial core radius                                     
   POMASS =  151.965; ZVAL   =   17.000    mass and valenz                      
   RCORE  =    2.800    outmost cutoff radius                                   
   RWIGS  =    2.800; RWIGS  =    1.482    wigner-seitz radius (au A)           
   ENMAX  =  249.668; ENMIN  =  187.251 eV                                      
   RCLOC  =    2.308    cutoff for local pot                                    
   LCOR   =        T    correct aug charges                                     
   LPAW   =        T    paw PP                                                  
   EAUG   =  549.628                                                            
   DEXC   =    0.000                                                            
   RMAX   =    2.870    core radius for proj-oper                               
   RAUG   =    1.300    factor for augmentation sphere                          
   RDEP   =    2.887    radius for radial grids                                 
   RDEPT  =    2.221    core radius for aug-charge                              
                                                                                
   Atomic configuration                                                         
   14 entries                                                                   
     n  l   j            E        occ.                                          
     1  0  0.50    -48354.7667   2.0000                                         
     2  0  0.50     -7939.6472   2.0000                                         
     2  1  1.50     -7072.6637   6.0000                                         
     3  0  0.50     -1747.1875   2.0000                                         
     3  1  1.50     -1477.5221   6.0000                                         
     3  2  2.50     -1117.4686  10.0000                                         
     4  0  0.50      -346.8682   2.0000                                         
     4  1  1.50      -258.1962   6.0000                                         
     4  2  2.50      -134.7724  10.0000                                         
     5  0  0.50       -44.6510   2.0000                                         
     6  0  0.50        -3.6227   2.0000                                         
     5  1  1.50       -23.7639   6.0000                                         
     5  2  2.50        -1.3130   0.0000                                         
     4  3  2.50        -2.7310   7.0000                                         
   Description                                                                  
     l       E           TYP  RCUT    TYP  RCUT                                 
     0    -44.6510453     23  2.400                                             
     0     -3.6226685     23  2.400                                             
     1    -23.7638687     23  2.400                                             
     1     27.2116520     23  2.400                                             
     2     -1.3129622     23  2.500                                             
     2     13.6058260     23  2.500                                             
     3     -2.7309948     23  2.800                                             
     3     -3.4014565     23  2.800                                             
  local pseudopotential read in
  partial core-charges read in
  partial kinetic energy density read in
  atomic valenz-charges read in
  non local Contribution for L=           0  read in
    real space projection operators read in
  non local Contribution for L=           0  read in
    real space projection operators read in
  non local Contribution for L=           1  read in
    real space projection operators read in
  non local Contribution for L=           1  read in
    real space projection operators read in
  non local Contribution for L=           2  read in
    real space projection operators read in
  non local Contribution for L=           2  read in
    real space projection operators read in
  non local Contribution for L=           3  read in
    real space projection operators read in
  non local Contribution for L=           3  read in
    real space projection operators read in
    PAW grid and wavefunctions read in
 
   number of l-projection  operators is LMAX  =           8
   number of lm-projection operators is LMMAX =          32
 
 POTCAR:    PAW_PBE O 08Apr2002                   
   SHA256 =  818f92134a0a090dccd8ba1447fa70422a3b330e708bb4f08108d8ae51209ddf O/
   COPYR  = (c) Copyright 08Apr2002 Georg Kresse                                
   COPYR  = This file is part of the software VASP. Any use, copying, and all ot
   COPYR  = If you do not have a valid VASP license, you may not use, copy or di
   VRHFIN =O: s2p4                                                              
   LEXCH  = PE                                                                  
   EATOM  =   432.3788 eV,   31.7789 Ry                                         
                                                                                
   TITEL  = PAW_PBE O 08Apr2002                                                 
   LULTRA =        F    use ultrasoft PP ?                                      
   IUNSCR =        1    unscreen: 0-lin 1-nonlin 2-no                           
   RPACOR =    1.200    partial core radius                                     
   POMASS =   16.000; ZVAL   =    6.000    mass and valenz                      
   RCORE  =    1.520    outmost cutoff radius                                   
   RWIGS  =    1.550; RWIGS  =    0.820    wigner-seitz radius (au A)           
   ENMAX  =  400.000; ENMIN  =  300.000 eV                                      
   ICORE  =        2    local potential                                         
   LCOR   =        T    correct aug charges                                     
   LPAW   =        T    paw PP                                                  
   EAUG   =  605.392                                                            
   DEXC   =    0.000                                                            
   RMAX   =    1.553    core radius for proj-oper                               
   RAUG   =    1.300    factor for augmentation sphere                          
   RDEP   =    1.550    radius for radial grids                                 
   RDEPT  =    1.329    core radius for aug-charge                              
                                                                                
   Atomic configuration                                                         
    4 entries                                                                   
     n  l   j            E        occ.                                          
     1  0  0.50      -514.6923   2.0000                                         
     2  0  0.50       -23.9615   2.0000                                         
     2  1  0.50        -9.0305   4.0000                                         
     3  2  1.50        -9.5241   0.0000                                         
   Description                                                                  
     l       E           TYP  RCUT    TYP  RCUT                                 
     0    -23.9615318     23  1.200                                             
     0     -9.5240782     23  1.200                                             
     1     -9.0304911     23  1.520                                             
     1      8.1634956     23  1.520                                             
     2     -9.5240782      7  1.500                                             
  local pseudopotential read in
  partial core-charges read in
  partial kinetic energy density read in
  kinetic energy density of atom read in
  atomic valenz-charges read in
  non local Contribution for L=           0  read in
    real space projection operators read in
  non local Contribution for L=           0  read in
    real space projection operators read in
  non local Contribution for L=           1  read in
    real space projection operators read in
  non local Contribution for L=           1  read in
    real space projection operators read in
    PAW grid and wavefunctions read in
 
   number of l-projection  operators is LMAX  =           4
   number of lm-projection operators is LMMAX =           8
 
  PAW_PBE Eu 23Dec2003                  :
 energy of atom  1       EATOM=-2619.8085
 kinetic energy error for atom=    0.0019 (will be added to EATOM!!)
  PAW_PBE O 08Apr2002                   :
 energy of atom  2       EATOM= -432.3788
 kinetic energy error for atom=    0.0224 (will be added to EATOM!!)
 
 
 POSCAR: Eu1 O1 str #: 6                         
  positions in direct lattice
  No initial velocities read in
 exchange correlation table for  LEXCH =        8
   RHO(1)=    0.500       N(1)  =     2000
   RHO(2)=  100.500       N(2)  =     4000
 


--------------------------------------------------------------------------------------------------------


 ion  position               nearest neighbor table
   1  0.000  0.000  0.000-   4 2.54   4 2.54   3 2.54   3 2.54   4 2.54   4 2.54
   2  0.500  0.500  0.500-   3 2.54   3 2.54   4 2.54   4 2.54   3 2.54   3 2.54
   3  1.000  0.000  0.500-   2 2.54   2 2.54   1 2.54   1 2.54   2 2.54   2 2.54
   4  0.500  0.500  0.000-   1 2.54   1 2.54   2 2.54   2 2.54   1 2.54   1 2.54
 
  LATTYP: Found a simple monoclinic cell.
 ALAT       =     6.2226765187
 B/A-ratio  =     0.5773363404
 C/A-ratio  =     1.4142184480
 COS(beta)  =    -0.9428120136
  
  Lattice vectors:
  
 A1 = (  -5.3890301000,  -3.1112791000,   0.0000000000)
 A2 = (   1.7962611000,  -3.1112791000,   0.0000000000)
 A3 = (   7.1854231000,   4.1483958000,   2.9333340000)


Analysis of symmetry for initial positions (statically):
=====================================================================
 Subroutine PRICEL returns following result:
 
  LATTYP: Found a trigonal (rhomboedric) cell.
 ALAT       =     3.5926389896
 COS(alpha) =     0.5000180940
  
  Lattice vectors:
  
 A1 = (  -1.7963845000,  -3.1112791000,   0.0000000000)
 A2 = (  -3.5926456000,   0.0000000000,   0.0000000000)
 A3 = (  -1.7963930000,  -1.0371167000,  -2.9333340000)
 
   2 primitive cells build up your supercell.
 

 Routine SETGRP: Setting up the symmetry group for a 
 simple monoclinic supercell.


 Subroutine GETGRP returns: Found  4 space group operations
 (whereof  4 operations were pure point group operations)
 out of a pool of  4 trial point group operations.


The static configuration has the point symmetry C_2h.


Analysis of symmetry for dynamics (positions and initial velocities):
=====================================================================
 Subroutine PRICEL returns following result:
 
  LATTYP: Found a trigonal (rhomboedric) cell.
 ALAT       =     3.5926389896
 COS(alpha) =     0.5000180940
  
  Lattice vectors:
  
 A1 = (  -1.7963845000,  -3.1112791000,   0.0000000000)
 A2 = (  -3.5926456000,   0.0000000000,   0.0000000000)
 A3 = (  -1.7963930000,  -1.0371167000,  -2.9333340000)
 
   2 primitive cells build up your supercell.
 

 Routine SETGRP: Setting up the symmetry group for a 
 simple monoclinic supercell.


 Subroutine GETGRP returns: Found  4 space group operations
 (whereof  4 operations were pure point group operations)
 out of a pool of  4 trial point group operations.


The dynamic configuration has the point symmetry C_2h.


Analysis of structural, dynamic, and magnetic symmetry:
=====================================================================
 Subroutine PRICEL returns following result:
 
  LATTYP: Found a trigonal (rhomboedric) cell.
 ALAT       =     3.5926389896
 COS(alpha) =     0.5000180940
  
  Lattice vectors:
  
 A1 = (  -1.7963845000,  -3.1112791000,   0.0000000000)
 A2 = (  -3.5926456000,   0.0000000000,   0.0000000000)
 A3 = (  -1.7963930000,  -1.0371167000,  -2.9333340000)
 
   2 primitive cells build up your supercell.
 

 Routine SETGRP: Setting up the symmetry group for a 
 simple monoclinic supercell.


 Subroutine GETGRP returns: Found  4 space group operations
 (whereof  4 operations were pure point group operations)
 out of a pool of  4 trial point group operations.


The magnetic configuration has the point symmetry C_2h.


 Subroutine INISYM returns: Found  4 space group operations
 (whereof  4 operations are pure point group operations),
 and found     2 'primitive' translations

 
 

Automatic generation of k-mesh.
 generate k-points for:    4    4    3
Space group operators:
 irot       det(A)        alpha          n_x          n_y          n_z        tau_x        tau_y        tau_z
    1     1.000000     0.000000     1.000000     0.000000     0.000000     0.000000     0.000000     0.000000
    2    -1.000000     0.000000     1.000000     0.000000     0.000000     0.000000     0.000000     0.000000
    3     1.000000   179.999999    -0.499990     0.866031     0.000001     0.000000     0.000000     0.000000
    4    -1.000000   179.999999    -0.499990     0.866031     0.000001     0.000000     0.000000     0.000000
 
 Subroutine IBZKPT returns following result:
 ===========================================
 
 Found     21 irreducible k-points:
 
 Following reciprocal coordinates:
            Coordinates               Weight
  0.000000  0.000000  0.000000      1.000000
  0.250000 -0.000000  0.000000      2.000000
  0.500000 -0.000000  0.000000      1.000000
  0.000000  0.250000  0.000000      2.000000
  0.250000  0.250000  0.000000      4.000000
  0.500000  0.250000  0.000000      2.000000
  0.000000  0.500000  0.000000      1.000000
  0.250000  0.500000  0.000000      2.000000
  0.500000  0.500000  0.000000      1.000000
  0.000000  0.000000  0.333333      2.000000
  0.250000  0.000000  0.333333      4.000000
  0.500000  0.000000  0.333333      2.000000
  0.000000  0.250000  0.333333      2.000000
  0.250000  0.250000  0.333333      4.000000
  0.500000  0.250000  0.333333      2.000000
  0.000000  0.500000  0.333333      2.000000
  0.250000  0.500000  0.333333      4.000000
  0.500000  0.500000  0.333333      2.000000
 -0.000000 -0.250000  0.333333      2.000000
  0.250000 -0.250000  0.333333      4.000000
  0.500000 -0.250000  0.333333      2.000000
 
 Following cartesian coordinates:
            Coordinates               Weight
  0.000000  0.000000  0.000000      1.000000
 -0.034793  0.060265  0.000000      2.000000
 -0.069587  0.120531  0.000000      1.000000
  0.034793  0.020088  0.056817      2.000000
  0.000000  0.080353  0.056818      4.000000
 -0.034793  0.140618  0.056818      2.000000
  0.069587  0.040175  0.113635      1.000000
  0.034793  0.100440  0.113635      2.000000
  0.000000  0.160706  0.113635      1.000000
  0.046391  0.026783 -0.037880      2.000000
  0.011598  0.087049 -0.037880      4.000000
 -0.023196  0.147314 -0.037880      2.000000
  0.081184  0.046871  0.018938      2.000000
  0.046391  0.107136  0.018938      4.000000
  0.011598  0.167401  0.018938      2.000000
  0.115978  0.066958  0.075755      2.000000
  0.081184  0.127224  0.075755      4.000000
  0.046391  0.187489  0.075755      2.000000
  0.011598  0.006696 -0.094697      2.000000
 -0.023196  0.066961 -0.094697      4.000000
 -0.057989  0.127226 -0.094697      2.000000
 


--------------------------------------------------------------------------------------------------------




 Dimension of arrays:
   k-points           NKPTS =     21   k-points in BZ     NKDIM =     21   number of bands    NBANDS=     28
   number of dos      NEDOS =    301   number of ions     NIONS =      4
   non local maximal  LDIM  =      8   non local SUM 2l+1 LMDIM =     32
   total plane-waves  NPLWV =  11200
   max r-space proj   IRMAX =      1   max aug-charges    IRDMAX=   9962
   dimension x,y,z NGX =    20 NGY =   20 NGZ =   28
   dimension x,y,z NGXF=    40 NGYF=   40 NGZF=   56
   support grid    NGXF=    40 NGYF=   40 NGZF=   56
   ions per type =               2   2
   NGX,Y,Z   is equivalent  to a cutoff of   9.25,  9.25,  9.16 a.u.
   NGXF,Y,Z  is equivalent  to a cutoff of  18.51, 18.51, 18.32 a.u.

 SYSTEM =  "EuO"                                   
 POSCAR =  Eu1 O1 str #: 6                         

 Startparameter for this run:
   NWRITE =      2    write-flag & timer
   PREC   = normal    normal or accurate (medium, high low for compatibility)
   ISTART =      0    job   : 0-new  1-cont  2-samecut
   ICHARG =      2    charge: 1-file 2-atom 10-const
   ISPIN  =      2    spin polarized calculation?
   LNONCOLLINEAR =      F non collinear calculations
   LSORBIT =      F    spin-orbit coupling
   INIWAV =      1    electr: 0-lowe 1-rand  2-diag
   LASPH  =      F    aspherical Exc in radial PAW
   METAGGA=      F    non-selfconsistent MetaGGA calc.

 Electronic Relaxation 1
   ENCUT  =  500.0 eV  36.75 Ry    6.06 a.u.   6.55  6.55  9.26*2*pi/ulx,y,z
   ENINI  =  500.0     initial cutoff
   ENAUG  =  605.4 eV  augmentation charge cutoff
   NELM   =     60;   NELMIN=  2; NELMDL= -5     # of ELM steps 
   EDIFF  = 0.1E-05   stopping-criterion for ELM
   LREAL  =      F    real-space projection
   NLSPLINE    = F    spline interpolate recip. space projectors
   LCOMPAT=      F    compatible to vasp.4.4
   GGA_COMPAT  = T    GGA compatible to vasp.4.4-vasp.4.6
   LMAXPAW     = -100 max onsite density
   LMAXMIX     =    2 max onsite mixed and CHGCAR
   VOSKOWN=      0    Vosko Wilk Nusair interpolation
   ROPT   =    0.00000   0.00000
 Ionic relaxation
   EDIFFG = 0.1E-04   stopping-criterion for IOM
   NSW    =      0    number of steps for IOM
   NBLOCK =      1;   KBLOCK =      1    inner block; outer block 
   IBRION =     -1    ionic relax: 0-MD 1-quasi-New 2-CG
   NFREE  =      1    steps in history (QN), initial steepest desc. (CG)
   ISIF   =      2    stress and relaxation
   IWAVPR =     10    prediction:  0-non 1-charg 2-wave 3-comb
   ISYM   =      2    0-nonsym 1-usesym 2-fastsym
   LCORR  =      T    Harris-Foulkes like correction to forces

   POTIM  = 0.5000    time-step for ionic-motion
   TEIN   =    0.0    initial temperature
   TEBEG  =    0.0;   TEEND  =   0.0 temperature during run
   SMASS  =  -3.00    Nose mass-parameter (am)
   estimated Nose-frequenzy (Omega)   =  0.10E-29 period in steps =****** mass=  -0.295E-27a.u.
   SCALEE = 1.0000    scale energy and forces
   NPACO  =    256;   APACO  = 16.0  distance and # of slots for P.C.
   PSTRESS=    0.0 pullay stress

  Mass of Ions in am
   POMASS = 151.97 16.00
  Ionic Valenz
   ZVAL   =  17.00  6.00
  Atomic Wigner-Seitz radii
   RWIGS  =  -1.00 -1.00
  virtual crystal weights 
   VCA    =   1.00  1.00
   NELECT =      46.0000    total number of electrons
   NUPDOWN=      -1.0000    fix difference up-down

 DOS related values:
   EMIN   =  10.00;   EMAX   =-10.00  energy-range for DOS
   EFERMI =   0.00
   ISMEAR =     1;   SIGMA  =   0.10  broadening in eV -4-tet -1-fermi 0-gaus

 Electronic relaxation 2 (details)
   IALGO  =     38    algorithm
   LDIAG  =      T    sub-space diagonalisation (order eigenvalues)
   LSUBROT=      F    optimize rotation matrix (better conditioning)
   TURBO    =      0    0=normal 1=particle mesh
   IRESTART =      0    0=no restart 2=restart with 2 vectors
   NREBOOT  =      0    no. of reboots
   NMIN     =      0    reboot dimension
   EREF     =   0.00    reference energy to select bands
   IMIX   =      4    mixing-type and parameters
     AMIX     =   0.40;   BMIX     =  1.00
     AMIX_MAG =   1.60;   BMIX_MAG =  1.00
     AMIN     =   0.10
     WC   =   100.;   INIMIX=   1;  MIXPRE=   1;  MAXMIX= -45

 Intra band minimization:
   WEIMIN = 0.0000     energy-eigenvalue tresh-hold
   EBREAK =  0.89E-08  absolut break condition
   DEPER  =   0.30     relativ break condition  

   TIME   =   0.40     timestep for ELM

  volume/ion in A,a.u.               =      16.39       110.63
  Fermi-wavevector in a.u.,A,eV,Ry     =   1.454607  2.748810 28.788335  2.115883
  Thomas-Fermi vector in A             =   2.571738
 
 Write flags
   LWAVE        =      F    write WAVECAR
   LDOWNSAMPLE  =      F    k-point downsampling of WAVECAR
   LCHARG       =      F    write CHGCAR
   LVTOT        =      F    write LOCPOT, total local potential
   LVHAR        =      F    write LOCPOT, Hartree potential only
   LELF         =      F    write electronic localiz. function (ELF)
   LORBIT       =     11    0 simple, 1 ext, 2 COOP (PROOUT), +10 PAW based schemes


 Dipole corrections
   LMONO  =      F    monopole corrections only (constant potential shift)
   LDIPOL =      F    correct potential (dipole corrections)
   IDIPOL =      0    1-x, 2-y, 3-z, 4-all directions 
   EPSILON=  1.0000000 bulk dielectric constant

 Exchange correlation treatment:
   GGA     =    --    GGA type
   LEXCH   =     8    internal setting for exchange type
   VOSKOWN=      0    Vosko Wilk Nusair interpolation
   LHFCALC =     F    Hartree Fock is set to
   LHFONE  =     F    Hartree Fock one center treatment
   AEXX    =    0.0000 exact exchange contribution

 Linear response parameters
   LEPSILON=     F    determine dielectric tensor
   LRPA    =     F    only Hartree local field effects (RPA)
   LNABLA  =     F    use nabla operator in PAW spheres
   LVEL    =     F    velocity operator in full k-point grid
   LINTERFAST=   F  fast interpolation
   KINTER  =     0    interpolate to denser k-point grid
   CSHIFT  =0.1000    complex shift for real part using Kramers Kronig
   OMEGAMAX=  -1.0    maximum frequency
   DEG_THRESHOLD= 0.2000000E-02 threshold for treating states as degnerate
   RTIME   =   -0.100 relaxation time in fs
  (WPLASMAI=    0.000 imaginary part of plasma frequency in eV, 0.658/RTIME)
   DFIELD  = 0.0000000 0.0000000 0.0000000 field for delta impulse in time
 
 Orbital magnetization related:
   ORBITALMAG=     F  switch on orbital magnetization
   LCHIMAG   =     F  perturbation theory with respect to B field
   DQ        =  0.001000  dq finite difference perturbation B field
   LLRAUG    =     F  two centre corrections for induced B field



--------------------------------------------------------------------------------------------------------


 Static calculation
 charge density and potential will be updated during run
 spin polarized calculation
 Variant of blocked Davidson
 Davidson routine will perform the subspace rotation
 perform sub-space diagonalisation
    after iterative eigenvector-optimisation
 modified Broyden-mixing scheme, WC =      100.0
 initial mixing is a Kerker type mixing with AMIX =  0.4000 and BMIX =      1.0000
 Hartree-type preconditioning will be used
 using additional bands            5
 reciprocal scheme for non local part
 use partial core corrections
 calculate Harris-corrections to forces 
   (improved forces if not selfconsistent)
 use gradient corrections 
 use of overlap-Matrix (Vanderbilt PP)
 Methfessel and Paxton  Order N= 1 SIGMA  =   0.10


--------------------------------------------------------------------------------------------------------


  energy-cutoff  :      500.00
  volume of cell :       65.58
      direct lattice vectors                 reciprocal lattice vectors
    -1.796261100  3.111279100  0.000000000    -0.139173204  0.241061172  0.000000410
     1.796393000  1.037116700  2.933334000     0.139173204  0.080350044  0.227269672
     3.592637100  2.074162400 -2.933334000     0.139173204  0.080350044 -0.113639341

  length of vectors
     3.592577289  3.592643486  5.080712484     0.278351701  0.278346572  0.196822789


 
 k-points in units of 2pi/SCALE and weight: read from INCAR                         
   0.00000000  0.00000000  0.00000000       0.021
  -0.03479330  0.06026529  0.00000010       0.042
  -0.06958660  0.12053059  0.00000020       0.021
   0.03479330  0.02008751  0.05681742       0.042
   0.00000000  0.08035280  0.05681752       0.083
  -0.03479330  0.14061810  0.05681762       0.042
   0.06958660  0.04017502  0.11363484       0.021
   0.03479330  0.10044032  0.11363494       0.042
   0.00000000  0.16070561  0.11363504       0.021
   0.04639107  0.02678335 -0.03787978       0.042
   0.01159777  0.08704864 -0.03787968       0.083
  -0.02319553  0.14731393 -0.03787958       0.042
   0.08118437  0.04687086  0.01893764       0.042
   0.04639107  0.10713615  0.01893774       0.083
   0.01159777  0.16740145  0.01893784       0.042
   0.11597767  0.06695837  0.07575506       0.042
   0.08118437  0.12722366  0.07575516       0.083
   0.04639107  0.18748896  0.07575526       0.042
   0.01159777  0.00669584 -0.09469720       0.042
  -0.02319553  0.06696113 -0.09469710       0.083
  -0.05798884  0.12722642 -0.09469699       0.042
 
 k-points in reciprocal lattice and weights: read from INCAR                         
   0.00000000  0.00000000  0.00000000       0.021
   0.25000000 -0.00000000  0.00000000       0.042
   0.50000000 -0.00000000  0.00000000       0.021
   0.00000000  0.25000000  0.00000000       0.042
   0.25000000  0.25000000  0.00000000       0.083
   0.50000000  0.25000000  0.00000000       0.042
   0.00000000  0.50000000  0.00000000       0.021
   0.25000000  0.50000000  0.00000000       0.042
   0.50000000  0.50000000  0.00000000       0.021
   0.00000000  0.00000000  0.33333333       0.042
   0.25000000  0.00000000  0.33333333       0.083
   0.50000000  0.00000000  0.33333333       0.042
   0.00000000  0.25000000  0.33333333       0.042
   0.25000000  0.25000000  0.33333333       0.083
   0.50000000  0.25000000  0.33333333       0.042
   0.00000000  0.50000000  0.33333333       0.042
   0.25000000  0.50000000  0.33333333       0.083
   0.50000000  0.50000000  0.33333333       0.042
  -0.00000000 -0.25000000  0.33333333       0.042
   0.25000000 -0.25000000  0.33333333       0.083
   0.50000000 -0.25000000  0.33333333       0.042
 
 position of ions in fractional coordinates (direct lattice) 
   0.00000000  0.00000000  0.00000000
   0.50000000  0.50000000  0.50000000
   0.99999995  0.00000004  0.50000000
   0.49999995  0.50000004  0.00000000
 
 position of ions in cartesian coordinates  (Angst):
   0.00000000  0.00000000  0.00000000
   1.79638450  3.11127910  0.00000000
   0.00005760  4.14836020 -1.46666690
   0.00006610  2.07419780  1.46666710
 


--------------------------------------------------------------------------------------------------------


 k-point  1 :   0.0000 0.0000 0.0000  plane waves:    1675
 k-point  2 :   0.2500-0.0000 0.0000  plane waves:    1661
 k-point  3 :   0.5000-0.0000 0.0000  plane waves:    1674
 k-point  4 :   0.0000 0.2500 0.0000  plane waves:    1661
 k-point  5 :   0.2500 0.2500 0.0000  plane waves:    1681
 k-point  6 :   0.5000 0.2500 0.0000  plane waves:    1672
 k-point  7 :   0.0000 0.5000 0.0000  plane waves:    1674
 k-point  8 :   0.2500 0.5000 0.0000  plane waves:    1672
 k-point  9 :   0.5000 0.5000 0.0000  plane waves:    1612
 k-point 10 :   0.0000 0.0000 0.3333  plane waves:    1690
 k-point 11 :   0.2500 0.0000 0.3333  plane waves:    1663
 k-point 12 :   0.5000 0.0000 0.3333  plane waves:    1658
 k-point 13 :   0.0000 0.2500 0.3333  plane waves:    1663
 k-point 14 :   0.2500 0.2500 0.3333  plane waves:    1666
 k-point 15 :   0.5000 0.2500 0.3333  plane waves:    1668
 k-point 16 :   0.0000 0.5000 0.3333  plane waves:    1658
 k-point 17 :   0.2500 0.5000 0.3333  plane waves:    1668
 k-point 18 :   0.5000 0.5000 0.3333  plane waves:    1664
 k-point 19 :  -0.0000-0.2500 0.3333  plane waves:    1663
 k-point 20 :   0.2500-0.2500 0.3333  plane waves:    1666
 k-point 21 :   0.5000-0.2500 0.3333  plane waves:    1668

 maximum and minimum number of plane-waves per node :       438      388

 maximum number of plane-waves:      1690
 maximum index in each direction: 
   IXMAX=    6   IYMAX=    6   IZMAX=    9
   IXMIN=   -7   IYMIN=   -7   IZMIN=   -9


 parallel 3D FFT for wavefunctions:
    minimum data exchange during FFTs selected (reduces bandwidth)
 parallel 3D FFT for charge:
    minimum data exchange during FFTs selected (reduces bandwidth)


 total amount of memory used by VASP MPI-rank0    40475. kBytes
=======================================================================

   base      :      30000. kBytes
   nonl-proj :       4521. kBytes
   fftplans  :        475. kBytes
   grid      :       1148. kBytes
   one-center:         98. kBytes
   wavefun   :       4233. kBytes
 
     INWAV:  cpu time    0.0000: real time    0.0001
 Broyden mixing: mesh for mixing (old mesh)
   NGX = 13   NGY = 13   NGZ = 19
  (NGX  = 40   NGY  = 40   NGZ  = 56)
  gives a total of   3211 points

 initial charge density was supplied:
 charge density of overlapping atoms calculated
 number of electron      46.0000000 magnetization       0.0000000
 keeping initial charge density in first step


--------------------------------------------------------------------------------------------------------


 Maximum index for augmentation-charges         1239 (set IRDMAX)


--------------------------------------------------------------------------------------------------------


 First call to EWALD:  gamma=   0.440
 Maximum number of real-space cells 3x 3x 2
 Maximum number of reciprocal cells 3x 3x 3

    FEWALD:  cpu time    0.0012: real time    0.0012


--------------------------------------- Iteration      1(   1)  ---------------------------------------


    POTLOK:  cpu time    0.0150: real time    0.0173
    SETDIJ:  cpu time    0.0086: real time    0.0086
     EDDAV:  cpu time    0.5126: real time    0.5224
       DOS:  cpu time    0.0015: real time    0.0015
    --------------------------------------------
      LOOP:  cpu time    0.5377: real time    0.5498

 eigenvalue-minimisations  :  2784
 total energy-change (2. order) : 0.4432590E+03  (-0.1840080E+04)
 number of electron      46.0000000 magnetization       0.0000000
 augmentation part       46.0000000 magnetization       0.0000000

 Free energy of the ion-electron system (eV)
  ---------------------------------------------------
  alpha Z        PSCENC =       453.10565554
  Ewald energy   TEWEN  =     -4853.25068260
  -Hartree energ DENC   =     -1394.95400397
  -exchange      EXHF   =         0.00000000
  -V(xc)+E(xc)   XCENC  =       227.25687622
  PAW double counting   =      5122.54265185    -5413.80328534
  entropy T*S    EENTRO =        -0.00160571
  eigenvalues    EBANDS =       198.03724232
  atomic energy  EATOM  =      6104.32616516
  Solvation  Ediel_sol  =         0.00000000
  ---------------------------------------------------
  free energy    TOTEN  =       443.25901347 eV

  energy without entropy =      443.26061918  energy(sigma->0) =      443.25954871


--------------------------------------------------------------------------------------------------------




--------------------------------------- Iteration      1(   2)  ---------------------------------------


     EDDAV:  cpu time    0.5902: real time    0.5930
       DOS:  cpu time    0.0016: real time    0.0016
    --------------------------------------------
      LOOP:  cpu time    0.5918: real time    0.5946

 eigenvalue-minimisations  :  3248
 total energy-change (2. order) :-0.3927261E+03  (-0.3686355E+03)
 number of electron      46.0000000 magnetization       0.0000000
 augmentation part       46.0000000 magnetization       0.0000000

 Free energy of the ion-electron system (eV)
  ---------------------------------------------------
  alpha Z        PSCENC =       453.10565554
  Ewald energy   TEWEN  =     -4853.25068260
  -Hartree energ DENC   =     -1394.95400397
  -exchange      EXHF   =         0.00000000
  -V(xc)+E(xc)   XCENC  =       227.25687622
  PAW double counting   =      5122.54265185    -5413.80328534
  entropy T*S    EENTRO =         0.00058733
  eigenvalues    EBANDS =      -194.69107935
  atomic energy  EATOM  =      6104.32616516
  Solvation  Ediel_sol  =         0.00000000
  ---------------------------------------------------
  free energy    TOTEN  =        50.53288485 eV

  energy without entropy =       50.53229752  energy(sigma->0) =       50.53268907


--------------------------------------------------------------------------------------------------------




--------------------------------------- Iteration      1(   3)  ---------------------------------------


     EDDAV:  cpu time    0.6862: real time    0.6881
       DOS:  cpu time    0.0018: real time    0.0018
    --------------------------------------------
      LOOP:  cpu time    0.6880: real time    0.6899

 eigenvalue-minimisations  :  3888
 total energy-change (2. order) :-0.8718910E+02  (-0.8528819E+02)
 number of electron      46.0000000 magnetization       0.0000000
 augmentation part       46.0000000 magnetization       0.0000000

 Free energy of the ion-electron system (eV)
  ---------------------------------------------------
  alpha Z        PSCENC =       453.10565554
  Ewald energy   TEWEN  =     -4853.25068260
  -Hartree energ DENC   =     -1394.95400397
  -exchange      EXHF   =         0.00000000
  -V(xc)+E(xc)   XCENC  =       227.25687622
  PAW double counting   =      5122.54265185    -5413.80328534
  entropy T*S    EENTRO =         0.00138864
  eigenvalues    EBANDS =      -281.88098326
  atomic energy  EATOM  =      6104.32616516
  Solvation  Ediel_sol  =         0.00000000
  ---------------------------------------------------
  free energy    TOTEN  =       -36.65621775 eV

  energy without entropy =      -36.65760640  energy(sigma->0) =      -36.65668063


--------------------------------------------------------------------------------------------------------




--------------------------------------- Iteration      1(   4)  ---------------------------------------


     EDDAV:  cpu time    0.7012: real time    0.7030
       DOS:  cpu time    0.0018: real time    0.0018
    --------------------------------------------
      LOOP:  cpu time    0.7030: real time    0.7047

 eigenvalue-minimisations  :  4060
 total energy-change (2. order) :-0.7441977E+01  (-0.6935761E+01)
 number of electron      46.0000000 magnetization       0.0000000
 augmentation part       46.0000000 magnetization       0.0000000

 Free energy of the ion-electron system (eV)
  ---------------------------------------------------
  alpha Z        PSCENC =       453.10565554
  Ewald energy   TEWEN  =     -4853.25068260
  -Hartree energ DENC   =     -1394.95400397
  -exchange      EXHF   =         0.00000000
  -V(xc)+E(xc)   XCENC  =       227.25687622
  PAW double counting   =      5122.54265185    -5413.80328534
  entropy T*S    EENTRO =         0.00235516
  eigenvalues    EBANDS =      -289.32392665
  atomic energy  EATOM  =      6104.32616516
  Solvation  Ediel_sol  =         0.00000000
  ---------------------------------------------------
  free energy    TOTEN  =       -44.09819463 eV

  energy without entropy =      -44.10054979  energy(sigma->0) =      -44.09897968


--------------------------------------------------------------------------------------------------------




--------------------------------------- Iteration      1(   5)  ---------------------------------------


     EDDAV:  cpu time    0.7369: real time    0.7387
       DOS:  cpu time    0.0018: real time    0.0018
    CHARGE:  cpu time    0.0341: real time    0.0342
    MIXING:  cpu time    0.0004: real time    0.0005
    --------------------------------------------
      LOOP:  cpu time    0.7733: real time    0.7752

 eigenvalue-minimisations  :  4272
 total energy-change (2. order) :-0.9089286E+00  (-0.8464261E+00)
 number of electron      46.0000050 magnetization      -0.0000000
 augmentation part        8.5199211 magnetization      -0.0000000

 Broyden mixing:
  rms(total) = 0.27585E+01    rms(broyden)= 0.27582E+01
  rms(prec ) = 0.56761E+01
  weight for this iteration     100.00

 Free energy of the ion-electron system (eV)
  ---------------------------------------------------
  alpha Z        PSCENC =       453.10565554
  Ewald energy   TEWEN  =     -4853.25068260
  -Hartree energ DENC   =     -1394.95400397
  -exchange      EXHF   =         0.00000000
  -V(xc)+E(xc)   XCENC  =       227.25687622
  PAW double counting   =      5122.54265185    -5413.80328534
  entropy T*S    EENTRO =         0.00413732
  eigenvalues    EBANDS =      -290.23463745
  atomic energy  EATOM  =      6104.32616516
  Solvation  Ediel_sol  =         0.00000000
  ---------------------------------------------------
  free energy    TOTEN  =       -45.00712327 eV

  energy without entropy =      -45.01126059  energy(sigma->0) =      -45.00850237


--------------------------------------------------------------------------------------------------------




--------------------------------------- Iteration      1(   6)  ---------------------------------------


    POTLOK:  cpu time    0.0126: real time    0.0129
    SETDIJ:  cpu time    0.0077: real time    0.0077
     EDDAV:  cpu time    0.6689: real time    0.6705
       DOS:  cpu time    0.0017: real time    0.0017
    CHARGE:  cpu time    0.0327: real time    0.0327
    MIXING:  cpu time    0.0006: real time    0.0006
    --------------------------------------------
      LOOP:  cpu time    0.7241: real time    0.7262

 eigenvalue-minimisations  :  3824
 total energy-change (2. order) :-0.4987789E+02  (-0.7698351E+02)
 number of electron      46.0000079 magnetization       0.0000000
 augmentation part       22.5761141 magnetization       0.0000000

 Broyden mixing:
  rms(total) = 0.11161E+02    rms(broyden)= 0.11160E+02
  rms(prec ) = 0.19796E+02
  weight for this iteration     100.00

 eigenvalues of (default mixing * dielectric matrix)
  average eigenvalue GAMMA=   0.1397
  0.1397

 Free energy of the ion-electron system (eV)
  ---------------------------------------------------
  alpha Z        PSCENC =       453.10565554
  Ewald energy   TEWEN  =     -4853.25068260
  -Hartree energ DENC   =     -1263.22424107
  -exchange      EXHF   =         0.00000000
  -V(xc)+E(xc)   XCENC  =       223.15157386
  PAW double counting   =      4927.87112355    -5160.65429839
  entropy T*S    EENTRO =        -0.00460882
  eigenvalues    EBANDS =      -526.20569831
  atomic energy  EATOM  =      6104.32616516
  Solvation  Ediel_sol  =         0.00000000
  ---------------------------------------------------
  free energy    TOTEN  =       -94.88501107 eV

  energy without entropy =      -94.88040225  energy(sigma->0) =      -94.88347480


--------------------------------------------------------------------------------------------------------




--------------------------------------- Iteration      1(   7)  ---------------------------------------


    POTLOK:  cpu time    0.0127: real time    0.0128
    SETDIJ:  cpu time    0.0079: real time    0.0080
     EDDAV:  cpu time    0.6358: real time    0.6373
       DOS:  cpu time    0.0015: real time    0.0015
    CHARGE:  cpu time    0.0333: real time    0.0334
    MIXING:  cpu time    0.0006: real time    0.0006
    --------------------------------------------
      LOOP:  cpu time    0.6918: real time    0.6935

 eigenvalue-minimisations  :  3664
 total energy-change (2. order) : 0.6700636E+02  (-0.5018942E+02)
 number of electron      46.0000051 magnetization       0.0000000
 augmentation part       10.8897352 magnetization       0.0000000

 Broyden mixing:
  rms(total) = 0.27644E+01    rms(broyden)= 0.27640E+01
  rms(prec ) = 0.28403E+01
  weight for this iteration     100.00

 eigenvalues of (default mixing * dielectric matrix)
  average eigenvalue GAMMA=   0.2259
  0.2259  0.2259

 Free energy of the ion-electron system (eV)
  ---------------------------------------------------
  alpha Z        PSCENC =       453.10565554
  Ewald energy   TEWEN  =     -4853.25068260
  -Hartree energ DENC   =     -1354.18326304
  -exchange      EXHF   =         0.00000000
  -V(xc)+E(xc)   XCENC  =       223.81271436
  PAW double counting   =      5163.29830372    -5452.40106903
  entropy T*S    EENTRO =        -0.00044482
  eigenvalues    EBANDS =      -312.58603101
  atomic energy  EATOM  =      6104.32616516
  Solvation  Ediel_sol  =         0.00000000
  ---------------------------------------------------
  free energy    TOTEN  =       -27.87865172 eV

  energy without entropy =      -27.87820690  energy(sigma->0) =      -27.87850344


--------------------------------------------------------------------------------------------------------




--------------------------------------- Iteration      1(   8)  ---------------------------------------


    POTLOK:  cpu time    0.0126: real time    0.0127
    SETDIJ:  cpu time    0.0077: real time    0.0078
     EDDAV:  cpu time    0.6409: real time    0.6424
       DOS:  cpu time    0.0016: real time    0.0016
    CHARGE:  cpu time    0.0349: real time    0.0350
    MIXING:  cpu time    0.0006: real time    0.0006
    --------------------------------------------
      LOOP:  cpu time    0.6983: real time    0.7001

 eigenvalue-minimisations  :  3748
 total energy-change (2. order) :-0.1335892E+02  (-0.1033897E+02)
 number of electron      46.0000059 magnetization       0.0000000
 augmentation part       12.1122579 magnetization       0.0000000

 Broyden mixing:
  rms(total) = 0.20067E+01    rms(broyden)= 0.20065E+01
  rms(prec ) = 0.23679E+01
  weight for this iteration     100.00

 eigenvalues of (default mixing * dielectric matrix)
  average eigenvalue GAMMA=   0.3994
  0.4941  0.4941  0.2100

 Free energy of the ion-electron system (eV)
  ---------------------------------------------------
  alpha Z        PSCENC =       453.10565554
  Ewald energy   TEWEN  =     -4853.25068260
  -Hartree energ DENC   =     -1350.40837414
  -exchange      EXHF   =         0.00000000
  -V(xc)+E(xc)   XCENC  =       225.54362607
  PAW double counting   =      5183.01057739    -5472.96205447
  entropy T*S    EENTRO =         0.00073414
  eigenvalues    EBANDS =      -330.60321474
  atomic energy  EATOM  =      6104.32616516
  Solvation  Ediel_sol  =         0.00000000
  ---------------------------------------------------
  free energy    TOTEN  =       -41.23756764 eV

  energy without entropy =      -41.23830178  energy(sigma->0) =      -41.23781235


--------------------------------------------------------------------------------------------------------




--------------------------------------- Iteration      1(   9)  ---------------------------------------


    POTLOK:  cpu time    0.0118: real time    0.0119
    SETDIJ:  cpu time    0.0077: real time    0.0077
     EDDAV:  cpu time    0.6478: real time    0.6493
       DOS:  cpu time    0.0018: real time    0.0018
    CHARGE:  cpu time    0.0336: real time    0.0337
    MIXING:  cpu time    0.0006: real time    0.0006
    --------------------------------------------
      LOOP:  cpu time    0.7032: real time    0.7049

 eigenvalue-minimisations  :  3764
 total energy-change (2. order) :-0.2379550E+00  (-0.8628700E+00)
 number of electron      46.0000059 magnetization       0.0000000
 augmentation part       11.7095562 magnetization       0.0000000

 Broyden mixing:
  rms(total) = 0.13108E+01    rms(broyden)= 0.13108E+01
  rms(prec ) = 0.16172E+01
  weight for this iteration     100.00

 eigenvalues of (default mixing * dielectric matrix)
  average eigenvalue GAMMA=   0.5427
  0.7253  0.2092  0.6182  0.6182

 Free energy of the ion-electron system (eV)
  ---------------------------------------------------
  alpha Z        PSCENC =       453.10565554
  Ewald energy   TEWEN  =     -4853.25068260
  -Hartree energ DENC   =     -1369.04316552
  -exchange      EXHF   =         0.00000000
  -V(xc)+E(xc)   XCENC  =       227.65582064
  PAW double counting   =      5210.75953360    -5508.27713680
  entropy T*S    EENTRO =         0.01808416
  eigenvalues    EBANDS =      -306.76979684
  atomic energy  EATOM  =      6104.32616516
  Solvation  Ediel_sol  =         0.00000000
  ---------------------------------------------------
  free energy    TOTEN  =       -41.47552267 eV

  energy without entropy =      -41.49360683  energy(sigma->0) =      -41.48155072


--------------------------------------------------------------------------------------------------------




--------------------------------------- Iteration      1(  10)  ---------------------------------------


    POTLOK:  cpu time    0.0122: real time    0.0123
    SETDIJ:  cpu time    0.0075: real time    0.0075
     EDDAV:  cpu time    0.6921: real time    0.6937
       DOS:  cpu time    0.0017: real time    0.0017
    CHARGE:  cpu time    0.0328: real time    0.0329
    MIXING:  cpu time    0.0007: real time    0.0007
    --------------------------------------------
      LOOP:  cpu time    0.7470: real time    0.7488

 eigenvalue-minimisations  :  4112
 total energy-change (2. order) :-0.1448486E+00  (-0.2536442E+00)
 number of electron      46.0000057 magnetization       0.0000000
 augmentation part       11.1964957 magnetization       0.0000000

 Broyden mixing:
  rms(total) = 0.82191E+00    rms(broyden)= 0.82189E+00
  rms(prec ) = 0.11446E+01
  weight for this iteration     100.00

 eigenvalues of (default mixing * dielectric matrix)
  average eigenvalue GAMMA=   0.5794
  0.8067  0.8067  0.2097  0.5369  0.5369

 Free energy of the ion-electron system (eV)
  ---------------------------------------------------
  alpha Z        PSCENC =       453.10565554
  Ewald energy   TEWEN  =     -4853.25068260
  -Hartree energ DENC   =     -1382.03520054
  -exchange      EXHF   =         0.00000000
  -V(xc)+E(xc)   XCENC  =       229.80589093
  PAW double counting   =      5231.79073330    -5538.09471935
  entropy T*S    EENTRO =         0.01293243
  eigenvalues    EBANDS =      -287.28114615
  atomic energy  EATOM  =      6104.32616516
  Solvation  Ediel_sol  =         0.00000000
  ---------------------------------------------------
  free energy    TOTEN  =       -41.62037127 eV

  energy without entropy =      -41.63330370  energy(sigma->0) =      -41.62468208


--------------------------------------------------------------------------------------------------------




--------------------------------------- Iteration      1(  11)  ---------------------------------------


    POTLOK:  cpu time    0.0124: real time    0.0125
    SETDIJ:  cpu time    0.0076: real time    0.0076
     EDDAV:  cpu time    0.7521: real time    0.7539
       DOS:  cpu time    0.0018: real time    0.0018
    CHARGE:  cpu time    0.0330: real time    0.0331
    MIXING:  cpu time    0.0007: real time    0.0007
    --------------------------------------------
      LOOP:  cpu time    0.8075: real time    0.8095

 eigenvalue-minimisations  :  4484
 total energy-change (2. order) :-0.6509913E-01  (-0.4710154E-01)
 number of electron      46.0000056 magnetization      -0.0000000
 augmentation part       11.2122178 magnetization      -0.0000000

 Broyden mixing:
  rms(total) = 0.56543E+00    rms(broyden)= 0.56542E+00
  rms(prec ) = 0.82856E+00
  weight for this iteration     100.00

 eigenvalues of (default mixing * dielectric matrix)
  average eigenvalue GAMMA=   0.6963
  1.1615  1.1615  0.2095  0.5536  0.5536  0.5383

 Free energy of the ion-electron system (eV)
  ---------------------------------------------------
  alpha Z        PSCENC =       453.10565554
  Ewald energy   TEWEN  =     -4853.25068260
  -Hartree energ DENC   =     -1383.74220919
  -exchange      EXHF   =         0.00000000
  -V(xc)+E(xc)   XCENC  =       230.55013766
  PAW double counting   =      5243.27061369    -5552.04453348
  entropy T*S    EENTRO =         0.01891499
  eigenvalues    EBANDS =      -283.91953217
  atomic energy  EATOM  =      6104.32616516
  Solvation  Ediel_sol  =         0.00000000
  ---------------------------------------------------
  free energy    TOTEN  =       -41.68547040 eV

  energy without entropy =      -41.70438539  energy(sigma->0) =      -41.69177539


--------------------------------------------------------------------------------------------------------




--------------------------------------- Iteration      1(  12)  ---------------------------------------


    POTLOK:  cpu time    0.0124: real time    0.0125
    SETDIJ:  cpu time    0.0077: real time    0.0077
     EDDAV:  cpu time    0.6469: real time    0.6484
       DOS:  cpu time    0.0018: real time    0.0018
    CHARGE:  cpu time    0.0307: real time    0.0308
    MIXING:  cpu time    0.0007: real time    0.0007
    --------------------------------------------
      LOOP:  cpu time    0.7002: real time    0.7019

 eigenvalue-minimisations  :  3760
 total energy-change (2. order) : 0.4450359E-01  (-0.1238128E+00)
 number of electron      46.0000056 magnetization      -0.0000000
 augmentation part       11.5951409 magnetization      -0.0000000

 Broyden mixing:
  rms(total) = 0.15800E+00    rms(broyden)= 0.15797E+00
  rms(prec ) = 0.25618E+00
  weight for this iteration     100.00

 eigenvalues of (default mixing * dielectric matrix)
  average eigenvalue GAMMA=   0.8881
  2.4379  1.1753  0.2095  0.5707  0.5707  0.6263  0.6263

 Free energy of the ion-electron system (eV)
  ---------------------------------------------------
  alpha Z        PSCENC =       453.10565554
  Ewald energy   TEWEN  =     -4853.25068260
  -Hartree energ DENC   =     -1379.29394485
  -exchange      EXHF   =         0.00000000
  -V(xc)+E(xc)   XCENC  =       232.17045540
  PAW double counting   =      5275.68400035    -5585.81752850
  entropy T*S    EENTRO =         0.02258517
  eigenvalues    EBANDS =      -288.58767247
  atomic energy  EATOM  =      6104.32616516
  Solvation  Ediel_sol  =         0.00000000
  ---------------------------------------------------
  free energy    TOTEN  =       -41.64096681 eV

  energy without entropy =      -41.66355198  energy(sigma->0) =      -41.64849520


--------------------------------------------------------------------------------------------------------




--------------------------------------- Iteration      1(  13)  ---------------------------------------


    POTLOK:  cpu time    0.0124: real time    0.0126
    SETDIJ:  cpu time    0.0077: real time    0.0077
     EDDAV:  cpu time    0.7689: real time    0.7708
       DOS:  cpu time    0.0018: real time    0.0018
    CHARGE:  cpu time    0.0317: real time    0.0317
    MIXING:  cpu time    0.0008: real time    0.0008
    --------------------------------------------
      LOOP:  cpu time    0.8234: real time    0.8254

 eigenvalue-minimisations  :  4468
 total energy-change (2. order) :-0.7624539E-03  (-0.1906170E-01)
 number of electron      46.0000057 magnetization       0.0000000
 augmentation part       11.6776952 magnetization       0.0000000

 Broyden mixing:
  rms(total) = 0.12997E+00    rms(broyden)= 0.12997E+00
  rms(prec ) = 0.21767E+00
  weight for this iteration     100.00

 eigenvalues of (default mixing * dielectric matrix)
  average eigenvalue GAMMA=   0.9071
  2.7175  1.1943  0.2095  0.5648  0.5648  0.7316  0.7316  0.5429

 Free energy of the ion-electron system (eV)
  ---------------------------------------------------
  alpha Z        PSCENC =       453.10565554
  Ewald energy   TEWEN  =     -4853.25068260
  -Hartree energ DENC   =     -1376.84186228
  -exchange      EXHF   =         0.00000000
  -V(xc)+E(xc)   XCENC  =       232.51841148
  PAW double counting   =      5278.64853335    -5587.84756841
  entropy T*S    EENTRO =         0.01893717
  eigenvalues    EBANDS =      -292.31931868
  atomic energy  EATOM  =      6104.32616516
  Solvation  Ediel_sol  =         0.00000000
  ---------------------------------------------------
  free energy    TOTEN  =       -41.64172926 eV

  energy without entropy =      -41.66066643  energy(sigma->0) =      -41.64804165


--------------------------------------------------------------------------------------------------------




--------------------------------------- Iteration      1(  14)  ---------------------------------------


    POTLOK:  cpu time    0.0125: real time    0.0127
    SETDIJ:  cpu time    0.0079: real time    0.0079
     EDDAV:  cpu time    0.6339: real time    0.6354
       DOS:  cpu time    0.0017: real time    0.0017
    CHARGE:  cpu time    0.0321: real time    0.0322
    MIXING:  cpu time    0.0009: real time    0.0009
    --------------------------------------------
      LOOP:  cpu time    0.6891: real time    0.6908

 eigenvalue-minimisations  :  3688
 total energy-change (2. order) : 0.2828360E-02  (-0.1942482E-02)
 number of electron      46.0000057 magnetization      -0.0000000
 augmentation part       11.7000198 magnetization      -0.0000000

 Broyden mixing:
  rms(total) = 0.11796E+00    rms(broyden)= 0.11796E+00
  rms(prec ) = 0.18815E+00
  weight for this iteration     100.00

 eigenvalues of (default mixing * dielectric matrix)
  average eigenvalue GAMMA=   0.9696
  2.8402  1.6646  0.2095  0.5646  0.5646  0.7873  0.7873  0.6541  0.6541

 Free energy of the ion-electron system (eV)
  ---------------------------------------------------
  alpha Z        PSCENC =       453.10565554
  Ewald energy   TEWEN  =     -4853.25068260
  -Hartree energ DENC   =     -1376.32920122
  -exchange      EXHF   =         0.00000000
  -V(xc)+E(xc)   XCENC  =       232.52229085
  PAW double counting   =      5280.05558017    -5588.43090954
  entropy T*S    EENTRO =         0.01984966
  eigenvalues    EBANDS =      -293.65764893
  atomic energy  EATOM  =      6104.32616516
  Solvation  Ediel_sol  =         0.00000000
  ---------------------------------------------------
  free energy    TOTEN  =       -41.63890090 eV

  energy without entropy =      -41.65875055  energy(sigma->0) =      -41.64551745


--------------------------------------------------------------------------------------------------------




--------------------------------------- Iteration      1(  15)  ---------------------------------------


    POTLOK:  cpu time    0.0127: real time    0.0128
    SETDIJ:  cpu time    0.0079: real time    0.0079
     EDDAV:  cpu time    0.7042: real time    0.7059
       DOS:  cpu time    0.0018: real time    0.0018
    CHARGE:  cpu time    0.0321: real time    0.0322
    MIXING:  cpu time    0.0009: real time    0.0009
    --------------------------------------------
      LOOP:  cpu time    0.7595: real time    0.7614

 eigenvalue-minimisations  :  4120
 total energy-change (2. order) : 0.3598334E-02  (-0.2761062E-02)
 number of electron      46.0000057 magnetization      -0.0000000
 augmentation part       11.7238535 magnetization      -0.0000000

 Broyden mixing:
  rms(total) = 0.78828E-01    rms(broyden)= 0.78820E-01
  rms(prec ) = 0.12449E+00
  weight for this iteration     100.00

 eigenvalues of (default mixing * dielectric matrix)
  average eigenvalue GAMMA=   1.0632
  2.6223  2.6223  1.1602  0.2095  0.5654  0.5654  0.8070  0.8070  0.6366  0.6366

 Free energy of the ion-electron system (eV)
  ---------------------------------------------------
  alpha Z        PSCENC =       453.10565554
  Ewald energy   TEWEN  =     -4853.25068260
  -Hartree energ DENC   =     -1376.27039054
  -exchange      EXHF   =         0.00000000
  -V(xc)+E(xc)   XCENC  =       232.41949971
  PAW double counting   =      5281.93179132    -5588.99959646
  entropy T*S    EENTRO =         0.02151938
  eigenvalues    EBANDS =      -294.91926408
  atomic energy  EATOM  =      6104.32616516
  Solvation  Ediel_sol  =         0.00000000
  ---------------------------------------------------
  free energy    TOTEN  =       -41.63530257 eV

  energy without entropy =      -41.65682195  energy(sigma->0) =      -41.64247569


--------------------------------------------------------------------------------------------------------




--------------------------------------- Iteration      1(  16)  ---------------------------------------


    POTLOK:  cpu time    0.0127: real time    0.0128
    SETDIJ:  cpu time    0.0076: real time    0.0077
     EDDAV:  cpu time    0.7055: real time    0.7071
       DOS:  cpu time    0.0018: real time    0.0018
    CHARGE:  cpu time    0.0316: real time    0.0317
    MIXING:  cpu time    0.0010: real time    0.0010
    --------------------------------------------
      LOOP:  cpu time    0.7603: real time    0.7622

 eigenvalue-minimisations  :  4100
 total energy-change (2. order) : 0.2834064E-02  (-0.1337333E-02)
 number of electron      46.0000058 magnetization       0.0000000
 augmentation part       11.6956899 magnetization       0.0000000

 Broyden mixing:
  rms(total) = 0.45078E-01    rms(broyden)= 0.45076E-01
  rms(prec ) = 0.62385E-01
  weight for this iteration     100.00

 eigenvalues of (default mixing * dielectric matrix)
  average eigenvalue GAMMA=   1.0668
  2.7421  2.3715  1.7135  0.2095  0.5651  0.5651  0.8077  0.8077  0.6775  0.6775
  0.5981

 Free energy of the ion-electron system (eV)
  ---------------------------------------------------
  alpha Z        PSCENC =       453.10565554
  Ewald energy   TEWEN  =     -4853.25068260
  -Hartree energ DENC   =     -1377.36644243
  -exchange      EXHF   =         0.00000000
  -V(xc)+E(xc)   XCENC  =       232.35519628
  PAW double counting   =      5284.21266504    -5591.15315561
  entropy T*S    EENTRO =         0.02244296
  eigenvalues    EBANDS =      -293.88431285
  atomic energy  EATOM  =      6104.32616516
  Solvation  Ediel_sol  =         0.00000000
  ---------------------------------------------------
  free energy    TOTEN  =       -41.63246850 eV

  energy without entropy =      -41.65491146  energy(sigma->0) =      -41.63994949


--------------------------------------------------------------------------------------------------------




--------------------------------------- Iteration      1(  17)  ---------------------------------------


    POTLOK:  cpu time    0.0131: real time    0.0133
    SETDIJ:  cpu time    0.0084: real time    0.0084
     EDDAV:  cpu time    0.6704: real time    0.6720
       DOS:  cpu time    0.0017: real time    0.0017
    CHARGE:  cpu time    0.0309: real time    0.0310
    MIXING:  cpu time    0.0010: real time    0.0010
    --------------------------------------------
      LOOP:  cpu time    0.7256: real time    0.7274

 eigenvalue-minimisations  :  3888
 total energy-change (2. order) : 0.1031202E-02  (-0.3187316E-03)
 number of electron      46.0000057 magnetization       0.0000000
 augmentation part       11.6822394 magnetization       0.0000000

 Broyden mixing:
  rms(total) = 0.30471E-01    rms(broyden)= 0.30470E-01
  rms(prec ) = 0.40524E-01
  weight for this iteration     100.00

 eigenvalues of (default mixing * dielectric matrix)
  average eigenvalue GAMMA=   1.0803
  2.4887  2.3260  2.3260  0.2095  0.5653  0.5653  0.9166  0.9166  0.7064  0.7064
  0.6186  0.6186

 Free energy of the ion-electron system (eV)
  ---------------------------------------------------
  alpha Z        PSCENC =       453.10565554
  Ewald energy   TEWEN  =     -4853.25068260
  -Hartree energ DENC   =     -1377.72635032
  -exchange      EXHF   =         0.00000000
  -V(xc)+E(xc)   XCENC  =       232.32906248
  PAW double counting   =      5284.55850102    -5591.88763609
  entropy T*S    EENTRO =         0.02199904
  eigenvalues    EBANDS =      -293.10815153
  atomic energy  EATOM  =      6104.32616516
  Solvation  Ediel_sol  =         0.00000000
  ---------------------------------------------------
  free energy    TOTEN  =       -41.63143730 eV

  energy without entropy =      -41.65343634  energy(sigma->0) =      -41.63877031


--------------------------------------------------------------------------------------------------------




--------------------------------------- Iteration      1(  18)  ---------------------------------------


    POTLOK:  cpu time    0.0125: real time    0.0126
    SETDIJ:  cpu time    0.0078: real time    0.0078
     EDDAV:  cpu time    0.7160: real time    0.7177
       DOS:  cpu time    0.0017: real time    0.0017
    CHARGE:  cpu time    0.0303: real time    0.0303
    MIXING:  cpu time    0.0011: real time    0.0011
    --------------------------------------------
      LOOP:  cpu time    0.7695: real time    0.7714

 eigenvalue-minimisations  :  4204
 total energy-change (2. order) : 0.1222157E-03  (-0.8872603E-04)
 number of electron      46.0000057 magnetization       0.0000000
 augmentation part       11.6759584 magnetization       0.0000000

 Broyden mixing:
  rms(total) = 0.18031E-01    rms(broyden)= 0.18030E-01
  rms(prec ) = 0.24284E-01
  weight for this iteration     100.00

 eigenvalues of (default mixing * dielectric matrix)
  average eigenvalue GAMMA=   1.0830
  2.5541  2.4031  2.4031  0.2095  0.5653  0.5653  0.9478  0.9478  0.7827  0.7827
  0.6439  0.6439  0.6291

 Free energy of the ion-electron system (eV)
  ---------------------------------------------------
  alpha Z        PSCENC =       453.10565554
  Ewald energy   TEWEN  =     -4853.25068260
  -Hartree energ DENC   =     -1377.83851041
  -exchange      EXHF   =         0.00000000
  -V(xc)+E(xc)   XCENC  =       232.28930606
  PAW double counting   =      5284.13192179    -5591.64465041
  entropy T*S    EENTRO =         0.02194463
  eigenvalues    EBANDS =      -292.77246485
  atomic energy  EATOM  =      6104.32616516
  Solvation  Ediel_sol  =         0.00000000
  ---------------------------------------------------
  free energy    TOTEN  =       -41.63131508 eV

  energy without entropy =      -41.65325971  energy(sigma->0) =      -41.63862996


--------------------------------------------------------------------------------------------------------




--------------------------------------- Iteration      1(  19)  ---------------------------------------


    POTLOK:  cpu time    0.0124: real time    0.0125
    SETDIJ:  cpu time    0.0075: real time    0.0075
     EDDAV:  cpu time    0.6824: real time    0.6840
       DOS:  cpu time    0.0016: real time    0.0016
    CHARGE:  cpu time    0.0304: real time    0.0305
    MIXING:  cpu time    0.0011: real time    0.0011
    --------------------------------------------
      LOOP:  cpu time    0.7353: real time    0.7372

 eigenvalue-minimisations  :  4064
 total energy-change (2. order) : 0.5964637E-04  (-0.3227682E-04)
 number of electron      46.0000057 magnetization       0.0000000
 augmentation part       11.6729431 magnetization       0.0000000

 Broyden mixing:
  rms(total) = 0.94441E-02    rms(broyden)= 0.94439E-02
  rms(prec ) = 0.13537E-01
  weight for this iteration     100.00

 eigenvalues of (default mixing * dielectric matrix)
  average eigenvalue GAMMA=   1.1366
  2.6864  2.6864  2.2492  1.5295  0.2095  0.5653  0.5653  0.8677  0.8677  0.9399
  0.7560  0.7560  0.6166  0.6166

 Free energy of the ion-electron system (eV)
  ---------------------------------------------------
  alpha Z        PSCENC =       453.10565554
  Ewald energy   TEWEN  =     -4853.25068260
  -Hartree energ DENC   =     -1377.84621401
  -exchange      EXHF   =         0.00000000
  -V(xc)+E(xc)   XCENC  =       232.25952387
  PAW double counting   =      5283.84699733    -5591.45027455
  entropy T*S    EENTRO =         0.02189681
  eigenvalues    EBANDS =      -292.64432299
  atomic energy  EATOM  =      6104.32616516
  Solvation  Ediel_sol  =         0.00000000
  ---------------------------------------------------
  free energy    TOTEN  =       -41.63125544 eV

  energy without entropy =      -41.65315224  energy(sigma->0) =      -41.63855437


--------------------------------------------------------------------------------------------------------




--------------------------------------- Iteration      1(  20)  ---------------------------------------


    POTLOK:  cpu time    0.0125: real time    0.0126
    SETDIJ:  cpu time    0.0076: real time    0.0077
     EDDAV:  cpu time    0.6813: real time    0.6829
       DOS:  cpu time    0.0017: real time    0.0017
    CHARGE:  cpu time    0.0295: real time    0.0296
    MIXING:  cpu time    0.0012: real time    0.0012
    --------------------------------------------
      LOOP:  cpu time    0.7338: real time    0.7356

 eigenvalue-minimisations  :  3976
 total energy-change (2. order) : 0.5038471E-04  (-0.5342003E-04)
 number of electron      46.0000057 magnetization      -0.0000000
 augmentation part       11.6676012 magnetization      -0.0000000

 Broyden mixing:
  rms(total) = 0.45310E-02    rms(broyden)= 0.45306E-02
  rms(prec ) = 0.56693E-02
  weight for this iteration     100.00

 eigenvalues of (default mixing * dielectric matrix)
  average eigenvalue GAMMA=   1.2072
  3.0059  3.0059  2.2822  2.2822  0.2095  0.5653  0.5653  0.9726  0.9726  0.8299
  0.8299  0.6875  0.6875  0.6059  0.6059

 Free energy of the ion-electron system (eV)
  ---------------------------------------------------
  alpha Z        PSCENC =       453.10565554
  Ewald energy   TEWEN  =     -4853.25068260
  -Hartree energ DENC   =     -1377.93112084
  -exchange      EXHF   =         0.00000000
  -V(xc)+E(xc)   XCENC  =       232.21806363
  PAW double counting   =      5283.55917697    -5591.28254249
  entropy T*S    EENTRO =         0.02176714
  eigenvalues    EBANDS =      -292.39768756
  atomic energy  EATOM  =      6104.32616516
  Solvation  Ediel_sol  =         0.00000000
  ---------------------------------------------------
  free energy    TOTEN  =       -41.63120505 eV

  energy without entropy =      -41.65297219  energy(sigma->0) =      -41.63846077


--------------------------------------------------------------------------------------------------------




--------------------------------------- Iteration      1(  21)  ---------------------------------------


    POTLOK:  cpu time    0.0119: real time    0.0120
    SETDIJ:  cpu time    0.0078: real time    0.0078
     EDDAV:  cpu time    0.6673: real time    0.6689
       DOS:  cpu time    0.0017: real time    0.0017
    CHARGE:  cpu time    0.0297: real time    0.0297
    MIXING:  cpu time    0.0012: real time    0.0012
    --------------------------------------------
      LOOP:  cpu time    0.7197: real time    0.7215

 eigenvalue-minimisations  :  3840
 total energy-change (2. order) :-0.3708201E-06  (-0.6369737E-05)
 number of electron      46.0000057 magnetization       0.0000000
 augmentation part       11.6668034 magnetization       0.0000000

 Broyden mixing:
  rms(total) = 0.42096E-02    rms(broyden)= 0.42095E-02
  rms(prec ) = 0.48966E-02
  weight for this iteration     100.00

 eigenvalues of (default mixing * dielectric matrix)
  average eigenvalue GAMMA=   1.2310
  3.0246  3.0246  2.5727  2.5727  1.0996  1.0996  0.2095  0.5653  0.5653  0.8453
  0.8453  0.7154  0.7154  0.6327  0.6042  0.6042

 Free energy of the ion-electron system (eV)
  ---------------------------------------------------
  alpha Z        PSCENC =       453.10565554
  Ewald energy   TEWEN  =     -4853.25068260
  -Hartree energ DENC   =     -1377.98354274
  -exchange      EXHF   =         0.00000000
  -V(xc)+E(xc)   XCENC  =       232.22000184
  PAW double counting   =      5283.57763759    -5591.31416221
  entropy T*S    EENTRO =         0.02172964
  eigenvalues    EBANDS =      -292.33400765
  atomic energy  EATOM  =      6104.32616516
  Solvation  Ediel_sol  =         0.00000000
  ---------------------------------------------------
  free energy    TOTEN  =       -41.63120542 eV

  energy without entropy =      -41.65293506  energy(sigma->0) =      -41.63844864


--------------------------------------------------------------------------------------------------------




--------------------------------------- Iteration      1(  22)  ---------------------------------------


    POTLOK:  cpu time    0.0122: real time    0.0123
    SETDIJ:  cpu time    0.0076: real time    0.0077
     EDDAV:  cpu time    0.6734: real time    0.6750
       DOS:  cpu time    0.0017: real time    0.0017
    CHARGE:  cpu time    0.0306: real time    0.0306
    MIXING:  cpu time    0.0013: real time    0.0013
    --------------------------------------------
      LOOP:  cpu time    0.7268: real time    0.7286

 eigenvalue-minimisations  :  3792
 total energy-change (2. order) :-0.8202433E-06  (-0.2618649E-05)
 number of electron      46.0000057 magnetization       0.0000000
 augmentation part       11.6660611 magnetization       0.0000000

 Broyden mixing:
  rms(total) = 0.24282E-02    rms(broyden)= 0.24280E-02
  rms(prec ) = 0.28615E-02
  weight for this iteration     100.00

 eigenvalues of (default mixing * dielectric matrix)
  average eigenvalue GAMMA=   1.2128
  2.8860  2.8860  2.9499  2.4112  1.1664  1.1664  0.2095  0.5653  0.5653  0.8703
  0.8703  0.7679  0.7679  0.6718  0.6718  0.5953  0.5953

 Free energy of the ion-electron system (eV)
  ---------------------------------------------------
  alpha Z        PSCENC =       453.10565554
  Ewald energy   TEWEN  =     -4853.25068260
  -Hartree energ DENC   =     -1378.03694251
  -exchange      EXHF   =         0.00000000
  -V(xc)+E(xc)   XCENC  =       232.22793476
  PAW double counting   =      5283.58803276    -5591.34609580
  entropy T*S    EENTRO =         0.02172099
  eigenvalues    EBANDS =      -292.26699455
  atomic energy  EATOM  =      6104.32616516
  Solvation  Ediel_sol  =         0.00000000
  ---------------------------------------------------
  free energy    TOTEN  =       -41.63120624 eV

  energy without entropy =      -41.65292723  energy(sigma->0) =      -41.63844657


--------------------------------------------------------------------------------------------------------




--------------------------------------- Iteration      1(  23)  ---------------------------------------


    POTLOK:  cpu time    0.0120: real time    0.0121
    SETDIJ:  cpu time    0.0073: real time    0.0073
     EDDAV:  cpu time    0.4827: real time    0.4838
       DOS:  cpu time    0.0018: real time    0.0018
    CHARGE:  cpu time    0.0309: real time    0.0310
    MIXING:  cpu time    0.0015: real time    0.0015
    --------------------------------------------
      LOOP:  cpu time    0.5361: real time    0.5375

 eigenvalue-minimisations  :  2564
 total energy-change (2. order) :-0.1760780E-05  (-0.4907500E-06)
 number of electron      46.0000057 magnetization       0.0000000
 augmentation part       11.6665715 magnetization       0.0000000

 Broyden mixing:
  rms(total) = 0.84446E-03    rms(broyden)= 0.84445E-03
  rms(prec ) = 0.11806E-02
  weight for this iteration     100.00

 eigenvalues of (default mixing * dielectric matrix)
  average eigenvalue GAMMA=   1.1916
  3.0871  2.8829  2.8829  1.9718  1.2775  1.2775  0.2095  0.5653  0.5653  0.9382
  0.9382  0.8312  0.8312  0.6920  0.6920  0.6167  0.5946  0.5946

 Free energy of the ion-electron system (eV)
  ---------------------------------------------------
  alpha Z        PSCENC =       453.10565554
  Ewald energy   TEWEN  =     -4853.25068260
  -Hartree energ DENC   =     -1378.03318252
  -exchange      EXHF   =         0.00000000
  -V(xc)+E(xc)   XCENC  =       232.23312654
  PAW double counting   =      5283.61382931    -5591.36920089
  entropy T*S    EENTRO =         0.02173353
  eigenvalues    EBANDS =      -292.27865208
  atomic energy  EATOM  =      6104.32616516
  Solvation  Ediel_sol  =         0.00000000
  ---------------------------------------------------
  free energy    TOTEN  =       -41.63120800 eV

  energy without entropy =      -41.65294154  energy(sigma->0) =      -41.63845252


--------------------------------------------------------------------------------------------------------




--------------------------------------- Iteration      1(  24)  ---------------------------------------


    POTLOK:  cpu time    0.0127: real time    0.0129
    SETDIJ:  cpu time    0.0079: real time    0.0079
     EDDAV:  cpu time    0.3551: real time    0.3560
       DOS:  cpu time    0.0017: real time    0.0017
    --------------------------------------------
      LOOP:  cpu time    0.3774: real time    0.3785

 eigenvalue-minimisations  :  1620
 total energy-change (2. order) : 0.1156786E-07  (-0.5399273E-07)
 number of electron      46.0000057 magnetization       0.0000000
 augmentation part       11.6665715 magnetization       0.0000000

 Free energy of the ion-electron system (eV)
  ---------------------------------------------------
  alpha Z        PSCENC =       453.10565554
  Ewald energy   TEWEN  =     -4853.25068260
  -Hartree energ DENC   =     -1378.02612222
  -exchange      EXHF   =         0.00000000
  -V(xc)+E(xc)   XCENC  =       232.23350055
  PAW double counting   =      5283.61498197    -5591.37117725
  entropy T*S    EENTRO =         0.02174268
  eigenvalues    EBANDS =      -292.28527182
  atomic energy  EATOM  =      6104.32616516
  Solvation  Ediel_sol  =         0.00000000
  ---------------------------------------------------
  free energy    TOTEN  =       -41.63120799 eV

  energy without entropy =      -41.65295067  energy(sigma->0) =      -41.63845555


--------------------------------------------------------------------------------------------------------




 average (electrostatic) potential at core
  the test charge radii are     1.1829  0.7215
  (the norm of the test charge is              1.0000)
       1 -37.4185       2 -37.4185       3 -71.1897       4 -71.1897
 
 
 
 E-fermi :   4.8288     XC(G=0): -11.0340     alpha+bet :-12.2018


 spin component 1

 k-point     1 :       0.0000    0.0000    0.0000
  band No.  band energies     occupation 
      1     -36.2782      1.00000
      2     -33.2174      1.00000
      3     -15.3140      1.00000
      4     -14.9408      1.00000
      5     -14.9407      1.00000
      6     -13.8708      1.00000
      7     -13.8263      1.00000
      8     -12.8812      1.00000
      9     -12.6498      1.00000
     10     -12.6498      1.00000
     11       1.0315      1.00000
     12       1.0832      1.00000
     13       1.0832      1.00000
     14       1.1719      1.00000
     15       1.2083      1.00000
     16       1.2083      1.00000
     17       4.0929      1.00000
     18       4.4719      1.00000
     19       4.6059      1.00356
     20       4.6955      1.03391
     21       4.6956      1.03391
     22       4.8347      0.45042
     23       4.9015      0.03125
     24       4.9015      0.03115
     25       5.3367     -0.00000
     26       7.2088     -0.00000
     27       7.2091     -0.00000
     28       7.3112     -0.00000

 k-point     2 :       0.2500   -0.0000    0.0000
  band No.  band energies     occupation 
      1     -36.2588      1.00000
      2     -33.1940      1.00000
      3     -15.7579      1.00000
      4     -15.2295      1.00000
      5     -14.8848      1.00000
      6     -14.6424      1.00000
      7     -13.0312      1.00000
      8     -12.9174      1.00000
      9     -12.5945      1.00000
     10     -11.9407      1.00000
     11       0.0897      1.00000
     12       0.3058      1.00000
     13       0.5501      1.00000
     14       0.6632      1.00000
     15       0.9248      1.00000
     16       1.0765      1.00000
     17       4.4266      1.00000
     18       4.4567      1.00000
     19       4.5644      1.00059
     20       4.6861      1.03074
     21       4.7031      1.03530
     22       4.7373      1.01402
     23       4.7747      0.89191
     24       5.9051     -0.00000
     25       6.7744     -0.00000
     26       6.9211     -0.00000
     27       7.6927      0.00000
     28       8.4718      0.00000

 k-point     3 :       0.5000   -0.0000    0.0000
  band No.  band energies     occupation 
      1     -36.2391      1.00000
      2     -33.1705      1.00000
      3     -16.2529      1.00000
      4     -15.1396      1.00000
      5     -15.1353      1.00000
      6     -14.8276      1.00000
      7     -12.9591      1.00000
      8     -12.5455      1.00000
      9     -12.5381      1.00000
     10     -11.5065      1.00000
     11      -0.5931      1.00000
     12      -0.4556      1.00000
     13       0.1156      1.00000
     14       0.1381      1.00000
     15       0.8063      1.00000
     16       0.9667      1.00000
     17       4.4216      1.00000
     18       4.4454      1.00000
     19       4.5287      1.00009
     20       4.6175      1.00544
     21       4.6687      1.02299
     22       4.7105      1.03517
     23       4.7575      0.96455
     24       6.7731     -0.00000
     25       7.8585      0.00000
     26       7.9359      0.00000
     27       8.3349      0.00000
     28       8.5509      0.00000

 k-point     4 :       0.0000    0.2500    0.0000
  band No.  band energies     occupation 
      1     -36.2588      1.00000
      2     -33.1940      1.00000
      3     -15.7579      1.00000
      4     -15.2295      1.00000
      5     -14.8848      1.00000
      6     -14.6424      1.00000
      7     -13.0311      1.00000
      8     -12.9174      1.00000
      9     -12.5944      1.00000
     10     -11.9406      1.00000
     11       0.0897      1.00000
     12       0.3058      1.00000
     13       0.5502      1.00000
     14       0.6632      1.00000
     15       0.9248      1.00000
     16       1.0765      1.00000
     17       4.4266      1.00000
     18       4.4567      1.00000
     19       4.5644      1.00059
     20       4.6861      1.03074
     21       4.7031      1.03530
     22       4.7373      1.01401
     23       4.7747      0.89183
     24       5.9050     -0.00000
     25       6.7744     -0.00000
     26       6.9211     -0.00000
     27       7.6929      0.00000
     28       8.4717      0.00000

 k-point     5 :       0.2500    0.2500    0.0000
  band No.  band energies     occupation 
      1     -36.2404      1.00000
      2     -33.1713      1.00000
      3     -15.7267      1.00000
      4     -15.2108      1.00000
      5     -15.1688      1.00000
      6     -14.6308      1.00000
      7     -12.9996      1.00000
      8     -12.9509      1.00000
      9     -12.9149      1.00000
     10     -11.8946      1.00000
     11      -0.1582      1.00000
     12       0.0288      1.00000
     13       0.9294      1.00000
     14       0.9317      1.00000
     15       1.0964      1.00000
     16       1.1040      1.00000
     17       4.4255      1.00000
     18       4.4640      1.00000
     19       4.5415      1.00019
     20       4.5909      1.00195
     21       4.6834      1.02965
     22       4.7580      0.96288
     23       4.7829      0.84701
     24       5.4548     -0.00000
     25       7.0495     -0.00000
[...]
 -4.022  -0.355  -0.000   0.000   0.000   0.000  -0.000  -0.000
  0.000  -0.000 -15.669  -0.005   0.007   7.376   0.005  -0.006
 -0.000   0.000  -0.005 -15.665  -0.009   0.005   7.373   0.008
 -0.000   0.000   0.007  -0.009 -15.662  -0.006   0.008   7.369
  0.000   0.000   7.376   0.005  -0.006   4.937  -0.004   0.005
 -0.000  -0.000   0.005   7.373   0.008  -0.004   4.940  -0.007
 -0.000  -0.000  -0.006   0.008   7.369   0.005  -0.007   4.943
  0.005  -0.001  -0.000   0.000   0.000  -0.000   0.000   0.000
 -0.004   0.000  -0.000   0.000   0.000  -0.000   0.000   0.000
  0.000  -0.000  -0.000  -0.000   0.000  -0.000  -0.000   0.000
 -0.007   0.001   0.000  -0.000  -0.000   0.000  -0.000  -0.000
  0.003  -0.000  -0.000  -0.000  -0.000  -0.000  -0.000  -0.000
 -0.008   0.001  -0.000   0.000   0.000   0.000  -0.000  -0.000
  0.007  -0.001  -0.000   0.000   0.000   0.000  -0.000  -0.000
 -0.000   0.000   0.000   0.000  -0.000   0.000   0.000  -0.000
  0.012  -0.001   0.000  -0.000  -0.000  -0.000   0.000   0.000
 -0.005   0.001   0.000  -0.000  -0.000   0.000   0.000   0.000
 -0.000   0.000   0.001  -0.003   0.001  -0.001  -0.001  -0.002
 -0.000   0.000  -0.002   0.001  -0.005   0.002  -0.001  -0.000
 -0.000   0.000   0.002  -0.001  -0.001   0.000   0.001   0.000
 -0.000   0.000   0.001  -0.003   0.001  -0.001  -0.001  -0.001
  0.000  -0.000  -0.001  -0.002   0.001   0.000   0.002   0.001
  0.000  -0.000  -0.003   0.001  -0.002  -0.002  -0.001   0.002
  0.000  -0.000  -0.002  -0.000   0.001   0.001  -0.000  -0.001
 -0.000   0.000   0.001  -0.003   0.001  -0.001  -0.001  -0.002
 -0.000   0.000  -0.002   0.001  -0.005   0.002  -0.001  -0.000
 -0.000   0.000   0.002  -0.001  -0.001   0.000   0.001   0.000
 -0.000   0.000   0.001  -0.003   0.001  -0.001  -0.001  -0.001
  0.000  -0.000  -0.001  -0.002   0.001   0.000   0.002   0.001
  0.000  -0.000  -0.003   0.001  -0.002  -0.002  -0.001   0.002
  0.000  -0.000  -0.002  -0.000   0.001   0.001  -0.000  -0.001
 pseudopotential strength for first ion, spin component:           2
-15.724   0.725   0.000  -0.000  -0.000   0.000  -0.000  -0.000
  0.725  -3.405  -0.000   0.000   0.000   0.000  -0.000  -0.000
  0.000  -0.000 -17.548  -0.005   0.006   7.758   0.006  -0.007
 -0.000   0.000  -0.005 -17.545  -0.008   0.006   7.754   0.010
 -0.000   0.000   0.006  -0.008 -17.542  -0.007   0.010   7.750
  0.000   0.000   7.758   0.006  -0.007   5.167  -0.006   0.007
 -0.000  -0.000   0.006   7.754   0.010  -0.006   5.171  -0.010
 -0.000  -0.000  -0.007   0.010   7.750   0.007  -0.010   5.175
  0.004   0.000  -0.000   0.000   0.000  -0.000   0.000   0.000
 -0.003  -0.000  -0.000   0.000   0.000  -0.000   0.000   0.000
  0.000  -0.000  -0.000  -0.000   0.000  -0.000  -0.000   0.000
 -0.005  -0.000   0.000  -0.000  -0.000   0.000  -0.000  -0.000
  0.002   0.000  -0.000  -0.000  -0.000  -0.000  -0.000  -0.000
 -0.007  -0.000  -0.000   0.000   0.000   0.000  -0.000  -0.000
  0.005   0.000  -0.000   0.000   0.000   0.000  -0.000  -0.000
 -0.000   0.000   0.000   0.000  -0.000   0.000   0.000  -0.000
  0.009   0.001   0.000  -0.000  -0.000  -0.000   0.000   0.000
 -0.004  -0.000   0.000  -0.000  -0.000   0.000   0.000   0.000
 -0.000   0.000   0.002  -0.019   0.003  -0.002   0.010  -0.003
 -0.000   0.000  -0.003   0.004  -0.025   0.003  -0.003   0.014
 -0.000   0.000   0.010  -0.002   0.001  -0.006   0.002   0.000
 -0.000   0.000   0.002  -0.017   0.003  -0.002   0.009  -0.003
  0.000  -0.000   0.001  -0.003   0.011   0.000   0.004  -0.005
  0.000  -0.000  -0.022   0.002  -0.003   0.010  -0.002   0.003
  0.000  -0.000  -0.001  -0.000   0.001   0.002   0.000  -0.001
 -0.000   0.000   0.002  -0.018   0.003  -0.002   0.010  -0.003
 -0.000   0.000  -0.003   0.004  -0.024   0.003  -0.003   0.014
 -0.000   0.000   0.010  -0.002   0.001  -0.005   0.002   0.000
 -0.000   0.000   0.002  -0.016   0.003  -0.002   0.009  -0.003
  0.000  -0.000   0.001  -0.003   0.010   0.000   0.004  -0.005
  0.000  -0.000  -0.021   0.002  -0.003   0.010  -0.002   0.003
  0.000  -0.000  -0.001  -0.000   0.001   0.002   0.000  -0.001
 total augmentation occupancy for first ion, spin component:           1
  1.992  -0.038  -0.000   0.000   0.000   0.000   0.000   0.000  -0.000   0.000   0.000   0.000  -0.000   0.001  -0.000   0.000
 -0.038   0.600   0.000   0.000  -0.000   0.000   0.000  -0.000  -0.000   0.000  -0.000   0.001  -0.000  -0.000   0.000  -0.000
  0.000  -0.000   2.012  -0.000   0.000  -0.020  -0.000   0.001  -0.000   0.000   0.000   0.000   0.000  -0.000   0.000   0.000
  0.000   0.000  -0.000   2.012  -0.000  -0.000  -0.019  -0.001   0.000   0.000   0.000   0.000   0.000   0.000   0.000   0.000
  0.000   0.000   0.000  -0.000   2.013   0.001  -0.001  -0.019   0.000  -0.000  -0.000  -0.000   0.000   0.000   0.000   0.000
  0.000   0.000  -0.020  -0.000   0.001   0.020   0.000  -0.000   0.000   0.000   0.000   0.000  -0.000  -0.000   0.000  -0.000
 -0.000   0.000  -0.000  -0.019  -0.001   0.000   0.020   0.000   0.000  -0.000   0.000   0.000  -0.000  -0.000   0.000   0.000
  0.000   0.000   0.001  -0.001  -0.019  -0.000   0.000   0.020   0.000   0.000   0.000   0.000  -0.000   0.000   0.000   0.000
 -0.000  -0.000   0.000   0.000   0.000   0.000  -0.000  -0.000   0.234   0.006   0.013  -0.078   0.007   0.064   0.001   0.002
  0.000   0.000   0.000   0.000   0.000   0.000   0.000   0.000   0.006   0.285   0.005   0.003  -0.084   0.001   0.084   0.001
  0.000  -0.000   0.000   0.000   0.000   0.000   0.000   0.000   0.013   0.005   0.172   0.009   0.007   0.002   0.001   0.041
  0.000   0.001   0.000   0.000   0.000  -0.000  -0.000   0.000  -0.078   0.003   0.009   0.289   0.006  -0.030   0.001   0.002
 -0.000  -0.000   0.000   0.000   0.000   0.000   0.000  -0.000   0.007  -0.084   0.007   0.006   0.226   0.001  -0.031   0.001
  0.001  -0.000  -0.000   0.000   0.000  -0.000  -0.000   0.000   0.064   0.001   0.002  -0.030   0.001   0.018   0.000   0.000
 -0.000   0.000   0.000   0.000   0.000   0.000   0.000   0.000   0.001   0.084   0.001   0.001  -0.031   0.000   0.026   0.000
  0.000  -0.000   0.000   0.000   0.000  -0.000   0.000  -0.000   0.002   0.001   0.041   0.002   0.001   0.000   0.000   0.011
 -0.001   0.000   0.000   0.000   0.000   0.000  -0.000   0.000  -0.030   0.001   0.002   0.085   0.001  -0.011   0.000   0.000
  0.000  -0.000   0.000   0.000   0.000   0.000  -0.000   0.000   0.001  -0.031   0.001   0.001   0.062   0.000  -0.011   0.000
  0.000   0.000   0.001  -0.118   0.001  -0.000   0.081  -0.000   0.000   0.000   0.000   0.000   0.000   0.000   0.000   0.000
  0.000  -0.000  -0.001   0.002  -0.145  -0.000  -0.001   0.099   0.000  -0.000   0.000   0.000   0.000  -0.000   0.000   0.000
 -0.000   0.000   0.064  -0.000   0.001  -0.044  -0.000  -0.001   0.000   0.000   0.000   0.000   0.000   0.000   0.000   0.000
  0.000  -0.000   0.001  -0.106   0.001  -0.000   0.072  -0.000   0.000   0.000   0.000   0.000   0.000   0.000   0.000   0.000
  0.000   0.000   0.001  -0.001   0.065  -0.001  -0.001  -0.045   0.000  -0.000   0.000   0.000   0.000   0.000   0.000   0.000
  0.000   0.000  -0.144   0.001  -0.001   0.099  -0.000  -0.000   0.000  -0.000  -0.000  -0.000  -0.000  -0.000   0.000   0.000
  0.000   0.000   0.000  -0.000  -0.000  -0.001   0.000   0.001   0.000  -0.000   0.000  -0.000   0.000   0.000   0.000  -0.000
  0.000   0.000  -0.001   0.121  -0.002   0.000  -0.075   0.000  -0.000   0.000  -0.000   0.000   0.000   0.000   0.000  -0.000
  0.000   0.000   0.002  -0.002   0.149  -0.000   0.001  -0.092   0.000   0.000   0.000  -0.000   0.000   0.000  -0.000  -0.000
 -0.000   0.000  -0.066   0.001  -0.001   0.041   0.000   0.000   0.000   0.000  -0.000   0.000   0.000   0.000  -0.000   0.000
  0.000   0.000  -0.001   0.108  -0.002   0.000  -0.067   0.000   0.000   0.000   0.000   0.000   0.000   0.000  -0.000   0.000
 -0.000   0.000  -0.001   0.001  -0.067   0.000   0.000   0.041   0.000  -0.000  -0.000   0.000   0.000   0.000   0.000  -0.000
  0.000   0.000   0.147  -0.001   0.002  -0.092   0.000  -0.000   0.000   0.000  -0.000   0.000   0.000  -0.000  -0.000   0.000
  0.000   0.000   0.000   0.000  -0.000   0.000  -0.000  -0.000   0.000  -0.000   0.000  -0.000   0.000  -0.000   0.000  -0.000
 total augmentation occupancy for first ion, spin component:           2
 -0.042  -0.159   0.000   0.000   0.000  -0.000   0.000   0.000   0.000  -0.000   0.000  -0.001   0.000   0.000  -0.000   0.000
 -0.159   0.125   0.000   0.000  -0.000  -0.000   0.000  -0.000  -0.002   0.001  -0.000   0.002  -0.001  -0.001   0.000  -0.000
  0.000   0.000  -0.008   0.000  -0.000  -0.044   0.000  -0.000   0.000   0.000   0.000   0.000   0.000   0.000   0.000   0.000
  0.000   0.000   0.000  -0.008   0.000   0.000  -0.044   0.000  -0.000   0.000  -0.000   0.000   0.000   0.000  -0.000   0.000
  0.000   0.000  -0.000   0.000  -0.008  -0.000   0.000  -0.044   0.000   0.000  -0.000   0.000  -0.000   0.000   0.000   0.000
  0.000  -0.000  -0.044   0.000  -0.000   0.003   0.000  -0.000   0.000   0.000  -0.000   0.000  -0.000   0.000  -0.000   0.000
  0.000   0.000   0.000  -0.044   0.000   0.000   0.003   0.000   0.000   0.000   0.000   0.000   0.000  -0.000   0.000   0.000
  0.000   0.000  -0.000   0.000  -0.044  -0.000   0.000   0.003   0.000   0.000   0.000   0.000   0.000   0.000   0.000  -0.000
  0.000  -0.002   0.000   0.000   0.000  -0.000   0.000   0.000   0.045   0.009   0.021   0.002   0.012   0.011   0.002   0.004
 -0.000   0.001   0.000   0.000   0.000   0.000   0.000   0.000   0.009   0.038   0.009   0.005  -0.009   0.002   0.011   0.002
  0.000  -0.000   0.000   0.000   0.000   0.000   0.000   0.000   0.021   0.009   0.036   0.015   0.012   0.004   0.002   0.008
 -0.001   0.002   0.000   0.000   0.000   0.000   0.000  -0.000   0.002   0.005   0.015   0.044   0.009  -0.001   0.001   0.003
  0.000  -0.001  -0.000   0.000   0.000   0.000   0.000   0.000   0.012  -0.009   0.012   0.009   0.032   0.002  -0.003   0.002
  0.000  -0.001   0.000   0.000   0.000   0.000  -0.000   0.000   0.011   0.002   0.004  -0.001   0.002   0.003   0.000   0.001
 -0.000   0.000   0.000  -0.000   0.000   0.000   0.000   0.000   0.002   0.011   0.002   0.001  -0.003   0.000   0.003   0.000
  0.000  -0.000   0.000   0.000   0.000  -0.000   0.000   0.000   0.004   0.002   0.008   0.003   0.002   0.001   0.000   0.002
 -0.000   0.001   0.000   0.000   0.000   0.000   0.000  -0.000  -0.001   0.001   0.003   0.012   0.002  -0.001   0.000   0.000
  0.000  -0.000   0.000   0.000   0.000   0.000   0.000  -0.000   0.002  -0.003   0.002   0.002   0.009   0.000  -0.001   0.000
  0.000  -0.000  -0.000  -0.010  -0.000  -0.000   0.022  -0.000   0.000   0.000  -0.000   0.000   0.000  -0.000   0.000   0.000
  0.000   0.000  -0.001  -0.001  -0.013  -0.001  -0.001   0.026   0.000   0.000   0.000  -0.000  -0.000   0.000   0.000   0.000
 -0.000   0.000   0.007  -0.001  -0.002  -0.011  -0.001  -0.002   0.000   0.000   0.000   0.000   0.000   0.000   0.000   0.000
  0.000  -0.000  -0.000  -0.009  -0.000  -0.000   0.019  -0.000   0.000  -0.000  -0.000   0.000  -0.000  -0.000   0.000   0.000
  0.000   0.000  -0.002  -0.003   0.005  -0.002  -0.002  -0.013   0.000   0.000   0.000   0.000  -0.000   0.000   0.000   0.000
  0.000  -0.000  -0.012  -0.001  -0.001   0.027  -0.001  -0.001  -0.000   0.000   0.000  -0.000   0.000   0.000  -0.000   0.000
  0.000   0.000  -0.003  -0.000   0.002  -0.003   0.000   0.002   0.000  -0.000  -0.000   0.000  -0.000  -0.000   0.000   0.000
  0.000  -0.000   0.000  -0.003   0.000   0.000  -0.009   0.000   0.000   0.000   0.000  -0.000   0.000  -0.000  -0.000   0.000
  0.000   0.000   0.001   0.002  -0.003   0.001   0.001  -0.011  -0.000   0.000   0.000  -0.000   0.000  -0.000   0.000   0.000
 -0.000   0.000   0.000   0.001   0.002   0.004   0.001   0.002   0.000  -0.000   0.000  -0.000   0.000  -0.000   0.000  -0.000
  0.000   0.000   0.000  -0.003   0.000   0.000  -0.008   0.000  -0.000  -0.000  -0.000   0.000   0.000   0.000  -0.000  -0.000
  0.000   0.000   0.002   0.003   0.003   0.002   0.002   0.006   0.000   0.000  -0.000   0.000   0.000   0.000   0.000  -0.000
  0.000   0.000  -0.004   0.001   0.001  -0.011   0.001   0.001   0.000  -0.000   0.000   0.000   0.000  -0.000   0.000   0.000
  0.000  -0.000   0.003  -0.000  -0.002   0.003  -0.000  -0.001   0.000   0.000  -0.000   0.000   0.000  -0.000   0.000   0.000


------------------------ aborting loop because EDIFF is reached ----------------------------------------


 


 total charge     
 
# of ion       s       p       d       f       tot
--------------------------------------------------
    1        2.082   5.888   0.615   6.722  15.307
    2        2.082   5.888   0.615   6.722  15.307
    3        1.557   3.407   0.000   0.000   4.964
    4        1.557   3.407   0.000   0.000   4.964
--------------------------------------------------
tot          7.279  18.589   1.230  13.443  40.542

 


 magnetization (x)
 
# of ion       s       p       d       f       tot
--------------------------------------------------
    1       -0.007  -0.012   0.103   6.614   6.699
    2        0.007   0.012  -0.103  -6.614  -6.699
    3        0.002   0.037   0.000   0.000   0.039
    4       -0.002  -0.037   0.000   0.000  -0.039
--------------------------------------------------
tot          0.000  -0.000   0.000   0.000   0.000

 
    CHARGE:  cpu time    0.0304: real time    0.0304
    FORLOC:  cpu time    0.0006: real time    0.0006
    FORNL :  cpu time    0.1513: real time    0.1517
    STRESS:  cpu time    0.2089: real time    0.2094
    FORCOR:  cpu time    0.0128: real time    0.0129
    FORHAR:  cpu time    0.0016: real time    0.0017
    MIXING:  cpu time    0.0015: real time    0.0015
    OFIELD:  cpu time    0.0000: real time    0.0000

  FORCE on cell =-STRESS in cart. coord.  units (eV):
  Direction    XX          YY          ZZ          XY          YZ          ZX
  --------------------------------------------------------------------------------------
  Alpha Z   453.10566   453.10566   453.10566
  Ewald   -1617.75261 -1617.75125 -1617.75302     0.00351     0.00252    -0.00245
  Hartree   459.23892   459.39560   459.31537    -0.13528     0.11338     0.19455
  E(xc)    -244.15789  -244.14595  -244.15194    -0.01037     0.00846     0.01468
  Local     422.63508   422.58404   422.61334     0.04167    -0.04140    -0.06510
  n-local  -226.27904  -226.81286  -226.54601    -0.11698    -0.36727     0.15989
  augment    96.58764    96.33903    96.46331     0.21471    -0.17549    -0.30354
  Kinetic   656.80709   656.30139   656.55433    -0.16849    -0.47718     0.30647
  Fock        0.00000     0.00000     0.00000     0.00000     0.00000     0.00000
  -------------------------------------------------------------------------------------
  Total      -0.32770    -0.47182    -0.39896     0.12481    -0.10235    -0.17728
  in kB      -8.00648   -11.52768    -9.74763     3.04936    -2.50065    -4.33139
  external pressure =       -9.76 kB  Pullay stress =        0.00 kB


 VOLUME and BASIS-vectors are now :
 -----------------------------------------------------------------------------
  energy-cutoff  :      500.00
  volume of cell :       65.58
      direct lattice vectors                 reciprocal lattice vectors
    -1.796261100  3.111279100  0.000000000    -0.139173204  0.241061172  0.000000410
     1.796393000  1.037116700  2.933334000     0.139173204  0.080350044  0.227269672
     3.592637100  2.074162400 -2.933334000     0.139173204  0.080350044 -0.113639341

  length of vectors
     3.592577289  3.592643486  5.080712484     0.278351701  0.278346572  0.196822789


 FORCES acting on ions
    electron-ion (+dipol)            ewald-force                    non-local-force                 convergence-correction
 -----------------------------------------------------------------------------------------------
   -.288E-05 0.194E-05 -.198E-05   0.280E-04 -.189E-04 0.193E-04   -.635E-21 0.318E-21 -.529E-21   0.303E-09 -.205E-09 0.209E-09
   -.288E-05 0.194E-05 -.198E-05   0.280E-04 -.189E-04 0.193E-04   -.106E-21 -.476E-21 0.529E-22   0.303E-09 -.205E-09 0.209E-09
   -.166E-03 0.112E-03 -.115E-03   -.280E-04 0.189E-04 -.193E-04   -.106E-21 0.529E-21 -.556E-21   -.702E-08 0.474E-08 -.484E-08
   -.166E-03 0.112E-03 -.115E-03   -.280E-04 0.189E-04 -.193E-04   0.635E-21 -.265E-22 -.794E-21   -.702E-08 0.474E-08 -.484E-08
 -----------------------------------------------------------------------------------------------
   -.339E-03 0.228E-03 -.233E-03   -.414E-15 -.120E-13 -.346E-15   -.212E-21 0.344E-21 -.183E-20   -.134E-07 0.906E-08 -.926E-08
 
 
 POSITION                                       TOTAL-FORCE (eV/Angst)
 -----------------------------------------------------------------------------------
      0.00000      0.00000      0.00000        -0.000000     -0.000000     -0.000000
      1.79638      3.11128      0.00000        -0.000000     -0.000000     -0.000000
      0.00006      4.14836     -1.46667         0.000000      0.000000     -0.000000
      0.00007      2.07420      1.46667         0.000000     -0.000000      0.000000
 -----------------------------------------------------------------------------------
    total drift:                               -0.000339      0.000228     -0.000233


--------------------------------------------------------------------------------------------------------



  FREE ENERGIE OF THE ION-ELECTRON SYSTEM (eV)
  ---------------------------------------------------
  free  energy   TOTEN  =       -41.63120799 eV

  energy  without entropy=      -41.65295067  energy(sigma->0) =      -41.63845555
 


--------------------------------------------------------------------------------------------------------


    POTLOK:  cpu time    0.0204: real time    0.0205


--------------------------------------------------------------------------------------------------------


     LOOP+:  cpu time   17.1639: real time   17.2212
    4ORBIT:  cpu time    0.0000: real time    0.0000
 


 total charge     
 
# of ion       s       p       d       f       tot
--------------------------------------------------
    1        2.082   5.888   0.615   6.722  15.307
    2        2.082   5.888   0.615   6.722  15.307
    3        1.557   3.407   0.000   0.000   4.964
    4        1.557   3.407   0.000   0.000   4.964
--------------------------------------------------
tot          7.279  18.589   1.230  13.443  40.542

 


 magnetization (x)
 
# of ion       s       p       d       f       tot
--------------------------------------------------
    1       -0.007  -0.012   0.103   6.614   6.699
    2        0.007   0.012  -0.103  -6.614  -6.699
    3        0.002   0.037   0.000   0.000   0.039
    4       -0.002  -0.037   0.000   0.000  -0.039
--------------------------------------------------
tot          0.000  -0.000   0.000   0.000   0.000

 

 total amount of memory used by VASP MPI-rank0    40475. kBytes
=======================================================================

   base      :      30000. kBytes
   nonl-proj :       4521. kBytes
   fftplans  :        475. kBytes
   grid      :       1148. kBytes
   one-center:         98. kBytes
   wavefun   :       4233. kBytes
 
  
  
 General timing and accounting informations for this job:
 ========================================================
  
                  Total CPU time used (sec):       18.408
                            User time (sec):       18.236
                          System time (sec):        0.172
                         Elapsed time (sec):       19.058
  
                   Maximum memory used (kb):       62948.
                   Average memory used (kb):           0.
  
                          Minor page faults:        16983
                          Major page faults:            0
                 Voluntary context switches:         1397
