 vasp.5.4.4.18Apr17-6-g9f103f2a35 (build Apr 28 2018 00:24:27) complex          
  
 executed on             LinuxIFC date 2021.03.23  16:56:30
 running on    8 total cores
 distrk:  each k-point on    8 cores,    1 groups
 distr:  one band on NCORES_PER_BAND=   4 cores,    2 groups


--------------------------------------------------------------------------------------------------------


 INCAR:
 POTCAR:    PAW_PBE Eu 23Dec2003                  
 POTCAR:    PAW_PBE O 08Apr2002                   
 POTCAR:    PAW_PBE Eu 23Dec2003                  
   SHA256 =  ed303d27e7c5191953f9b15539336e6f36d9037c1d2e92e80c13d733697cb93d Eu
   COPYR  = (c) Copyright 23Dec2003 Georg Kresse                                
   COPYR  = This file is part of the software VASP. Any use, copying, and all ot
   COPYR  = If you do not have a valid VASP license, you may not use, copy or di
   VRHFIN =Eu : [core=Kr4d]                                                     
   LEXCH  = PE                                                                  
   EATOM  =  2619.8085 eV,  192.5505 Ry                                         
                                                                                
   TITEL  = PAW_PBE Eu 23Dec2003                                                
   LULTRA =        F    use ultrasoft PP ?                                      
   IUNSCR =        1    unscreen: 0-lin 1-nonlin 2-no                           
   RPACOR =    2.300    partial core radius                                     
   POMASS =  151.965; ZVAL   =   17.000    mass and valenz                      
   RCORE  =    2.800    outmost cutoff radius                                   
   RWIGS  =    2.800; RWIGS  =    1.482    wigner-seitz radius (au A)           
   ENMAX  =  249.668; ENMIN  =  187.251 eV                                      
   RCLOC  =    2.308    cutoff for local pot                                    
   LCOR   =        T    correct aug charges                                     
   LPAW   =        T    paw PP                                                  
   EAUG   =  549.628                                                            
   DEXC   =    0.000                                                            
   RMAX   =    2.870    core radius for proj-oper                               
   RAUG   =    1.300    factor for augmentation sphere                          
   RDEP   =    2.887    radius for radial grids                                 
   RDEPT  =    2.221    core radius for aug-charge                              
                                                                                
   Atomic configuration                                                         
   14 entries                                                                   
     n  l   j            E        occ.                                          
     1  0  0.50    -48354.7667   2.0000                                         
     2  0  0.50     -7939.6472   2.0000                                         
     2  1  1.50     -7072.6637   6.0000                                         
     3  0  0.50     -1747.1875   2.0000                                         
     3  1  1.50     -1477.5221   6.0000                                         
     3  2  2.50     -1117.4686  10.0000                                         
     4  0  0.50      -346.8682   2.0000                                         
     4  1  1.50      -258.1962   6.0000                                         
     4  2  2.50      -134.7724  10.0000                                         
     5  0  0.50       -44.6510   2.0000                                         
     6  0  0.50        -3.6227   2.0000                                         
     5  1  1.50       -23.7639   6.0000                                         
     5  2  2.50        -1.3130   0.0000                                         
     4  3  2.50        -2.7310   7.0000                                         
   Description                                                                  
     l       E           TYP  RCUT    TYP  RCUT                                 
     0    -44.6510453     23  2.400                                             
     0     -3.6226685     23  2.400                                             
     1    -23.7638687     23  2.400                                             
     1     27.2116520     23  2.400                                             
     2     -1.3129622     23  2.500                                             
     2     13.6058260     23  2.500                                             
     3     -2.7309948     23  2.800                                             
     3     -3.4014565     23  2.800                                             
  local pseudopotential read in
  partial core-charges read in
  partial kinetic energy density read in
  atomic valenz-charges read in
  non local Contribution for L=           0  read in
    real space projection operators read in
  non local Contribution for L=           0  read in
    real space projection operators read in
  non local Contribution for L=           1  read in
    real space projection operators read in
  non local Contribution for L=           1  read in
    real space projection operators read in
  non local Contribution for L=           2  read in
    real space projection operators read in
  non local Contribution for L=           2  read in
    real space projection operators read in
  non local Contribution for L=           3  read in
    real space projection operators read in
  non local Contribution for L=           3  read in
    real space projection operators read in
    PAW grid and wavefunctions read in
 
   number of l-projection  operators is LMAX  =           8
   number of lm-projection operators is LMMAX =          32
 
 POTCAR:    PAW_PBE O 08Apr2002                   
   SHA256 =  818f92134a0a090dccd8ba1447fa70422a3b330e708bb4f08108d8ae51209ddf O/
   COPYR  = (c) Copyright 08Apr2002 Georg Kresse                                
   COPYR  = This file is part of the software VASP. Any use, copying, and all ot
   COPYR  = If you do not have a valid VASP license, you may not use, copy or di
   VRHFIN =O: s2p4                                                              
   LEXCH  = PE                                                                  
   EATOM  =   432.3788 eV,   31.7789 Ry                                         
                                                                                
   TITEL  = PAW_PBE O 08Apr2002                                                 
   LULTRA =        F    use ultrasoft PP ?                                      
   IUNSCR =        1    unscreen: 0-lin 1-nonlin 2-no                           
   RPACOR =    1.200    partial core radius                                     
   POMASS =   16.000; ZVAL   =    6.000    mass and valenz                      
   RCORE  =    1.520    outmost cutoff radius                                   
   RWIGS  =    1.550; RWIGS  =    0.820    wigner-seitz radius (au A)           
   ENMAX  =  400.000; ENMIN  =  300.000 eV                                      
   ICORE  =        2    local potential                                         
   LCOR   =        T    correct aug charges                                     
   LPAW   =        T    paw PP                                                  
   EAUG   =  605.392                                                            
   DEXC   =    0.000                                                            
   RMAX   =    1.553    core radius for proj-oper                               
   RAUG   =    1.300    factor for augmentation sphere                          
   RDEP   =    1.550    radius for radial grids                                 
   RDEPT  =    1.329    core radius for aug-charge                              
                                                                                
   Atomic configuration                                                         
    4 entries                                                                   
     n  l   j            E        occ.                                          
     1  0  0.50      -514.6923   2.0000                                         
     2  0  0.50       -23.9615   2.0000                                         
     2  1  0.50        -9.0305   4.0000                                         
     3  2  1.50        -9.5241   0.0000                                         
   Description                                                                  
     l       E           TYP  RCUT    TYP  RCUT                                 
     0    -23.9615318     23  1.200                                             
     0     -9.5240782     23  1.200                                             
     1     -9.0304911     23  1.520                                             
     1      8.1634956     23  1.520                                             
     2     -9.5240782      7  1.500                                             
  local pseudopotential read in
  partial core-charges read in
  partial kinetic energy density read in
  kinetic energy density of atom read in
  atomic valenz-charges read in
  non local Contribution for L=           0  read in
    real space projection operators read in
  non local Contribution for L=           0  read in
    real space projection operators read in
  non local Contribution for L=           1  read in
    real space projection operators read in
  non local Contribution for L=           1  read in
    real space projection operators read in
    PAW grid and wavefunctions read in
 
   number of l-projection  operators is LMAX  =           4
   number of lm-projection operators is LMMAX =           8
 
  PAW_PBE Eu 23Dec2003                  :
 energy of atom  1       EATOM=-2619.8085
 kinetic energy error for atom=    0.0019 (will be added to EATOM!!)
  PAW_PBE O 08Apr2002                   :
 energy of atom  2       EATOM= -432.3788
 kinetic energy error for atom=    0.0224 (will be added to EATOM!!)
 
 
 POSCAR: Eu1 O1 str #: 6                         
  positions in direct lattice
  No initial velocities read in
 exchange correlation table for  LEXCH =        8
   RHO(1)=    0.500       N(1)  =     2000
   RHO(2)=  100.500       N(2)  =     4000
 


--------------------------------------------------------------------------------------------------------


 ion  position               nearest neighbor table
   1  0.000  0.000  0.000-   4 2.54   4 2.54   3 2.54   3 2.54   4 2.54   4 2.54
   2  0.500  0.500  0.500-   3 2.54   3 2.54   4 2.54   4 2.54   3 2.54   3 2.54
   3  1.000  0.000  0.500-   2 2.54   2 2.54   1 2.54   1 2.54   2 2.54   2 2.54
   4  0.500  0.500  0.000-   1 2.54   1 2.54   2 2.54   2 2.54   1 2.54   1 2.54
 
  LATTYP: Found a simple monoclinic cell.
 ALAT       =     6.2226765187
 B/A-ratio  =     0.5773363404
 C/A-ratio  =     1.4142184480
 COS(beta)  =    -0.9428120136
  
  Lattice vectors:
  
 A1 = (  -5.3890301000,  -3.1112791000,   0.0000000000)
 A2 = (   1.7962611000,  -3.1112791000,   0.0000000000)
 A3 = (   7.1854231000,   4.1483958000,   2.9333340000)


Analysis of symmetry for initial positions (statically):
=====================================================================
 Subroutine PRICEL returns following result:
 
  LATTYP: Found a trigonal (rhomboedric) cell.
 ALAT       =     3.5926389896
 COS(alpha) =     0.5000180940
  
  Lattice vectors:
  
 A1 = (  -1.7963845000,  -3.1112791000,   0.0000000000)
 A2 = (  -3.5926456000,   0.0000000000,   0.0000000000)
 A3 = (  -1.7963930000,  -1.0371167000,  -2.9333340000)
 
   2 primitive cells build up your supercell.
 

 Routine SETGRP: Setting up the symmetry group for a 
 simple monoclinic supercell.


 Subroutine GETGRP returns: Found  4 space group operations
 (whereof  4 operations were pure point group operations)
 out of a pool of  4 trial point group operations.


The static configuration has the point symmetry C_2h.


Analysis of symmetry for dynamics (positions and initial velocities):
=====================================================================
 Subroutine PRICEL returns following result:
 
  LATTYP: Found a trigonal (rhomboedric) cell.
 ALAT       =     3.5926389896
 COS(alpha) =     0.5000180940
  
  Lattice vectors:
  
 A1 = (  -1.7963845000,  -3.1112791000,   0.0000000000)
 A2 = (  -3.5926456000,   0.0000000000,   0.0000000000)
 A3 = (  -1.7963930000,  -1.0371167000,  -2.9333340000)
 
   2 primitive cells build up your supercell.
 

 Routine SETGRP: Setting up the symmetry group for a 
 simple monoclinic supercell.


 Subroutine GETGRP returns: Found  4 space group operations
 (whereof  4 operations were pure point group operations)
 out of a pool of  4 trial point group operations.


The dynamic configuration has the point symmetry C_2h.


Analysis of structural, dynamic, and magnetic symmetry:
=====================================================================
 Subroutine PRICEL returns following result:
 
  LATTYP: Found a trigonal (rhomboedric) cell.
 ALAT       =     3.5926389896
 COS(alpha) =     0.5000180940
  
  Lattice vectors:
  
 A1 = (  -1.7963845000,  -3.1112791000,   0.0000000000)
 A2 = (  -3.5926456000,   0.0000000000,   0.0000000000)
 A3 = (  -1.7963930000,  -1.0371167000,  -2.9333340000)
 
   2 primitive cells build up your supercell.
 

 Routine SETGRP: Setting up the symmetry group for a 
 simple monoclinic supercell.


 Subroutine GETGRP returns: Found  4 space group operations
 (whereof  4 operations were pure point group operations)
 out of a pool of  4 trial point group operations.


The magnetic configuration has the point symmetry C_2h.


 Subroutine INISYM returns: Found  4 space group operations
 (whereof  4 operations are pure point group operations),
 and found     2 'primitive' translations

 
 
 KPOINTS: pymatgen v2020.8.13 with grid density = 

Automatic generation of k-mesh.
Space group operators:
 irot       det(A)        alpha          n_x          n_y          n_z        tau_x        tau_y        tau_z
    1     1.000000     0.000000     1.000000     0.000000     0.000000     0.000000     0.000000     0.000000
    2    -1.000000     0.000000     1.000000     0.000000     0.000000     0.000000     0.000000     0.000000
    3     1.000000   179.999999    -0.499990     0.866031     0.000001     0.000000     0.000000     0.000000
    4    -1.000000   179.999999    -0.499990     0.866031     0.000001     0.000000     0.000000     0.000000
 
 Subroutine IBZKPT returns following result:
 ===========================================
 
 Found     16 irreducible k-points:
 
 Following reciprocal coordinates:
            Coordinates               Weight
  0.125000  0.125000  0.125000      4.000000
  0.375000  0.125000  0.125000      4.000000
  0.125000  0.375000  0.125000      4.000000
  0.375000  0.375000  0.125000      4.000000
  0.125000 -0.375000  0.125000      4.000000
  0.375000 -0.375000  0.125000      4.000000
  0.125000 -0.125000  0.125000      4.000000
  0.375000 -0.125000  0.125000      4.000000
  0.125000  0.125000  0.375000      4.000000
  0.375000  0.125000  0.375000      4.000000
  0.125000  0.375000  0.375000      4.000000
  0.375000  0.375000  0.375000      4.000000
  0.125000 -0.375000  0.375000      4.000000
  0.375000 -0.375000  0.375000      4.000000
  0.125000 -0.125000  0.375000      4.000000
  0.375000 -0.125000  0.375000      4.000000
 
 Following cartesian coordinates:
            Coordinates               Weight
  0.017397  0.050220  0.014204      4.000000
 -0.017397  0.110485  0.014204      4.000000
  0.052190  0.070308  0.071021      4.000000
  0.017397  0.130573  0.071021      4.000000
 -0.052190  0.010045 -0.099431      4.000000
 -0.086983  0.070310 -0.099431      4.000000
 -0.017397  0.030133 -0.042614      4.000000
 -0.052190  0.090398 -0.042613      4.000000
  0.052190  0.070308 -0.014206      4.000000
  0.017397  0.130573 -0.014206      4.000000
  0.086983  0.090395  0.042611      4.000000
  0.052190  0.150660  0.042612      4.000000
 -0.017397  0.030133 -0.127841      4.000000
 -0.052190  0.090398 -0.127841      4.000000
  0.017397  0.050220 -0.071023      4.000000
 -0.017397  0.110485 -0.071023      4.000000
 


--------------------------------------------------------------------------------------------------------




 Dimension of arrays:
   k-points           NKPTS =     16   k-points in BZ     NKDIM =     16   number of bands    NBANDS=     28
   number of dos      NEDOS =    301   number of ions     NIONS =      4
   non local maximal  LDIM  =      8   non local SUM 2l+1 LMDIM =     32
   total plane-waves  NPLWV =  11200
   max r-space proj   IRMAX =      1   max aug-charges    IRDMAX=   9962
   dimension x,y,z NGX =    20 NGY =   20 NGZ =   28
   dimension x,y,z NGXF=    40 NGYF=   40 NGZF=   56
   support grid    NGXF=    40 NGYF=   40 NGZF=   56
   ions per type =               2   2
   NGX,Y,Z   is equivalent  to a cutoff of   9.25,  9.25,  9.16 a.u.
   NGXF,Y,Z  is equivalent  to a cutoff of  18.51, 18.51, 18.32 a.u.

 SYSTEM =  "EuO"                                   
 POSCAR =  Eu1 O1 str #: 6                         

 Startparameter for this run:
   NWRITE =      2    write-flag & timer
   PREC   = normal    normal or accurate (medium, high low for compatibility)
   ISTART =      0    job   : 0-new  1-cont  2-samecut
   ICHARG =      2    charge: 1-file 2-atom 10-const
   ISPIN  =      2    spin polarized calculation?
   LNONCOLLINEAR =      F non collinear calculations
   LSORBIT =      F    spin-orbit coupling
   INIWAV =      1    electr: 0-lowe 1-rand  2-diag
   LASPH  =      F    aspherical Exc in radial PAW
   METAGGA=      F    non-selfconsistent MetaGGA calc.

 Electronic Relaxation 1
   ENCUT  =  500.0 eV  36.75 Ry    6.06 a.u.   6.55  6.55  9.26*2*pi/ulx,y,z
   ENINI  =  500.0     initial cutoff
   ENAUG  =  605.4 eV  augmentation charge cutoff
   NELM   =     60;   NELMIN=  2; NELMDL= -5     # of ELM steps 
   EDIFF  = 0.1E-05   stopping-criterion for ELM
   LREAL  =      F    real-space projection
   NLSPLINE    = F    spline interpolate recip. space projectors
   LCOMPAT=      F    compatible to vasp.4.4
   GGA_COMPAT  = T    GGA compatible to vasp.4.4-vasp.4.6
   LMAXPAW     = -100 max onsite density
   LMAXMIX     =    2 max onsite mixed and CHGCAR
   VOSKOWN=      0    Vosko Wilk Nusair interpolation
   ROPT   =    0.00000   0.00000
 Ionic relaxation
   EDIFFG = 0.1E-04   stopping-criterion for IOM
   NSW    =      0    number of steps for IOM
   NBLOCK =      1;   KBLOCK =      1    inner block; outer block 
   IBRION =     -1    ionic relax: 0-MD 1-quasi-New 2-CG
   NFREE  =      1    steps in history (QN), initial steepest desc. (CG)
   ISIF   =      2    stress and relaxation
   IWAVPR =     10    prediction:  0-non 1-charg 2-wave 3-comb
   ISYM   =      2    0-nonsym 1-usesym 2-fastsym
   LCORR  =      T    Harris-Foulkes like correction to forces

   POTIM  = 0.5000    time-step for ionic-motion
   TEIN   =    0.0    initial temperature
   TEBEG  =    0.0;   TEEND  =   0.0 temperature during run
   SMASS  =  -3.00    Nose mass-parameter (am)
   estimated Nose-frequenzy (Omega)   =  0.10E-29 period in steps =****** mass=  -0.295E-27a.u.
   SCALEE = 1.0000    scale energy and forces
   NPACO  =    256;   APACO  = 16.0  distance and # of slots for P.C.
   PSTRESS=    0.0 pullay stress

  Mass of Ions in am
   POMASS = 151.97 16.00
  Ionic Valenz
   ZVAL   =  17.00  6.00
  Atomic Wigner-Seitz radii
   RWIGS  =  -1.00 -1.00
  virtual crystal weights 
   VCA    =   1.00  1.00
   NELECT =      46.0000    total number of electrons
   NUPDOWN=      -1.0000    fix difference up-down

 DOS related values:
   EMIN   =  10.00;   EMAX   =-10.00  energy-range for DOS
   EFERMI =   0.00
   ISMEAR =     1;   SIGMA  =   0.10  broadening in eV -4-tet -1-fermi 0-gaus

 Electronic relaxation 2 (details)
   IALGO  =     38    algorithm
   LDIAG  =      T    sub-space diagonalisation (order eigenvalues)
   LSUBROT=      F    optimize rotation matrix (better conditioning)
   TURBO    =      0    0=normal 1=particle mesh
   IRESTART =      0    0=no restart 2=restart with 2 vectors
   NREBOOT  =      0    no. of reboots
   NMIN     =      0    reboot dimension
   EREF     =   0.00    reference energy to select bands
   IMIX   =      4    mixing-type and parameters
     AMIX     =   0.40;   BMIX     =  1.00
     AMIX_MAG =   1.60;   BMIX_MAG =  1.00
     AMIN     =   0.10
     WC   =   100.;   INIMIX=   1;  MIXPRE=   1;  MAXMIX= -45

 Intra band minimization:
   WEIMIN = 0.0000     energy-eigenvalue tresh-hold
   EBREAK =  0.89E-08  absolut break condition
   DEPER  =   0.30     relativ break condition  

   TIME   =   0.40     timestep for ELM

  volume/ion in A,a.u.               =      16.39       110.63
  Fermi-wavevector in a.u.,A,eV,Ry     =   1.454607  2.748810 28.788335  2.115883
  Thomas-Fermi vector in A             =   2.571738
 
 Write flags
   LWAVE        =      F    write WAVECAR
   LDOWNSAMPLE  =      F    k-point downsampling of WAVECAR
   LCHARG       =      F    write CHGCAR
   LVTOT        =      F    write LOCPOT, total local potential
   LVHAR        =      F    write LOCPOT, Hartree potential only
   LELF         =      F    write electronic localiz. function (ELF)
   LORBIT       =     11    0 simple, 1 ext, 2 COOP (PROOUT), +10 PAW based schemes


 Dipole corrections
   LMONO  =      F    monopole corrections only (constant potential shift)
   LDIPOL =      F    correct potential (dipole corrections)
   IDIPOL =      0    1-x, 2-y, 3-z, 4-all directions 
   EPSILON=  1.0000000 bulk dielectric constant

 Exchange correlation treatment:
   GGA     =    --    GGA type
   LEXCH   =     8    internal setting for exchange type
   VOSKOWN=      0    Vosko Wilk Nusair interpolation
   LHFCALC =     F    Hartree Fock is set to
   LHFONE  =     F    Hartree Fock one center treatment
   AEXX    =    0.0000 exact exchange contribution

 Linear response parameters
   LEPSILON=     F    determine dielectric tensor
   LRPA    =     F    only Hartree local field effects (RPA)
   LNABLA  =     F    use nabla operator in PAW spheres
   LVEL    =     F    velocity operator in full k-point grid
   LINTERFAST=   F  fast interpolation
   KINTER  =     0    interpolate to denser k-point grid
   CSHIFT  =0.1000    complex shift for real part using Kramers Kronig
   OMEGAMAX=  -1.0    maximum frequency
   DEG_THRESHOLD= 0.2000000E-02 threshold for treating states as degnerate
   RTIME   =   -0.100 relaxation time in fs
  (WPLASMAI=    0.000 imaginary part of plasma frequency in eV, 0.658/RTIME)
   DFIELD  = 0.0000000 0.0000000 0.0000000 field for delta impulse in time
 
 Orbital magnetization related:
   ORBITALMAG=     F  switch on orbital magnetization
   LCHIMAG   =     F  perturbation theory with respect to B field
   DQ        =  0.001000  dq finite difference perturbation B field
   LLRAUG    =     F  two centre corrections for induced B field



--------------------------------------------------------------------------------------------------------


 Static calculation
 charge density and potential will be updated during run
 spin polarized calculation
 Variant of blocked Davidson
 Davidson routine will perform the subspace rotation
 perform sub-space diagonalisation
    after iterative eigenvector-optimisation
 modified Broyden-mixing scheme, WC =      100.0
 initial mixing is a Kerker type mixing with AMIX =  0.4000 and BMIX =      1.0000
 Hartree-type preconditioning will be used
 using additional bands            5
 reciprocal scheme for non local part
 use partial core corrections
 calculate Harris-corrections to forces 
   (improved forces if not selfconsistent)
 use gradient corrections 
 use of overlap-Matrix (Vanderbilt PP)
 Methfessel and Paxton  Order N= 1 SIGMA  =   0.10


--------------------------------------------------------------------------------------------------------


  energy-cutoff  :      500.00
  volume of cell :       65.58
      direct lattice vectors                 reciprocal lattice vectors
    -1.796261100  3.111279100  0.000000000    -0.139173204  0.241061172  0.000000410
     1.796393000  1.037116700  2.933334000     0.139173204  0.080350044  0.227269672
     3.592637100  2.074162400 -2.933334000     0.139173204  0.080350044 -0.113639341

  length of vectors
     3.592577289  3.592643486  5.080712484     0.278351701  0.278346572  0.196822789


 
 k-points in units of 2pi/SCALE and weight: pymatgen v2020.8.13 with grid density = 
   0.01739665  0.05022016  0.01420384       0.062
  -0.01739665  0.11048545  0.01420395       0.062
   0.05218995  0.07030767  0.07102126       0.062
   0.01739665  0.13057296  0.07102136       0.062
  -0.05218995  0.01004514 -0.09943099       0.062
  -0.08698325  0.07031043 -0.09943089       0.062
  -0.01739665  0.03013265 -0.04261358       0.062
  -0.05218995  0.09039794 -0.04261347       0.062
   0.05218995  0.07030767 -0.01420599       0.062
   0.01739665  0.13057296 -0.01420589       0.062
   0.08698325  0.09039518  0.04261143       0.062
   0.05218995  0.15066047  0.04261153       0.062
  -0.01739665  0.03013265 -0.12784083       0.062
  -0.05218995  0.09039794 -0.12784073       0.062
   0.01739665  0.05022016 -0.07102341       0.062
  -0.01739665  0.11048545 -0.07102331       0.062
 
 k-points in reciprocal lattice and weights: pymatgen v2020.8.13 with grid density = 
   0.12500000  0.12500000  0.12500000       0.062
   0.37500000  0.12500000  0.12500000       0.062
   0.12500000  0.37500000  0.12500000       0.062
   0.37500000  0.37500000  0.12500000       0.062
   0.12500000 -0.37500000  0.12500000       0.062
   0.37500000 -0.37500000  0.12500000       0.062
   0.12500000 -0.12500000  0.12500000       0.062
   0.37500000 -0.12500000  0.12500000       0.062
   0.12500000  0.12500000  0.37500000       0.062
   0.37500000  0.12500000  0.37500000       0.062
   0.12500000  0.37500000  0.37500000       0.062
   0.37500000  0.37500000  0.37500000       0.062
   0.12500000 -0.37500000  0.37500000       0.062
   0.37500000 -0.37500000  0.37500000       0.062
   0.12500000 -0.12500000  0.37500000       0.062
   0.37500000 -0.12500000  0.37500000       0.062
 
 position of ions in fractional coordinates (direct lattice) 
   0.00000000  0.00000000  0.00000000
   0.50000000  0.50000000  0.50000000
   0.99999995  0.00000004  0.50000000
   0.49999995  0.50000004  0.00000000
 
 position of ions in cartesian coordinates  (Angst):
   0.00000000  0.00000000  0.00000000
   1.79638450  3.11127910  0.00000000
   0.00005760  4.14836020 -1.46666690
   0.00006610  2.07419780  1.46666710
 


--------------------------------------------------------------------------------------------------------


 k-point  1 :   0.1250 0.1250 0.1250  plane waves:    1664
 k-point  2 :   0.3750 0.1250 0.1250  plane waves:    1665
 k-point  3 :   0.1250 0.3750 0.1250  plane waves:    1665
 k-point  4 :   0.3750 0.3750 0.1250  plane waves:    1656
 k-point  5 :   0.1250-0.3750 0.1250  plane waves:    1665
 k-point  6 :   0.3750-0.3750 0.1250  plane waves:    1656
 k-point  7 :   0.1250-0.1250 0.1250  plane waves:    1664
 k-point  8 :   0.3750-0.1250 0.1250  plane waves:    1665
 k-point  9 :   0.1250 0.1250 0.3750  plane waves:    1673
 k-point 10 :   0.3750 0.1250 0.3750  plane waves:    1663
 k-point 11 :   0.1250 0.3750 0.3750  plane waves:    1663
 k-point 12 :   0.3750 0.3750 0.3750  plane waves:    1655
 k-point 13 :   0.1250-0.3750 0.3750  plane waves:    1663
 k-point 14 :   0.3750-0.3750 0.3750  plane waves:    1655
 k-point 15 :   0.1250-0.1250 0.3750  plane waves:    1673
 k-point 16 :   0.3750-0.1250 0.3750  plane waves:    1663

 maximum and minimum number of plane-waves per node :       427      401

 maximum number of plane-waves:      1673
 maximum index in each direction: 
   IXMAX=    6   IYMAX=    6   IZMAX=    9
   IXMIN=   -6   IYMIN=   -6   IZMIN=   -9


 parallel 3D FFT for wavefunctions:
    minimum data exchange during FFTs selected (reduces bandwidth)
 parallel 3D FFT for charge:
    minimum data exchange during FFTs selected (reduces bandwidth)


 total amount of memory used by VASP MPI-rank0    38397. kBytes
=======================================================================

   base      :      30000. kBytes
   nonl-proj :       3451. kBytes
   fftplans  :        475. kBytes
   grid      :       1148. kBytes
   one-center:         98. kBytes
   wavefun   :       3225. kBytes
 
     INWAV:  cpu time    0.0000: real time    0.0001
 Broyden mixing: mesh for mixing (old mesh)
   NGX = 13   NGY = 13   NGZ = 19
  (NGX  = 40   NGY  = 40   NGZ  = 56)
  gives a total of   3211 points

 initial charge density was supplied:
 charge density of overlapping atoms calculated
 number of electron      46.0000000 magnetization       0.0000000
 keeping initial charge density in first step


--------------------------------------------------------------------------------------------------------


 Maximum index for augmentation-charges         1239 (set IRDMAX)


--------------------------------------------------------------------------------------------------------


 First call to EWALD:  gamma=   0.440
 Maximum number of real-space cells 3x 3x 2
 Maximum number of reciprocal cells 3x 3x 3

    FEWALD:  cpu time    0.0013: real time    0.0013


--------------------------------------- Iteration      1(   1)  ---------------------------------------


    POTLOK:  cpu time    0.0190: real time    0.0215
    SETDIJ:  cpu time    0.0095: real time    0.0095
     EDDAV:  cpu time    0.4017: real time    0.4153
       DOS:  cpu time    0.0015: real time    0.0015
    --------------------------------------------
      LOOP:  cpu time    0.4317: real time    0.4478

 eigenvalue-minimisations  :  2160
 total energy-change (2. order) : 0.4366638E+03  (-0.1827422E+04)
 number of electron      46.0000000 magnetization       0.0000000
 augmentation part       46.0000000 magnetization       0.0000000

 Free energy of the ion-electron system (eV)
  ---------------------------------------------------
  alpha Z        PSCENC =       453.10565554
  Ewald energy   TEWEN  =     -4853.25068260
  -Hartree energ DENC   =     -1394.95400397
  -exchange      EXHF   =         0.00000000
  -V(xc)+E(xc)   XCENC  =       227.25687622
  PAW double counting   =      5122.54265185    -5413.80328534
  entropy T*S    EENTRO =        -0.00070948
  eigenvalues    EBANDS =       191.44117308
  atomic energy  EATOM  =      6104.32616516
  Solvation  Ediel_sol  =         0.00000000
  ---------------------------------------------------
  free energy    TOTEN  =       436.66384046 eV

  energy without entropy =      436.66454994  energy(sigma->0) =      436.66407696


--------------------------------------------------------------------------------------------------------




--------------------------------------- Iteration      1(   2)  ---------------------------------------


     EDDAV:  cpu time    0.4676: real time    0.4704
       DOS:  cpu time    0.0013: real time    0.0013
    --------------------------------------------
      LOOP:  cpu time    0.4689: real time    0.4716

 eigenvalue-minimisations  :  2424
 total energy-change (2. order) :-0.3829398E+03  (-0.3589940E+03)
 number of electron      46.0000000 magnetization       0.0000000
 augmentation part       46.0000000 magnetization       0.0000000

 Free energy of the ion-electron system (eV)
  ---------------------------------------------------
  alpha Z        PSCENC =       453.10565554
  Ewald energy   TEWEN  =     -4853.25068260
  -Hartree energ DENC   =     -1394.95400397
  -exchange      EXHF   =         0.00000000
  -V(xc)+E(xc)   XCENC  =       227.25687622
  PAW double counting   =      5122.54265185    -5413.80328534
  entropy T*S    EENTRO =        -0.00246663
  eigenvalues    EBANDS =      -191.49691794
  atomic energy  EATOM  =      6104.32616516
  Solvation  Ediel_sol  =         0.00000000
  ---------------------------------------------------
  free energy    TOTEN  =        53.72399230 eV

  energy without entropy =       53.72645892  energy(sigma->0) =       53.72481450


--------------------------------------------------------------------------------------------------------




--------------------------------------- Iteration      1(   3)  ---------------------------------------


     EDDAV:  cpu time    0.5395: real time    0.5409
       DOS:  cpu time    0.0014: real time    0.0014
    --------------------------------------------
      LOOP:  cpu time    0.5409: real time    0.5423

 eigenvalue-minimisations  :  3060
 total energy-change (2. order) :-0.9018370E+02  (-0.8842544E+02)
 number of electron      46.0000000 magnetization       0.0000000
 augmentation part       46.0000000 magnetization       0.0000000

 Free energy of the ion-electron system (eV)
  ---------------------------------------------------
  alpha Z        PSCENC =       453.10565554
  Ewald energy   TEWEN  =     -4853.25068260
  -Hartree energ DENC   =     -1394.95400397
  -exchange      EXHF   =         0.00000000
  -V(xc)+E(xc)   XCENC  =       227.25687622
  PAW double counting   =      5122.54265185    -5413.80328534
  entropy T*S    EENTRO =        -0.00007317
  eigenvalues    EBANDS =      -281.68301455
  atomic energy  EATOM  =      6104.32616516
  Solvation  Ediel_sol  =         0.00000000
  ---------------------------------------------------
  free energy    TOTEN  =       -36.45971086 eV

  energy without entropy =      -36.45963768  energy(sigma->0) =      -36.45968647


--------------------------------------------------------------------------------------------------------




--------------------------------------- Iteration      1(   4)  ---------------------------------------


     EDDAV:  cpu time    0.5567: real time    0.5581
       DOS:  cpu time    0.0014: real time    0.0014
    --------------------------------------------
      LOOP:  cpu time    0.5581: real time    0.5595

 eigenvalue-minimisations  :  3068
 total energy-change (2. order) :-0.7624552E+01  (-0.7181355E+01)
 number of electron      46.0000000 magnetization       0.0000000
 augmentation part       46.0000000 magnetization       0.0000000

 Free energy of the ion-electron system (eV)
  ---------------------------------------------------
  alpha Z        PSCENC =       453.10565554
  Ewald energy   TEWEN  =     -4853.25068260
  -Hartree energ DENC   =     -1394.95400397
  -exchange      EXHF   =         0.00000000
  -V(xc)+E(xc)   XCENC  =       227.25687622
  PAW double counting   =      5122.54265185    -5413.80328534
  entropy T*S    EENTRO =         0.01999980
  eigenvalues    EBANDS =      -289.32763990
  atomic energy  EATOM  =      6104.32616516
  Solvation  Ediel_sol  =         0.00000000
  ---------------------------------------------------
  free energy    TOTEN  =       -44.08426323 eV

  energy without entropy =      -44.10426303  energy(sigma->0) =      -44.09092983


--------------------------------------------------------------------------------------------------------




--------------------------------------- Iteration      1(   5)  ---------------------------------------


     EDDAV:  cpu time    0.5854: real time    0.5869
       DOS:  cpu time    0.0015: real time    0.0015
    CHARGE:  cpu time    0.0293: real time    0.0294
    MIXING:  cpu time    0.0005: real time    0.0005
    --------------------------------------------
      LOOP:  cpu time    0.6167: real time    0.6183

 eigenvalue-minimisations  :  3340
 total energy-change (2. order) :-0.9461652E+00  (-0.8739788E+00)
 number of electron      46.0000058 magnetization       0.0000000
 augmentation part        8.4657306 magnetization       0.0000000

 Broyden mixing:
  rms(total) = 0.27707E+01    rms(broyden)= 0.27704E+01
  rms(prec ) = 0.57086E+01
  weight for this iteration     100.00

 Free energy of the ion-electron system (eV)
  ---------------------------------------------------
  alpha Z        PSCENC =       453.10565554
  Ewald energy   TEWEN  =     -4853.25068260
  -Hartree energ DENC   =     -1394.95400397
  -exchange      EXHF   =         0.00000000
  -V(xc)+E(xc)   XCENC  =       227.25687622
  PAW double counting   =      5122.54265185    -5413.80328534
  entropy T*S    EENTRO =         0.01885170
  eigenvalues    EBANDS =      -290.27265698
  atomic energy  EATOM  =      6104.32616516
  Solvation  Ediel_sol  =         0.00000000
  ---------------------------------------------------
  free energy    TOTEN  =       -45.03042842 eV

  energy without entropy =      -45.04928012  energy(sigma->0) =      -45.03671232


--------------------------------------------------------------------------------------------------------




--------------------------------------- Iteration      1(   6)  ---------------------------------------


    POTLOK:  cpu time    0.0124: real time    0.0125
    SETDIJ:  cpu time    0.0082: real time    0.0082
     EDDAV:  cpu time    0.5375: real time    0.5388
       DOS:  cpu time    0.0015: real time    0.0015
    CHARGE:  cpu time    0.0261: real time    0.0262
    MIXING:  cpu time    0.0006: real time    0.0007
    --------------------------------------------
      LOOP:  cpu time    0.5863: real time    0.5878

 eigenvalue-minimisations  :  3012
 total energy-change (2. order) :-0.5188966E+02  (-0.8019451E+02)
 number of electron      46.0000083 magnetization      -0.0000000
 augmentation part       22.6136492 magnetization      -0.0000000

 Broyden mixing:
  rms(total) = 0.11285E+02    rms(broyden)= 0.11284E+02
  rms(prec ) = 0.19900E+02
  weight for this iteration     100.00

 eigenvalues of (default mixing * dielectric matrix)
  average eigenvalue GAMMA=   0.1363
  0.1363

 Free energy of the ion-electron system (eV)
  ---------------------------------------------------
  alpha Z        PSCENC =       453.10565554
  Ewald energy   TEWEN  =     -4853.25068260
  -Hartree energ DENC   =     -1261.92819012
  -exchange      EXHF   =         0.00000000
  -V(xc)+E(xc)   XCENC  =       223.04670902
  PAW double counting   =      4925.36423082    -5157.39131749
  entropy T*S    EENTRO =         0.00231204
  eigenvalues    EBANDS =      -530.19497022
  atomic energy  EATOM  =      6104.32616516
  Solvation  Ediel_sol  =         0.00000000
  ---------------------------------------------------
  free energy    TOTEN  =       -96.92008786 eV

  energy without entropy =      -96.92239990  energy(sigma->0) =      -96.92085854


--------------------------------------------------------------------------------------------------------




--------------------------------------- Iteration      1(   7)  ---------------------------------------


    POTLOK:  cpu time    0.0133: real time    0.0134
    SETDIJ:  cpu time    0.0085: real time    0.0085
     EDDAV:  cpu time    0.4879: real time    0.4890
       DOS:  cpu time    0.0015: real time    0.0015
    CHARGE:  cpu time    0.0260: real time    0.0261
    MIXING:  cpu time    0.0006: real time    0.0006
    --------------------------------------------
      LOOP:  cpu time    0.5378: real time    0.5393

 eigenvalue-minimisations  :  2744
 total energy-change (2. order) : 0.6913391E+02  (-0.4727654E+02)
 number of electron      46.0000047 magnetization       0.0000000
 augmentation part       10.5471668 magnetization       0.0000000

 Broyden mixing:
  rms(total) = 0.25869E+01    rms(broyden)= 0.25865E+01
  rms(prec ) = 0.26861E+01
  weight for this iteration     100.00

 eigenvalues of (default mixing * dielectric matrix)
  average eigenvalue GAMMA=   0.2360
  0.2360  0.2360

 Free energy of the ion-electron system (eV)
  ---------------------------------------------------
  alpha Z        PSCENC =       453.10565554
  Ewald energy   TEWEN  =     -4853.25068260
  -Hartree energ DENC   =     -1353.10105279
  -exchange      EXHF   =         0.00000000
  -V(xc)+E(xc)   XCENC  =       223.74114902
  PAW double counting   =      5162.16521284    -5450.66536375
  entropy T*S    EENTRO =        -0.00243789
  eigenvalues    EBANDS =      -314.10481859
  atomic energy  EATOM  =      6104.32616516
  Solvation  Ediel_sol  =         0.00000000
  ---------------------------------------------------
  free energy    TOTEN  =       -27.78617307 eV

  energy without entropy =      -27.78373518  energy(sigma->0) =      -27.78536044


--------------------------------------------------------------------------------------------------------




--------------------------------------- Iteration      1(   8)  ---------------------------------------


    POTLOK:  cpu time    0.0126: real time    0.0128
    SETDIJ:  cpu time    0.0080: real time    0.0080
     EDDAV:  cpu time    0.4864: real time    0.4875
       DOS:  cpu time    0.0012: real time    0.0013
    CHARGE:  cpu time    0.0327: real time    0.0328
    MIXING:  cpu time    0.0005: real time    0.0005
    --------------------------------------------
      LOOP:  cpu time    0.5414: real time    0.5428

 eigenvalue-minimisations  :  2792
 total energy-change (2. order) :-0.1326829E+02  (-0.9883657E+01)
 number of electron      46.0000061 magnetization       0.0000000
 augmentation part       12.2683717 magnetization       0.0000000

 Broyden mixing:
  rms(total) = 0.22335E+01    rms(broyden)= 0.22333E+01
  rms(prec ) = 0.25894E+01
  weight for this iteration     100.00

 eigenvalues of (default mixing * dielectric matrix)
  average eigenvalue GAMMA=   0.3390
  0.4068  0.4068  0.2035

 Free energy of the ion-electron system (eV)
  ---------------------------------------------------
  alpha Z        PSCENC =       453.10565554
  Ewald energy   TEWEN  =     -4853.25068260
  -Hartree energ DENC   =     -1347.99601583
  -exchange      EXHF   =         0.00000000
  -V(xc)+E(xc)   XCENC  =       225.22476799
  PAW double counting   =      5190.25500791    -5478.69363280
  entropy T*S    EENTRO =        -0.00068036
  eigenvalues    EBANDS =      -334.02504703
  atomic energy  EATOM  =      6104.32616516
  Solvation  Ediel_sol  =         0.00000000
  ---------------------------------------------------
  free energy    TOTEN  =       -41.05446202 eV

  energy without entropy =      -41.05378166  energy(sigma->0) =      -41.05423524


--------------------------------------------------------------------------------------------------------




--------------------------------------- Iteration      1(   9)  ---------------------------------------


    POTLOK:  cpu time    0.0117: real time    0.0118
    SETDIJ:  cpu time    0.0071: real time    0.0071
     EDDAV:  cpu time    0.4936: real time    0.4948
       DOS:  cpu time    0.0014: real time    0.0014
    CHARGE:  cpu time    0.0256: real time    0.0257
    MIXING:  cpu time    0.0006: real time    0.0006
    --------------------------------------------
      LOOP:  cpu time    0.5400: real time    0.5414

 eigenvalue-minimisations  :  2916
 total energy-change (2. order) :-0.3918952E+00  (-0.9845243E+00)
 number of electron      46.0000061 magnetization       0.0000000
 augmentation part       11.8583290 magnetization       0.0000000

 Broyden mixing:
  rms(total) = 0.14810E+01    rms(broyden)= 0.14810E+01
  rms(prec ) = 0.17766E+01
  weight for this iteration     100.00

 eigenvalues of (default mixing * dielectric matrix)
  average eigenvalue GAMMA=   0.5125
  0.7367  0.2046  0.5544  0.5544

 Free energy of the ion-electron system (eV)
  ---------------------------------------------------
  alpha Z        PSCENC =       453.10565554
  Ewald energy   TEWEN  =     -4853.25068260
  -Hartree energ DENC   =     -1364.50775111
  -exchange      EXHF   =         0.00000000
  -V(xc)+E(xc)   XCENC  =       227.17739577
  PAW double counting   =      5210.27464669    -5505.43157474
  entropy T*S    EENTRO =         0.02660520
  eigenvalues    EBANDS =      -313.16681716
  atomic energy  EATOM  =      6104.32616516
  Solvation  Ediel_sol  =         0.00000000
  ---------------------------------------------------
  free energy    TOTEN  =       -41.44635724 eV

  energy without entropy =      -41.47296244  energy(sigma->0) =      -41.45522564


--------------------------------------------------------------------------------------------------------




--------------------------------------- Iteration      1(  10)  ---------------------------------------


    POTLOK:  cpu time    0.0124: real time    0.0125
    SETDIJ:  cpu time    0.0080: real time    0.0080
     EDDAV:  cpu time    0.5565: real time    0.5578
       DOS:  cpu time    0.0015: real time    0.0015
    CHARGE:  cpu time    0.0266: real time    0.0267
    MIXING:  cpu time    0.0007: real time    0.0007
    --------------------------------------------
      LOOP:  cpu time    0.6057: real time    0.6072

 eigenvalue-minimisations  :  3192
 total energy-change (2. order) :-0.5816980E-01  (-0.1913931E+00)
 number of electron      46.0000059 magnetization      -0.0000000
 augmentation part       11.4372588 magnetization      -0.0000000

 Broyden mixing:
  rms(total) = 0.10761E+01    rms(broyden)= 0.10761E+01
  rms(prec ) = 0.13140E+01
  weight for this iteration     100.00

 eigenvalues of (default mixing * dielectric matrix)
  average eigenvalue GAMMA=   0.5503
  0.2051  0.7052  0.7052  0.5681  0.5681

 Free energy of the ion-electron system (eV)
  ---------------------------------------------------
  alpha Z        PSCENC =       453.10565554
  Ewald energy   TEWEN  =     -4853.25068260
  -Hartree energ DENC   =     -1375.56330655
  -exchange      EXHF   =         0.00000000
  -V(xc)+E(xc)   XCENC  =       229.00821666
  PAW double counting   =      5220.32612923    -5522.85488698
  entropy T*S    EENTRO =         0.01895618
  eigenvalues    EBANDS =      -296.62077368
  atomic energy  EATOM  =      6104.32616516
  Solvation  Ediel_sol  =         0.00000000
  ---------------------------------------------------
  free energy    TOTEN  =       -41.50452704 eV

  energy without entropy =      -41.52348322  energy(sigma->0) =      -41.51084576


--------------------------------------------------------------------------------------------------------




--------------------------------------- Iteration      1(  11)  ---------------------------------------


    POTLOK:  cpu time    0.0127: real time    0.0129
    SETDIJ:  cpu time    0.0080: real time    0.0080
     EDDAV:  cpu time    0.5441: real time    0.5454
       DOS:  cpu time    0.0015: real time    0.0015
    CHARGE:  cpu time    0.0278: real time    0.0279
    MIXING:  cpu time    0.0007: real time    0.0007
    --------------------------------------------
      LOOP:  cpu time    0.5948: real time    0.5964

 eigenvalue-minimisations  :  3184
 total energy-change (2. order) :-0.1791657E+00  (-0.6801699E-01)
 number of electron      46.0000058 magnetization       0.0000000
 augmentation part       11.2101977 magnetization       0.0000000

 Broyden mixing:
  rms(total) = 0.69445E+00    rms(broyden)= 0.69443E+00
  rms(prec ) = 0.98794E+00
  weight for this iteration     100.00

 eigenvalues of (default mixing * dielectric matrix)
  average eigenvalue GAMMA=   0.7993
  2.0291  0.2048  0.5427  0.5427  0.8159  0.6607

 Free energy of the ion-electron system (eV)
  ---------------------------------------------------
  alpha Z        PSCENC =       453.10565554
  Ewald energy   TEWEN  =     -4853.25068260
  -Hartree energ DENC   =     -1382.74940587
  -exchange      EXHF   =         0.00000000
  -V(xc)+E(xc)   XCENC  =       230.20555247
  PAW double counting   =      5229.99651561    -5537.32229684
  entropy T*S    EENTRO =         0.01280710
  eigenvalues    EBANDS =      -286.00800332
  atomic energy  EATOM  =      6104.32616516
  Solvation  Ediel_sol  =         0.00000000
  ---------------------------------------------------
  free energy    TOTEN  =       -41.68369275 eV

  energy without entropy =      -41.69649986  energy(sigma->0) =      -41.68796179


--------------------------------------------------------------------------------------------------------




--------------------------------------- Iteration      1(  12)  ---------------------------------------


    POTLOK:  cpu time    0.0124: real time    0.0125
    SETDIJ:  cpu time    0.0074: real time    0.0074
     EDDAV:  cpu time    0.6400: real time    0.6415
       DOS:  cpu time    0.0014: real time    0.0014
    CHARGE:  cpu time    0.0254: real time    0.0254
    MIXING:  cpu time    0.0008: real time    0.0008
    --------------------------------------------
      LOOP:  cpu time    0.6874: real time    0.6891

 eigenvalue-minimisations  :  3496
 total energy-change (2. order) :-0.1420057E+00  (-0.1335498E+00)
 number of electron      46.0000056 magnetization      -0.0000000
 augmentation part       11.2723216 magnetization      -0.0000000

 Broyden mixing:
  rms(total) = 0.47232E+00    rms(broyden)= 0.47228E+00
  rms(prec ) = 0.71536E+00
  weight for this iteration     100.00

 eigenvalues of (default mixing * dielectric matrix)
  average eigenvalue GAMMA=   0.8178
  2.3857  0.2048  0.5634  0.5634  0.8206  0.5935  0.5935

 Free energy of the ion-electron system (eV)
  ---------------------------------------------------
  alpha Z        PSCENC =       453.10565554
  Ewald energy   TEWEN  =     -4853.25068260
  -Hartree energ DENC   =     -1386.52329542
  -exchange      EXHF   =         0.00000000
  -V(xc)+E(xc)   XCENC  =       233.28689405
  PAW double counting   =      5260.13771886    -5575.60970152
  entropy T*S    EENTRO =         0.01281232
  eigenvalues    EBANDS =      -277.31126481
  atomic energy  EATOM  =      6104.32616516
  Solvation  Ediel_sol  =         0.00000000
  ---------------------------------------------------
  free energy    TOTEN  =       -41.82569842 eV

  energy without entropy =      -41.83851074  energy(sigma->0) =      -41.82996919


--------------------------------------------------------------------------------------------------------




--------------------------------------- Iteration      1(  13)  ---------------------------------------


    POTLOK:  cpu time    0.0123: real time    0.0124
    SETDIJ:  cpu time    0.0075: real time    0.0075
     EDDAV:  cpu time    0.5242: real time    0.5254
       DOS:  cpu time    0.0016: real time    0.0016
    CHARGE:  cpu time    0.0291: real time    0.0292
    MIXING:  cpu time    0.0009: real time    0.0009
    --------------------------------------------
      LOOP:  cpu time    0.5756: real time    0.5770

 eigenvalue-minimisations  :  2948
 total energy-change (2. order) : 0.1931498E+00  (-0.6988951E-01)
 number of electron      46.0000058 magnetization      -0.0000000
 augmentation part       11.5926118 magnetization      -0.0000000

 Broyden mixing:
  rms(total) = 0.25061E+00    rms(broyden)= 0.25060E+00
  rms(prec ) = 0.33734E+00
  weight for this iteration     100.00

 eigenvalues of (default mixing * dielectric matrix)
  average eigenvalue GAMMA=   0.8914
  2.5903  0.2048  0.5444  0.5444  0.9526  0.8367  0.8367  0.6214

 Free energy of the ion-electron system (eV)
  ---------------------------------------------------
  alpha Z        PSCENC =       453.10565554
  Ewald energy   TEWEN  =     -4853.25068260
  -Hartree energ DENC   =     -1379.18212238
  -exchange      EXHF   =         0.00000000
  -V(xc)+E(xc)   XCENC  =       232.93890925
  PAW double counting   =      5263.11656890    -5575.18476021
  entropy T*S    EENTRO =         0.02186397
  eigenvalues    EBANDS =      -287.52414625
  atomic energy  EATOM  =      6104.32616516
  Solvation  Ediel_sol  =         0.00000000
  ---------------------------------------------------
  free energy    TOTEN  =       -41.63254861 eV

  energy without entropy =      -41.65441259  energy(sigma->0) =      -41.63983660


--------------------------------------------------------------------------------------------------------




--------------------------------------- Iteration      1(  14)  ---------------------------------------


    POTLOK:  cpu time    0.0129: real time    0.0130
    SETDIJ:  cpu time    0.0076: real time    0.0076
     EDDAV:  cpu time    0.5624: real time    0.5637
       DOS:  cpu time    0.0014: real time    0.0014
    CHARGE:  cpu time    0.0257: real time    0.0258
    MIXING:  cpu time    0.0009: real time    0.0009
    --------------------------------------------
      LOOP:  cpu time    0.6108: real time    0.6124

 eigenvalue-minimisations  :  3280
 total energy-change (2. order) : 0.1179472E-01  (-0.1340311E-01)
 number of electron      46.0000058 magnetization       0.0000000
 augmentation part       11.6964884 magnetization       0.0000000

 Broyden mixing:
  rms(total) = 0.16215E+00    rms(broyden)= 0.16214E+00
  rms(prec ) = 0.21644E+00
  weight for this iteration     100.00

 eigenvalues of (default mixing * dielectric matrix)
  average eigenvalue GAMMA=   0.9400
  2.7658  1.0150  1.0150  0.2048  0.5466  0.5466  0.9849  0.6907  0.6907

 Free energy of the ion-electron system (eV)
  ---------------------------------------------------
  alpha Z        PSCENC =       453.10565554
  Ewald energy   TEWEN  =     -4853.25068260
  -Hartree energ DENC   =     -1376.54206137
  -exchange      EXHF   =         0.00000000
  -V(xc)+E(xc)   XCENC  =       232.70196853
  PAW double counting   =      5271.86443440    -5581.99992899
  entropy T*S    EENTRO =         0.02160949
  eigenvalues    EBANDS =      -291.84791406
  atomic energy  EATOM  =      6104.32616516
  Solvation  Ediel_sol  =         0.00000000
  ---------------------------------------------------
  free energy    TOTEN  =       -41.62075389 eV

  energy without entropy =      -41.64236338  energy(sigma->0) =      -41.62795706


--------------------------------------------------------------------------------------------------------




--------------------------------------- Iteration      1(  15)  ---------------------------------------


    POTLOK:  cpu time    0.0126: real time    0.0128
    SETDIJ:  cpu time    0.0079: real time    0.0079
     EDDAV:  cpu time    0.5026: real time    0.5038
       DOS:  cpu time    0.0014: real time    0.0014
    CHARGE:  cpu time    0.0246: real time    0.0247
    MIXING:  cpu time    0.0008: real time    0.0008
    --------------------------------------------
      LOOP:  cpu time    0.5499: real time    0.5513

 eigenvalue-minimisations  :  2928
 total energy-change (2. order) :-0.4382109E-02  (-0.5176861E-02)
 number of electron      46.0000058 magnetization       0.0000000
 augmentation part       11.7499996 magnetization       0.0000000

 Broyden mixing:
  rms(total) = 0.74013E-01    rms(broyden)= 0.74000E-01
  rms(prec ) = 0.14000E+00
  weight for this iteration     100.00

 eigenvalues of (default mixing * dielectric matrix)
  average eigenvalue GAMMA=   0.9823
  2.4083  1.5506  1.5506  0.2048  0.5474  0.5474  0.9485  0.7282  0.7282  0.6089

 Free energy of the ion-electron system (eV)
  ---------------------------------------------------
  alpha Z        PSCENC =       453.10565554
  Ewald energy   TEWEN  =     -4853.25068260
  -Hartree energ DENC   =     -1375.84744047
  -exchange      EXHF   =         0.00000000
  -V(xc)+E(xc)   XCENC  =       232.30586868
  PAW double counting   =      5279.19222395    -5587.03336257
  entropy T*S    EENTRO =         0.02100571
  eigenvalues    EBANDS =      -294.44456939
  atomic energy  EATOM  =      6104.32616516
  Solvation  Ediel_sol  =         0.00000000
  ---------------------------------------------------
  free energy    TOTEN  =       -41.62513600 eV

  energy without entropy =      -41.64614171  energy(sigma->0) =      -41.63213790


--------------------------------------------------------------------------------------------------------




--------------------------------------- Iteration      1(  16)  ---------------------------------------


    POTLOK:  cpu time    0.0117: real time    0.0118
    SETDIJ:  cpu time    0.0071: real time    0.0071
     EDDAV:  cpu time    0.4749: real time    0.4760
       DOS:  cpu time    0.0014: real time    0.0014
    CHARGE:  cpu time    0.0244: real time    0.0244
    MIXING:  cpu time    0.0010: real time    0.0010
    --------------------------------------------
      LOOP:  cpu time    0.5204: real time    0.5217

 eigenvalue-minimisations  :  2720
 total energy-change (2. order) : 0.3775603E-02  (-0.3543187E-02)
 number of electron      46.0000058 magnetization      -0.0000000
 augmentation part       11.6835920 magnetization      -0.0000000

 Broyden mixing:
  rms(total) = 0.36243E-01    rms(broyden)= 0.36241E-01
  rms(prec ) = 0.59469E-01
  weight for this iteration     100.00

 eigenvalues of (default mixing * dielectric matrix)
  average eigenvalue GAMMA=   0.9718
  2.2261  2.2261  1.2652  0.2048  0.5474  0.5474  0.9742  0.6870  0.6870  0.7464
  0.5781

 Free energy of the ion-electron system (eV)
  ---------------------------------------------------
  alpha Z        PSCENC =       453.10565554
  Ewald energy   TEWEN  =     -4853.25068260
  -Hartree energ DENC   =     -1378.00380841
  -exchange      EXHF   =         0.00000000
  -V(xc)+E(xc)   XCENC  =       232.33790621
  PAW double counting   =      5283.02379493    -5590.82787923
  entropy T*S    EENTRO =         0.02223236
  eigenvalues    EBANDS =      -292.35474436
  atomic energy  EATOM  =      6104.32616516
  Solvation  Ediel_sol  =         0.00000000
  ---------------------------------------------------
  free energy    TOTEN  =       -41.62136040 eV

  energy without entropy =      -41.64359276  energy(sigma->0) =      -41.62877119


--------------------------------------------------------------------------------------------------------




--------------------------------------- Iteration      1(  17)  ---------------------------------------


    POTLOK:  cpu time    0.0129: real time    0.0130
    SETDIJ:  cpu time    0.0079: real time    0.0079
     EDDAV:  cpu time    0.6103: real time    0.6117
       DOS:  cpu time    0.0014: real time    0.0014
    CHARGE:  cpu time    0.0245: real time    0.0245
    MIXING:  cpu time    0.0011: real time    0.0011
    --------------------------------------------
      LOOP:  cpu time    0.6580: real time    0.6596

 eigenvalue-minimisations  :  3496
 total energy-change (2. order) : 0.6589660E-03  (-0.3390701E-03)
 number of electron      46.0000058 magnetization       0.0000000
 augmentation part       11.6753393 magnetization       0.0000000

 Broyden mixing:
  rms(total) = 0.20684E-01    rms(broyden)= 0.20682E-01
  rms(prec ) = 0.29277E-01
  weight for this iteration     100.00

 eigenvalues of (default mixing * dielectric matrix)
  average eigenvalue GAMMA=   1.0196
  2.5584  2.5584  0.2048  0.5472  0.5472  1.0518  1.0518  0.8198  0.8198  0.7289
  0.7289  0.6182

 Free energy of the ion-electron system (eV)
  ---------------------------------------------------
  alpha Z        PSCENC =       453.10565554
  Ewald energy   TEWEN  =     -4853.25068260
  -Hartree energ DENC   =     -1378.43129251
  -exchange      EXHF   =         0.00000000
  -V(xc)+E(xc)   XCENC  =       232.30624437
  PAW double counting   =      5285.34365114    -5592.86372410
  entropy T*S    EENTRO =         0.02262373
  eigenvalues    EBANDS =      -292.17934217
  atomic energy  EATOM  =      6104.32616516
  Solvation  Ediel_sol  =         0.00000000
  ---------------------------------------------------
  free energy    TOTEN  =       -41.62070143 eV

  energy without entropy =      -41.64332517  energy(sigma->0) =      -41.62824268


--------------------------------------------------------------------------------------------------------




--------------------------------------- Iteration      1(  18)  ---------------------------------------


    POTLOK:  cpu time    0.0128: real time    0.0130
    SETDIJ:  cpu time    0.0080: real time    0.0080
     EDDAV:  cpu time    0.5923: real time    0.5937
       DOS:  cpu time    0.0014: real time    0.0014
    CHARGE:  cpu time    0.0246: real time    0.0247
    MIXING:  cpu time    0.0011: real time    0.0011
    --------------------------------------------
      LOOP:  cpu time    0.6403: real time    0.6420

 eigenvalue-minimisations  :  3416
 total energy-change (2. order) : 0.1215385E-03  (-0.4301755E-04)
 number of electron      46.0000058 magnetization       0.0000000
 augmentation part       11.6752533 magnetization       0.0000000

 Broyden mixing:
  rms(total) = 0.18679E-01    rms(broyden)= 0.18679E-01
  rms(prec ) = 0.24307E-01
  weight for this iteration     100.00

 eigenvalues of (default mixing * dielectric matrix)
  average eigenvalue GAMMA=   1.0089
  2.5443  2.5443  1.1803  1.0267  1.0267  0.2048  0.5472  0.5472  0.7366  0.7366
  0.7257  0.7257  0.5702

 Free energy of the ion-electron system (eV)
  ---------------------------------------------------
  alpha Z        PSCENC =       453.10565554
  Ewald energy   TEWEN  =     -4853.25068260
  -Hartree energ DENC   =     -1378.45632026
  -exchange      EXHF   =         0.00000000
  -V(xc)+E(xc)   XCENC  =       232.31677633
  PAW double counting   =      5285.62279800    -5593.19506826
  entropy T*S    EENTRO =         0.02253374
  eigenvalues    EBANDS =      -292.11243755
  atomic energy  EATOM  =      6104.32616516
  Solvation  Ediel_sol  =         0.00000000
  ---------------------------------------------------
  free energy    TOTEN  =       -41.62057990 eV

  energy without entropy =      -41.64311363  energy(sigma->0) =      -41.62809114


--------------------------------------------------------------------------------------------------------




--------------------------------------- Iteration      1(  19)  ---------------------------------------


    POTLOK:  cpu time    0.0135: real time    0.0136
    SETDIJ:  cpu time    0.0084: real time    0.0084
     EDDAV:  cpu time    0.5876: real time    0.5890
       DOS:  cpu time    0.0014: real time    0.0014
    CHARGE:  cpu time    0.0239: real time    0.0240
    MIXING:  cpu time    0.0012: real time    0.0012
    --------------------------------------------
      LOOP:  cpu time    0.6360: real time    0.6376

 eigenvalue-minimisations  :  3352
 total energy-change (2. order) : 0.8132056E-04  (-0.1523903E-04)
 number of electron      46.0000058 magnetization      -0.0000000
 augmentation part       11.6728405 magnetization      -0.0000000

 Broyden mixing:
  rms(total) = 0.17293E-01    rms(broyden)= 0.17293E-01
  rms(prec ) = 0.19967E-01
  weight for this iteration     100.00

 eigenvalues of (default mixing * dielectric matrix)
  average eigenvalue GAMMA=   1.0636
  2.4324  2.4324  1.8741  1.2979  1.2979  0.2048  0.5472  0.5472  0.7850  0.7850
  0.7072  0.7072  0.6360  0.6360

 Free energy of the ion-electron system (eV)
  ---------------------------------------------------
  alpha Z        PSCENC =       453.10565554
  Ewald energy   TEWEN  =     -4853.25068260
  -Hartree energ DENC   =     -1378.45505110
  -exchange      EXHF   =         0.00000000
  -V(xc)+E(xc)   XCENC  =       232.31435674
  PAW double counting   =      5285.58223667    -5593.23049535
  entropy T*S    EENTRO =         0.02259121
  eigenvalues    EBANDS =      -292.03527485
  atomic energy  EATOM  =      6104.32616516
  Solvation  Ediel_sol  =         0.00000000
  ---------------------------------------------------
  free energy    TOTEN  =       -41.62049857 eV

  energy without entropy =      -41.64308979  energy(sigma->0) =      -41.62802898


--------------------------------------------------------------------------------------------------------




--------------------------------------- Iteration      1(  20)  ---------------------------------------


    POTLOK:  cpu time    0.0125: real time    0.0127
    SETDIJ:  cpu time    0.0078: real time    0.0078
     EDDAV:  cpu time    0.5992: real time    0.6006
       DOS:  cpu time    0.0014: real time    0.0014
    CHARGE:  cpu time    0.0254: real time    0.0255
    MIXING:  cpu time    0.0015: real time    0.0015
    --------------------------------------------
      LOOP:  cpu time    0.6478: real time    0.6496

 eigenvalue-minimisations  :  3232
 total energy-change (2. order) :-0.5604174E-04  (-0.5818838E-04)
 number of electron      46.0000058 magnetization      -0.0000000
 augmentation part       11.6744885 magnetization      -0.0000000

 Broyden mixing:
  rms(total) = 0.90890E-02    rms(broyden)= 0.90879E-02
  rms(prec ) = 0.11872E-01
  weight for this iteration     100.00

 eigenvalues of (default mixing * dielectric matrix)
  average eigenvalue GAMMA=   1.1435
  2.9300  2.9300  2.5026  1.2338  1.2338  0.2048  0.5472  0.5472  0.7761  0.7761
  0.7729  0.7729  0.6621  0.6621  0.6007

 Free energy of the ion-electron system (eV)
  ---------------------------------------------------
  alpha Z        PSCENC =       453.10565554
  Ewald energy   TEWEN  =     -4853.25068260
  -Hartree energ DENC   =     -1378.20568363
  -exchange      EXHF   =         0.00000000
  -V(xc)+E(xc)   XCENC  =       232.26287337
  PAW double counting   =      5285.32292620    -5593.02530890
  entropy T*S    EENTRO =         0.02275170
  eigenvalues    EBANDS =      -292.17925146
  atomic energy  EATOM  =      6104.32616516
  Solvation  Ediel_sol  =         0.00000000
  ---------------------------------------------------
  free energy    TOTEN  =       -41.62055462 eV

  energy without entropy =      -41.64330632  energy(sigma->0) =      -41.62813852


--------------------------------------------------------------------------------------------------------




--------------------------------------- Iteration      1(  21)  ---------------------------------------


    POTLOK:  cpu time    0.0135: real time    0.0136
    SETDIJ:  cpu time    0.0080: real time    0.0080
     EDDAV:  cpu time    0.5468: real time    0.5481
       DOS:  cpu time    0.0015: real time    0.0015
    CHARGE:  cpu time    0.0276: real time    0.0276
    MIXING:  cpu time    0.0013: real time    0.0013
    --------------------------------------------
      LOOP:  cpu time    0.5986: real time    0.6001

 eigenvalue-minimisations  :  3176
 total energy-change (2. order) : 0.7008550E-05  (-0.1381060E-04)
 number of electron      46.0000058 magnetization       0.0000000
 augmentation part       11.6716191 magnetization       0.0000000

 Broyden mixing:
  rms(total) = 0.66822E-02    rms(broyden)= 0.66822E-02
  rms(prec ) = 0.91610E-02
  weight for this iteration     100.00

 eigenvalues of (default mixing * dielectric matrix)
  average eigenvalue GAMMA=   1.1076
  2.8678  2.8678  2.5814  1.2174  1.2174  0.2048  0.5472  0.5472  0.7742  0.7742
  0.7847  0.7847  0.6692  0.6692  0.6069  0.6069

 Free energy of the ion-electron system (eV)
  ---------------------------------------------------
  alpha Z        PSCENC =       453.10565554
  Ewald energy   TEWEN  =     -4853.25068260
  -Hartree energ DENC   =     -1378.18219287
  -exchange      EXHF   =         0.00000000
  -V(xc)+E(xc)   XCENC  =       232.23669282
  PAW double counting   =      5284.86704926    -5592.62519081
  entropy T*S    EENTRO =         0.02276705
  eigenvalues    EBANDS =      -292.12081115
  atomic energy  EATOM  =      6104.32616516
  Solvation  Ediel_sol  =         0.00000000
  ---------------------------------------------------
  free energy    TOTEN  =       -41.62054761 eV

  energy without entropy =      -41.64331465  energy(sigma->0) =      -41.62813662


--------------------------------------------------------------------------------------------------------




--------------------------------------- Iteration      1(  22)  ---------------------------------------


    POTLOK:  cpu time    0.0133: real time    0.0134
    SETDIJ:  cpu time    0.0080: real time    0.0080
     EDDAV:  cpu time    0.4827: real time    0.4839
       DOS:  cpu time    0.0014: real time    0.0014
    CHARGE:  cpu time    0.0278: real time    0.0279
    MIXING:  cpu time    0.0014: real time    0.0014
    --------------------------------------------
      LOOP:  cpu time    0.5347: real time    0.5360

 eigenvalue-minimisations  :  2760
 total energy-change (2. order) : 0.1993437E-04  (-0.2494637E-05)
 number of electron      46.0000058 magnetization      -0.0000000
 augmentation part       11.6704120 magnetization      -0.0000000

 Broyden mixing:
  rms(total) = 0.45280E-02    rms(broyden)= 0.45279E-02
  rms(prec ) = 0.60656E-02
  weight for this iteration     100.00

 eigenvalues of (default mixing * dielectric matrix)
  average eigenvalue GAMMA=   1.0910
  2.9286  2.9286  2.4845  1.1654  1.1654  0.2048  0.5472  0.5472  0.8110  0.8110
  0.7907  0.7907  0.7434  0.7434  0.6140  0.6355  0.6355

 Free energy of the ion-electron system (eV)
  ---------------------------------------------------
  alpha Z        PSCENC =       453.10565554
  Ewald energy   TEWEN  =     -4853.25068260
  -Hartree energ DENC   =     -1378.22178263
  -exchange      EXHF   =         0.00000000
  -V(xc)+E(xc)   XCENC  =       232.23958521
  PAW double counting   =      5284.66994269    -5592.44415411
  entropy T*S    EENTRO =         0.02273560
  eigenvalues    EBANDS =      -292.06799253
  atomic energy  EATOM  =      6104.32616516
  Solvation  Ediel_sol  =         0.00000000
  ---------------------------------------------------
  free energy    TOTEN  =       -41.62052767 eV

  energy without entropy =      -41.64326327  energy(sigma->0) =      -41.62810621


--------------------------------------------------------------------------------------------------------




--------------------------------------- Iteration      1(  23)  ---------------------------------------


    POTLOK:  cpu time    0.0124: real time    0.0126
    SETDIJ:  cpu time    0.0078: real time    0.0078
     EDDAV:  cpu time    0.5206: real time    0.5218
       DOS:  cpu time    0.0014: real time    0.0014
    CHARGE:  cpu time    0.0283: real time    0.0284
    MIXING:  cpu time    0.0015: real time    0.0015
    --------------------------------------------
      LOOP:  cpu time    0.5719: real time    0.5734

 eigenvalue-minimisations  :  2904
 total energy-change (2. order) : 0.8309139E-05  (-0.2029861E-05)
 number of electron      46.0000058 magnetization      -0.0000000
 augmentation part       11.6692862 magnetization      -0.0000000

 Broyden mixing:
  rms(total) = 0.33354E-02    rms(broyden)= 0.33353E-02
  rms(prec ) = 0.40721E-02
  weight for this iteration     100.00

 eigenvalues of (default mixing * dielectric matrix)
  average eigenvalue GAMMA=   1.1293
  2.8202  2.8202  2.3256  1.6458  1.4199  1.4199  0.2048  0.5472  0.5472  0.7799
  0.7799  0.8494  0.8494  0.7742  0.7742  0.6067  0.6067  0.5556

 Free energy of the ion-electron system (eV)
  ---------------------------------------------------
  alpha Z        PSCENC =       453.10565554
  Ewald energy   TEWEN  =     -4853.25068260
  -Hartree energ DENC   =     -1378.25252137
  -exchange      EXHF   =         0.00000000
  -V(xc)+E(xc)   XCENC  =       232.23974788
  PAW double counting   =      5284.45643113    -5592.24083005
  entropy T*S    EENTRO =         0.02273168
  eigenvalues    EBANDS =      -292.02721674
  atomic energy  EATOM  =      6104.32616516
  Solvation  Ediel_sol  =         0.00000000
  ---------------------------------------------------
  free energy    TOTEN  =       -41.62051936 eV

  energy without entropy =      -41.64325105  energy(sigma->0) =      -41.62809659


--------------------------------------------------------------------------------------------------------




--------------------------------------- Iteration      1(  24)  ---------------------------------------


    POTLOK:  cpu time    0.0127: real time    0.0128
    SETDIJ:  cpu time    0.0080: real time    0.0080
     EDDAV:  cpu time    0.4244: real time    0.4254
       DOS:  cpu time    0.0014: real time    0.0014
    CHARGE:  cpu time    0.0280: real time    0.0280
    MIXING:  cpu time    0.0016: real time    0.0016
    --------------------------------------------
      LOOP:  cpu time    0.4760: real time    0.4773

 eigenvalue-minimisations  :  2268
 total energy-change (2. order) : 0.2193215E-05  (-0.1069665E-05)
 number of electron      46.0000058 magnetization      -0.0000000
 augmentation part       11.6689660 magnetization      -0.0000000

 Broyden mixing:
  rms(total) = 0.11866E-02    rms(broyden)= 0.11864E-02
  rms(prec ) = 0.13555E-02
  weight for this iteration     100.00

 eigenvalues of (default mixing * dielectric matrix)
  average eigenvalue GAMMA=   1.1642
  2.8686  2.8686  2.5238  2.5238  1.3487  1.3487  0.2048  0.5472  0.5472  0.7785
  0.7785  0.9023  0.9023  0.7490  0.7490  0.6480  0.6480  0.5917  0.5917

 Free energy of the ion-electron system (eV)
  ---------------------------------------------------
  alpha Z        PSCENC =       453.10565554
  Ewald energy   TEWEN  =     -4853.25068260
  -Hartree energ DENC   =     -1378.29077248
  -exchange      EXHF   =         0.00000000
  -V(xc)+E(xc)   XCENC  =       232.24636460
  PAW double counting   =      5284.37933115    -5592.15836555
  entropy T*S    EENTRO =         0.02271271
  eigenvalues    EBANDS =      -292.00092570
  atomic energy  EATOM  =      6104.32616516
  Solvation  Ediel_sol  =         0.00000000
  ---------------------------------------------------
  free energy    TOTEN  =       -41.62051717 eV

  energy without entropy =      -41.64322988  energy(sigma->0) =      -41.62808807


--------------------------------------------------------------------------------------------------------




--------------------------------------- Iteration      1(  25)  ---------------------------------------


    POTLOK:  cpu time    0.0128: real time    0.0129
    SETDIJ:  cpu time    0.0079: real time    0.0079
     EDDAV:  cpu time    0.3352: real time    0.3360
       DOS:  cpu time    0.0015: real time    0.0015
    --------------------------------------------
      LOOP:  cpu time    0.3574: real time    0.3583

 eigenvalue-minimisations  :  1740
 total energy-change (2. order) :-0.6772188E-07  (-0.2106868E-06)
 number of electron      46.0000058 magnetization       0.0000000
 augmentation part       11.6689660 magnetization       0.0000000

 Free energy of the ion-electron system (eV)
  ---------------------------------------------------
  alpha Z        PSCENC =       453.10565554
  Ewald energy   TEWEN  =     -4853.25068260
  -Hartree energ DENC   =     -1378.30755696
  -exchange      EXHF   =         0.00000000
  -V(xc)+E(xc)   XCENC  =       232.24926507
  PAW double counting   =      5284.34661494    -5592.12389594
  entropy T*S    EENTRO =         0.02270604
  eigenvalues    EBANDS =      -291.98878847
  atomic energy  EATOM  =      6104.32616516
  Solvation  Ediel_sol  =         0.00000000
  ---------------------------------------------------
  free energy    TOTEN  =       -41.62051724 eV

  energy without entropy =      -41.64322327  energy(sigma->0) =      -41.62808592


--------------------------------------------------------------------------------------------------------




 average (electrostatic) potential at core
  the test charge radii are     1.1829  0.7215
  (the norm of the test charge is              1.0000)
       1 -37.4060       2 -37.4060       3 -71.1906       4 -71.1906
 
 
 
 E-fermi :   4.8305     XC(G=0): -11.0338     alpha+bet :-12.2018


 spin component 1

 k-point     1 :       0.1250    0.1250    0.1250
  band No.  band energies     occupation 
      1     -36.2591      1.00000
      2     -33.1963      1.00000
      3     -15.4360      1.00000
      4     -15.3422      1.00000
      5     -15.0102      1.00000
      6     -14.1567      1.00000
      7     -13.5218      1.00000
      8     -12.7362      1.00000
      9     -12.6325      1.00000
     10     -12.1303      1.00000
     11       0.3003      1.00000
     12       0.5383      1.00000
     13       0.8127      1.00000
     14       0.9429      1.00000
     15       0.9874      1.00000
     16       1.1071      1.00000
     17       4.4145      1.00000
     18       4.4880      1.00001
     19       4.5960      1.00226
     20       4.6825      1.02853
     21       4.7369      1.01714
     22       4.7752      0.89766
     23       4.7847      0.84575
     24       5.3738     -0.00000
     25       6.3928     -0.00000
     26       6.6672     -0.00000
     27       7.8522      0.00000
     28       7.9360      0.00000

 k-point     2 :       0.3750    0.1250    0.1250
  band No.  band energies     occupation 
      1     -36.2320      1.00000
      2     -33.1631      1.00000
      3     -16.0724      1.00000
      4     -15.4405      1.00000
      5     -14.9519      1.00000
      6     -14.5953      1.00000
      7     -13.1792      1.00000
      8     -12.6858      1.00000
      9     -12.4572      1.00000
     10     -11.7085      1.00000
     11      -0.3581      1.00000
     12      -0.2003      1.00000
     13       0.4026      1.00000
     14       0.4850      1.00000
     15       0.7151      1.00000
     16       0.8616      1.00000
     17       4.4601      1.00000
     18       4.4667      1.00000
     19       4.5539      1.00033
     20       4.6408      1.01099
     21       4.6788      1.02689
     22       4.7073      1.03545
     23       4.7513      0.98792
     24       6.2453     -0.00000
     25       7.3094     -0.00000
     26       7.5559     -0.00000
     27       8.1722      0.00000
     28       9.0172      0.00000

 k-point     3 :       0.1250    0.3750    0.1250
  band No.  band energies     occupation 
      1     -36.2320      1.00000
      2     -33.1631      1.00000
      3     -16.0724      1.00000
      4     -15.4406      1.00000
      5     -14.9519      1.00000
      6     -14.5953      1.00000
      7     -13.1791      1.00000
      8     -12.6858      1.00000
      9     -12.4572      1.00000
     10     -11.7085      1.00000
     11      -0.3581      1.00000
     12      -0.2002      1.00000
     13       0.4026      1.00000
     14       0.4850      1.00000
     15       0.7151      1.00000
     16       0.8616      1.00000
     17       4.4600      1.00000
     18       4.4667      1.00000
     19       4.5539      1.00033
     20       4.6408      1.01099
     21       4.6788      1.02690
     22       4.7072      1.03545
     23       4.7513      0.98784
     24       6.2453     -0.00000
     25       7.3095     -0.00000
     26       7.5558     -0.00000
     27       8.1721      0.00000
     28       9.0170      0.00000

 k-point     4 :       0.3750    0.3750    0.1250
  band No.  band energies     occupation 
      1     -36.2072      1.00000
      2     -33.1313      1.00000
      3     -15.6714      1.00000
      4     -15.3823      1.00000
      5     -15.2629      1.00000
      6     -14.2054      1.00000
      7     -13.6070      1.00000
      8     -13.1516      1.00000
      9     -12.6215      1.00000
     10     -12.4659      1.00000
     11       0.4220      1.00000
     12       0.5594      1.00000
     13       0.8579      1.00000
     14       0.9693      1.00000
     15       1.0060      1.00000
     16       1.1411      1.00000
     17       4.3696      1.00000
     18       4.4919      1.00001
     19       4.5135      1.00003
     20       4.5439      1.00019
     21       4.6903      1.03171
     22       4.7028      1.03507
     23       4.7781      0.88283
     24       4.9836     -0.02623
     25       5.4186     -0.00000
     26       8.6572      0.00000
     27       8.8779      0.00000
     28       9.1978      0.00000

 k-point     5 :       0.1250   -0.3750    0.1250
  band No.  band energies     occupation 
      1     -36.2320      1.00000
      2     -33.1631      1.00000
[...]
 -4.016  -0.359  -0.000   0.000   0.000   0.000  -0.000  -0.000
  0.000  -0.000 -15.669  -0.004   0.005   7.374   0.004  -0.004
 -0.000   0.000  -0.004 -15.666  -0.007   0.004   7.371   0.006
 -0.000   0.000   0.005  -0.007 -15.663  -0.004   0.006   7.369
  0.000   0.000   7.374   0.004  -0.004   4.939  -0.003   0.004
 -0.000  -0.000   0.004   7.371   0.006  -0.003   4.941  -0.006
 -0.000  -0.000  -0.004   0.006   7.369   0.004  -0.006   4.944
  0.004  -0.000  -0.000   0.000   0.000  -0.000   0.000   0.000
 -0.003   0.000  -0.000   0.000   0.000  -0.000   0.000   0.000
  0.000   0.000  -0.000  -0.000   0.000  -0.000  -0.000   0.000
 -0.005   0.000   0.000  -0.000  -0.000   0.000  -0.000  -0.000
  0.002  -0.000  -0.000  -0.000  -0.000  -0.000  -0.000  -0.000
 -0.006   0.001  -0.000   0.000   0.000   0.000  -0.000  -0.000
  0.005  -0.000  -0.000   0.000   0.000   0.000  -0.000  -0.000
 -0.000  -0.000   0.000   0.000  -0.000   0.000   0.000  -0.000
  0.009  -0.001   0.000  -0.000  -0.000  -0.000   0.000   0.000
 -0.004   0.000   0.000  -0.000  -0.000   0.000   0.000   0.000
 -0.000   0.000   0.001  -0.003   0.001  -0.001  -0.001  -0.001
 -0.000   0.000  -0.002   0.001  -0.004   0.002  -0.001  -0.000
 -0.000   0.000   0.002  -0.001  -0.001   0.000   0.001   0.000
 -0.000   0.000   0.001  -0.003   0.001  -0.001  -0.001  -0.001
  0.000  -0.000  -0.001  -0.002   0.001   0.000   0.002   0.001
  0.000  -0.000  -0.002   0.000  -0.002  -0.002  -0.001   0.002
  0.000  -0.000  -0.002  -0.000   0.001   0.001  -0.000  -0.001
 -0.000   0.000   0.001  -0.003   0.001  -0.001  -0.001  -0.001
 -0.000   0.000  -0.002   0.001  -0.004   0.002  -0.001  -0.000
 -0.000   0.000   0.002  -0.001  -0.001   0.000   0.001   0.000
 -0.000   0.000   0.001  -0.003   0.001  -0.001  -0.001  -0.001
  0.000  -0.000  -0.001  -0.003   0.001   0.000   0.002   0.001
  0.000  -0.000  -0.002   0.000  -0.002  -0.002  -0.001   0.002
  0.000  -0.000  -0.002  -0.000   0.001   0.001  -0.000  -0.001
 pseudopotential strength for first ion, spin component:           2
-15.733   0.732   0.000  -0.000  -0.000   0.000  -0.000  -0.000
  0.732  -3.410  -0.000   0.000   0.000   0.000  -0.000  -0.000
  0.000  -0.000 -17.548  -0.004   0.004   7.756   0.004  -0.005
 -0.000   0.000  -0.004 -17.546  -0.006   0.004   7.753   0.008
 -0.000   0.000   0.004  -0.006 -17.543  -0.005   0.008   7.750
  0.000   0.000   7.756   0.004  -0.005   5.169  -0.004   0.005
 -0.000  -0.000   0.004   7.753   0.008  -0.004   5.172  -0.007
 -0.000  -0.000  -0.005   0.008   7.750   0.005  -0.007   5.175
  0.003   0.000  -0.000   0.000   0.000  -0.000   0.000   0.000
 -0.002  -0.000  -0.000   0.000   0.000  -0.000   0.000   0.000
  0.000  -0.000  -0.000  -0.000   0.000  -0.000  -0.000   0.000
 -0.004  -0.000   0.000  -0.000  -0.000   0.000  -0.000  -0.000
  0.002   0.000  -0.000  -0.000  -0.000  -0.000  -0.000  -0.000
 -0.005  -0.000  -0.000   0.000   0.000   0.000  -0.000  -0.000
  0.004   0.000  -0.000   0.000   0.000   0.000  -0.000  -0.000
 -0.000   0.000   0.000   0.000  -0.000   0.000   0.000  -0.000
  0.007   0.001   0.000  -0.000  -0.000  -0.000   0.000   0.000
 -0.003  -0.000   0.000  -0.000  -0.000   0.000   0.000   0.000
 -0.000   0.000   0.002  -0.021   0.003  -0.001   0.012  -0.003
 -0.000   0.000  -0.003   0.003  -0.027   0.003  -0.002   0.016
 -0.000   0.000   0.011  -0.001   0.000  -0.007   0.002   0.000
 -0.000   0.000   0.001  -0.019   0.002  -0.001   0.010  -0.002
  0.000  -0.000   0.000  -0.002   0.012   0.000   0.003  -0.006
  0.000  -0.000  -0.024   0.002  -0.003   0.013  -0.001   0.003
  0.000  -0.000  -0.001  -0.000   0.001   0.002   0.000  -0.001
 -0.000   0.000   0.002  -0.020   0.003  -0.001   0.011  -0.002
 -0.000   0.000  -0.003   0.003  -0.026   0.003  -0.002   0.015
 -0.000   0.000   0.011  -0.001   0.000  -0.006   0.002   0.000
 -0.000   0.000   0.001  -0.018   0.002  -0.001   0.010  -0.002
  0.000  -0.000   0.000  -0.002   0.011   0.000   0.003  -0.006
  0.000  -0.000  -0.023   0.002  -0.003   0.012  -0.001   0.003
  0.000  -0.000  -0.001  -0.000   0.001   0.002   0.000  -0.001
 total augmentation occupancy for first ion, spin component:           1
  1.993  -0.037   0.000   0.000   0.000  -0.000   0.000  -0.000  -0.000   0.000   0.000   0.000  -0.000   0.000  -0.000  -0.000
 -0.037   0.604   0.000   0.000  -0.000   0.000   0.000   0.000   0.000  -0.000  -0.000  -0.000   0.000   0.000  -0.000  -0.000
 -0.000   0.000   2.013   0.000  -0.000  -0.019  -0.000   0.000  -0.000   0.000  -0.000   0.000  -0.000  -0.000   0.000   0.000
  0.000   0.000   0.000   2.012   0.000  -0.000  -0.019  -0.001   0.000   0.000   0.000   0.000   0.000   0.000  -0.000  -0.000
  0.000   0.000  -0.000   0.000   2.012   0.000  -0.001  -0.019   0.000   0.000   0.000   0.000   0.000   0.000  -0.000   0.000
 -0.000   0.000  -0.019  -0.000   0.000   0.020   0.000  -0.000   0.000   0.000   0.000   0.000   0.000   0.000   0.000   0.000
 -0.000   0.000  -0.000  -0.019  -0.001   0.000   0.020   0.000   0.000  -0.000   0.000   0.000   0.000   0.000   0.000   0.000
  0.000   0.000   0.000  -0.001  -0.019  -0.000   0.000   0.020   0.000   0.000   0.000   0.000   0.000   0.000   0.000   0.000
 -0.000   0.000  -0.000   0.000   0.000   0.000   0.000   0.000   0.230   0.003   0.006  -0.081   0.004   0.063   0.000   0.001
  0.000  -0.000   0.000   0.000  -0.000   0.000   0.000   0.000   0.003   0.285   0.003   0.002  -0.084   0.000   0.084   0.000
  0.000  -0.000  -0.000  -0.000   0.000   0.000   0.000  -0.000   0.006   0.003   0.170   0.005   0.004   0.001   0.000   0.041
  0.000  -0.000   0.000   0.000  -0.000   0.000  -0.000   0.000  -0.081   0.002   0.005   0.288   0.003  -0.031   0.000   0.001
 -0.000   0.000   0.000  -0.000   0.000  -0.000   0.000  -0.000   0.004  -0.084   0.004   0.003   0.226   0.001  -0.031   0.001
  0.000   0.000  -0.000   0.000   0.000   0.000   0.000   0.000   0.063   0.000   0.001  -0.031   0.001   0.018   0.000   0.000
 -0.000  -0.000   0.000   0.000   0.000   0.000  -0.000  -0.000   0.000   0.084   0.000   0.000  -0.031   0.000   0.026   0.000
 -0.000  -0.000   0.000  -0.000   0.000   0.000   0.000   0.000   0.001   0.000   0.041   0.001   0.001   0.000   0.000   0.010
 -0.001  -0.000   0.000   0.000   0.000   0.000   0.000   0.000  -0.031   0.000   0.001   0.085   0.000  -0.011   0.000   0.000
  0.000   0.000   0.000   0.000   0.000  -0.000  -0.000  -0.000   0.001  -0.031   0.001   0.000   0.062   0.000  -0.011   0.000
  0.000   0.000   0.001  -0.119   0.001  -0.000   0.081  -0.000  -0.000   0.000   0.000  -0.000   0.000  -0.000   0.000  -0.000
  0.000   0.000  -0.001   0.002  -0.146  -0.000  -0.000   0.099   0.000   0.000  -0.000  -0.000  -0.000  -0.000   0.000   0.000
  0.000   0.000   0.065  -0.000   0.001  -0.044  -0.000  -0.001   0.000   0.000   0.000   0.000  -0.000   0.000   0.000   0.000
  0.000  -0.000   0.001  -0.106   0.001  -0.000   0.072  -0.000   0.000   0.000   0.000  -0.000   0.000   0.000  -0.000   0.000
  0.000  -0.000   0.001  -0.001   0.065  -0.001  -0.001  -0.045  -0.000   0.000   0.000   0.000   0.000   0.000   0.000   0.000
  0.000  -0.000  -0.145   0.001  -0.001   0.099  -0.000  -0.000   0.000  -0.000   0.000   0.000   0.000   0.000  -0.000   0.000
  0.000   0.000   0.000  -0.000  -0.000  -0.001   0.000   0.000   0.000   0.000   0.000   0.000   0.000  -0.000  -0.000   0.000
 -0.000  -0.000  -0.001   0.121  -0.002   0.000  -0.075   0.000   0.000  -0.000  -0.000   0.000  -0.000  -0.000   0.000  -0.000
  0.000   0.000   0.001  -0.002   0.149   0.000   0.000  -0.092   0.000   0.000  -0.000   0.000   0.000  -0.000  -0.000   0.000
  0.000  -0.000  -0.066   0.001  -0.001   0.041   0.000   0.000   0.000   0.000   0.000   0.000  -0.000   0.000   0.000  -0.000
  0.000   0.000  -0.001   0.108  -0.001   0.000  -0.067   0.000  -0.000   0.000  -0.000   0.000   0.000  -0.000   0.000   0.000
  0.000   0.000  -0.001   0.001  -0.067   0.000   0.000   0.041   0.000   0.000   0.000   0.000   0.000   0.000  -0.000   0.000
  0.000   0.000   0.147  -0.001   0.001  -0.092   0.000   0.000   0.000  -0.000   0.000   0.000   0.000   0.000  -0.000   0.000
  0.000   0.000   0.000   0.000  -0.000   0.000  -0.000  -0.000   0.000   0.000  -0.000  -0.000   0.000  -0.000  -0.000   0.000
 total augmentation occupancy for first ion, spin component:           2
 -0.042  -0.159   0.000   0.000   0.000   0.000   0.000   0.000   0.000  -0.000  -0.000  -0.000   0.000   0.000  -0.000  -0.000
 -0.159   0.127   0.000  -0.000   0.000  -0.000   0.000  -0.000  -0.001   0.001  -0.000   0.002  -0.001  -0.001   0.000  -0.000
  0.000   0.000  -0.008   0.000  -0.000  -0.044   0.000  -0.000   0.000   0.000  -0.000   0.000   0.000   0.000   0.000   0.000
  0.000   0.000   0.000  -0.008   0.000   0.000  -0.044   0.000   0.000   0.000   0.000   0.000   0.000   0.000   0.000   0.000
  0.000   0.000  -0.000   0.000  -0.008  -0.000   0.000  -0.044   0.000  -0.000  -0.000   0.000   0.000   0.000  -0.000   0.000
  0.000   0.000  -0.044   0.000  -0.000   0.003   0.000  -0.000   0.000   0.000   0.000   0.000   0.000   0.000   0.000   0.000
  0.000   0.000   0.000  -0.044   0.000   0.000   0.003   0.000   0.000  -0.000   0.000   0.000   0.000   0.000  -0.000  -0.000
  0.000  -0.000  -0.000   0.000  -0.044  -0.000   0.000   0.003   0.000   0.000  -0.000   0.000   0.000   0.000   0.000   0.000
  0.000  -0.001  -0.000   0.000   0.000   0.000   0.000   0.000   0.043   0.008   0.019   0.000   0.010   0.011   0.001   0.003
 -0.000   0.001   0.000   0.000  -0.000   0.000  -0.000   0.000   0.008   0.037   0.008   0.005  -0.009   0.001   0.011   0.001
 -0.000  -0.000  -0.000   0.000   0.000   0.000   0.000  -0.000   0.019   0.008   0.034   0.013   0.011   0.003   0.001   0.008
 -0.000   0.002  -0.000   0.000  -0.000   0.000   0.000   0.000   0.000   0.005   0.013   0.043   0.008  -0.001   0.001   0.002
  0.000  -0.001   0.000   0.000   0.000   0.000   0.000   0.000   0.010  -0.009   0.011   0.008   0.031   0.002  -0.003   0.002
  0.000  -0.001   0.000   0.000   0.000   0.000   0.000   0.000   0.011   0.001   0.003  -0.001   0.002   0.003   0.000   0.001
 -0.000   0.000   0.000   0.000   0.000   0.000   0.000   0.000   0.001   0.011   0.001   0.001  -0.003   0.000   0.003   0.000
 -0.000  -0.000   0.000  -0.000   0.000   0.000   0.000   0.000   0.003   0.001   0.008   0.002   0.002   0.001   0.000   0.002
 -0.000   0.001   0.000   0.000   0.000   0.000   0.000   0.000  -0.001   0.001   0.002   0.012   0.001  -0.001   0.000   0.000
  0.000  -0.000   0.000   0.000   0.000  -0.000   0.000   0.000   0.002  -0.003   0.002   0.001   0.008   0.000  -0.001   0.000
  0.000  -0.000   0.000  -0.010   0.000  -0.000   0.022  -0.000   0.000   0.000  -0.000   0.000  -0.000  -0.000   0.000   0.000
  0.000   0.000  -0.001  -0.001  -0.013  -0.001  -0.001   0.027   0.000  -0.000   0.000  -0.000   0.000  -0.000   0.000   0.000
  0.000   0.000   0.007  -0.001  -0.002  -0.011  -0.001  -0.002   0.000   0.000   0.000   0.000   0.000   0.000   0.000  -0.000
  0.000   0.000   0.000  -0.009   0.000  -0.000   0.020  -0.000   0.000   0.000  -0.000   0.000   0.000   0.000  -0.000  -0.000
  0.000   0.000  -0.002  -0.003   0.005  -0.002  -0.002  -0.013  -0.000   0.000   0.000  -0.000   0.000   0.000   0.000   0.000
  0.000   0.000  -0.012  -0.001  -0.001   0.028  -0.001  -0.001   0.000  -0.000  -0.000   0.000   0.000   0.000   0.000  -0.000
  0.000   0.000  -0.003  -0.000   0.002  -0.003   0.000   0.001   0.000   0.000   0.000   0.000   0.000   0.000  -0.000   0.000
  0.000  -0.000   0.000  -0.003   0.000   0.000  -0.009   0.000  -0.000   0.000   0.000  -0.000   0.000  -0.000   0.000  -0.000
 -0.000   0.000   0.001   0.001  -0.004   0.000   0.001  -0.011   0.000   0.000   0.000   0.000  -0.000   0.000   0.000   0.000
  0.000   0.000   0.001   0.001   0.002   0.004   0.001   0.002   0.000  -0.000   0.000   0.000   0.000   0.000   0.000   0.000
  0.000   0.000   0.000  -0.003   0.000   0.000  -0.008   0.000   0.000   0.000   0.000  -0.000   0.000  -0.000   0.000   0.000
  0.000   0.000   0.002   0.003   0.003   0.002   0.002   0.006   0.000   0.000  -0.000   0.000   0.000   0.000   0.000   0.000
  0.000   0.000  -0.005   0.001   0.001  -0.012   0.001   0.000  -0.000   0.000  -0.000   0.000   0.000   0.000   0.000   0.000
  0.000   0.000   0.003  -0.000  -0.002   0.003  -0.000  -0.001   0.000   0.000   0.000   0.000   0.000  -0.000  -0.000   0.000


------------------------ aborting loop because EDIFF is reached ----------------------------------------


 


 total charge     
 
# of ion       s       p       d       f       tot
--------------------------------------------------
    1        2.083   5.888   0.611   6.725  15.307
    2        2.083   5.888   0.611   6.725  15.307
    3        1.558   3.406   0.000   0.000   4.964
    4        1.558   3.406   0.000   0.000   4.964
--------------------------------------------------
tot          7.282  18.589   1.223  13.449  40.543

 


 magnetization (x)
 
# of ion       s       p       d       f       tot
--------------------------------------------------
    1       -0.007  -0.011   0.099   6.617   6.698
    2        0.007   0.011  -0.099  -6.617  -6.698
    3        0.002   0.036   0.000   0.000   0.038
    4       -0.002  -0.036   0.000   0.000  -0.038
--------------------------------------------------
tot          0.000  -0.000   0.000   0.000  -0.000

 
    CHARGE:  cpu time    0.0423: real time    0.0424
    FORLOC:  cpu time    0.0006: real time    0.0006
    FORNL :  cpu time    0.1175: real time    0.1178
    STRESS:  cpu time    0.1693: real time    0.1697
    FORCOR:  cpu time    0.0127: real time    0.0127
    FORHAR:  cpu time    0.0016: real time    0.0017
    MIXING:  cpu time    0.0017: real time    0.0017
    OFIELD:  cpu time    0.0000: real time    0.0000

  FORCE on cell =-STRESS in cart. coord.  units (eV):
  Direction    XX          YY          ZZ          XY          YZ          ZX
  --------------------------------------------------------------------------------------
  Alpha Z   453.10566   453.10566   453.10566
  Ewald   -1617.75261 -1617.75125 -1617.75302     0.00351     0.00252    -0.00245
  Hartree   459.45532   459.40908   459.43031     0.04046    -0.02998    -0.05376
  E(xc)    -244.17079  -244.16536  -244.16809    -0.00474     0.00387     0.00672
  Local     422.58753   422.81507   422.70512    -0.19957     0.15528     0.27558
  n-local  -226.51271  -226.65769  -226.58568    -0.03558     0.04224    -0.03723
  augment    96.53301    96.33817    96.43557     0.16814    -0.13747    -0.23769
  Kinetic   656.46402   656.66556   656.56486     0.17045    -0.17482    -0.05870
  Fock        0.00000     0.00000     0.00000     0.00000     0.00000     0.00000
  -------------------------------------------------------------------------------------
  Total      -0.20925    -0.32209    -0.26528     0.09772    -0.08054    -0.13950
  in kB      -5.11253    -7.86952    -6.48152     2.38756    -1.96775    -3.40830
  external pressure =       -6.49 kB  Pullay stress =        0.00 kB


 VOLUME and BASIS-vectors are now :
 -----------------------------------------------------------------------------
  energy-cutoff  :      500.00
  volume of cell :       65.58
      direct lattice vectors                 reciprocal lattice vectors
    -1.796261100  3.111279100  0.000000000    -0.139173204  0.241061172  0.000000410
     1.796393000  1.037116700  2.933334000     0.139173204  0.080350044  0.227269672
     3.592637100  2.074162400 -2.933334000     0.139173204  0.080350044 -0.113639341

  length of vectors
     3.592577289  3.592643486  5.080712484     0.278351701  0.278346572  0.196822789


 FORCES acting on ions
    electron-ion (+dipol)            ewald-force                    non-local-force                 convergence-correction
 -----------------------------------------------------------------------------------------------
   -.288E-05 0.194E-05 -.198E-05   0.280E-04 -.189E-04 0.193E-04   -.271E-21 0.629E-21 0.119E-21   -.398E-08 0.268E-08 -.274E-08
   -.288E-05 0.194E-05 -.198E-05   0.280E-04 -.189E-04 0.193E-04   0.529E-22 -.212E-21 0.212E-21   -.398E-08 0.268E-08 -.274E-08
   -.166E-03 0.112E-03 -.115E-03   -.280E-04 0.189E-04 -.193E-04   0.103E-20 0.971E-21 -.974E-21   0.324E-08 -.219E-08 0.221E-08
   -.166E-03 0.112E-03 -.115E-03   -.280E-04 0.189E-04 -.193E-04   0.529E-21 0.127E-20 0.159E-21   0.324E-08 -.219E-08 0.221E-08
 -----------------------------------------------------------------------------------------------
   -.339E-03 0.229E-03 -.233E-03   -.414E-15 -.120E-13 -.346E-15   0.134E-20 0.266E-20 -.484E-21   -.148E-08 0.992E-09 -.105E-08
 
 
 POSITION                                       TOTAL-FORCE (eV/Angst)
 -----------------------------------------------------------------------------------
      0.00000      0.00000      0.00000        -0.000000     -0.000000      0.000000
      1.79638      3.11128      0.00000        -0.000000     -0.000000      0.000000
      0.00006      4.14836     -1.46667         0.000000      0.000000     -0.000000
      0.00007      2.07420      1.46667         0.000000     -0.000000      0.000000
 -----------------------------------------------------------------------------------
    total drift:                               -0.000339      0.000229     -0.000233


--------------------------------------------------------------------------------------------------------



  FREE ENERGIE OF THE ION-ELECTRON SYSTEM (eV)
  ---------------------------------------------------
  free  energy   TOTEN  =       -41.62051724 eV

  energy  without entropy=      -41.64322327  energy(sigma->0) =      -41.62808592
 


--------------------------------------------------------------------------------------------------------


    POTLOK:  cpu time    0.0207: real time    0.0207


--------------------------------------------------------------------------------------------------------


     LOOP+:  cpu time   14.4716: real time   14.8120
    4ORBIT:  cpu time    0.0000: real time    0.0000
 


 total charge     
 
# of ion       s       p       d       f       tot
--------------------------------------------------
    1        2.083   5.888   0.611   6.725  15.307
    2        2.083   5.888   0.611   6.725  15.307
    3        1.558   3.406   0.000   0.000   4.964
    4        1.558   3.406   0.000   0.000   4.964
--------------------------------------------------
tot          7.282  18.589   1.223  13.449  40.543

 


 magnetization (x)
 
# of ion       s       p       d       f       tot
--------------------------------------------------
    1       -0.007  -0.011   0.099   6.617   6.698
    2        0.007   0.011  -0.099  -6.617  -6.698
    3        0.002   0.036   0.000   0.000   0.038
    4       -0.002  -0.036   0.000   0.000  -0.038
--------------------------------------------------
tot          0.000  -0.000   0.000   0.000  -0.000

 

 total amount of memory used by VASP MPI-rank0    38397. kBytes
=======================================================================

   base      :      30000. kBytes
   nonl-proj :       3451. kBytes
   fftplans  :        475. kBytes
   grid      :       1148. kBytes
   one-center:         98. kBytes
   wavefun   :       3225. kBytes
 
  
  
 General timing and accounting informations for this job:
 ========================================================
  
                  Total CPU time used (sec):       15.646
                            User time (sec):       15.468
                          System time (sec):        0.179
                         Elapsed time (sec):       16.690
  
                   Maximum memory used (kb):       61628.
                   Average memory used (kb):           0.
  
                          Minor page faults:        15875
                          Major page faults:            0
                 Voluntary context switches:         1413
