=========================================
SLURM_JOB_ID = 63603120
SLURM_JOB_NODELIST = lnode22
SLURM_GPUS = 
SLURM_CPUS_ON_NODE = 16
SLURM_JOB_PARTITION = lenovo
SLURM_TASK_PID = 2445373
CUDA_VISIBLE_DEVICES = 
==========================================
 running on   16 total cores
 distrk:  each k-point on   16 cores,    1 groups
 distr:  one band on    4 cores,    4 groups
 using from now: INCAR     
 vasp.5.4.4.18Apr17-6-g9f103f2a35 (build Apr 28 2018 00:24:27) complex          
  
 POSCAR found type information on POSCAR  Ni
 POSCAR found :  1 types and       1 ions
 scaLAPACK will be used

 ----------------------------------------------------------------------------- 
|                                                                             |
|  ADVICE TO THIS USER RUNNING 'VASP/VAMP'   (HEAR YOUR MASTER'S VOICE ...):  |
|                                                                             |
|      You have a (more or less) 'small supercell' and for smaller cells      |
|      it is recommended  to use the reciprocal-space projection scheme!      |
|      The real space optimization is not  efficient for small cells and it   |
|      is also less accurate ...                                              |
|      Therefore set LREAL=.FALSE. in the  INCAR file                         |
|                                                                             |
 ----------------------------------------------------------------------------- 

 LDA part: xc-table for Pade appr. of Perdew
 POSCAR, INCAR and KPOINTS ok, starting setup
 FFT: planning ...
 WAVECAR not read
 entering main loop
       N       E                     dE             d eps       ncg     rms          rms(c)
DAV:   1     0.133550845475E+03    0.13355E+03   -0.11197E+04 14576   0.147E+03
DAV:   2     0.201391751800E+01   -0.13154E+03   -0.12596E+03 15320   0.374E+02
DAV:   3    -0.859449518765E+00   -0.28734E+01   -0.28642E+01 17008   0.635E+01
DAV:   4    -0.877518760414E+00   -0.18069E-01   -0.18065E-01 16664   0.483E+00
DAV:   5    -0.877773429754E+00   -0.25467E-03   -0.25460E-03 17536   0.551E-01    0.265E+01
DAV:   6    -0.379760683804E+01   -0.29198E+01   -0.57135E+00 16472   0.539E+01    0.109E+01
DAV:   7    -0.298944820923E+01    0.80816E+00   -0.16034E+00 16824   0.290E+01    0.168E+00
DAV:   8    -0.301689539962E+01   -0.27447E-01   -0.36217E-02 18096   0.171E+00    0.993E-01
DAV:   9    -0.302220581414E+01   -0.53104E-02   -0.28951E-03 18600   0.434E-01    0.520E-01
DAV:  10    -0.303019259409E+01   -0.79868E-02   -0.12675E-02 17784   0.102E+00    0.110E-01
DAV:  11    -0.303054685698E+01   -0.35426E-03   -0.46561E-04 17992   0.311E-01    0.534E-02
DAV:  12    -0.303057429962E+01   -0.27443E-04   -0.56870E-05 19320   0.997E-02    0.264E-02
DAV:  13    -0.303061273263E+01   -0.38433E-04   -0.22391E-05 17432   0.533E-02    0.124E-02
DAV:  14    -0.303062311272E+01   -0.10380E-04   -0.11832E-06 19608   0.145E-02    0.624E-03
DAV:  15    -0.303062845209E+01   -0.53394E-05   -0.11902E-07 14048   0.505E-03    0.250E-03
DAV:  16    -0.303062795403E+01    0.49806E-06   -0.48187E-08  9800   0.294E-03    0.742E-04
DAV:  17    -0.303062741276E+01    0.54127E-06   -0.99416E-09  7768   0.108E-03    0.136E-04
DAV:  18    -0.303062723462E+01    0.17814E-06   -0.16426E-09  7304   0.391E-04    0.120E-04
DAV:  19    -0.303062723956E+01   -0.49486E-08   -0.11189E-10  7272   0.149E-04
   1 F= -.30306272E+01 E0= -.30306272E+01  d E =0.000000E+00  mag=     0.7639
