=========================================
SLURM_JOB_ID = 63455434
SLURM_JOB_NODELIST = lnode49
SLURM_GPUS = 
SLURM_CPUS_ON_NODE = 8
SLURM_JOB_PARTITION = lenovo
SLURM_TASK_PID = 3327421
CUDA_VISIBLE_DEVICES = 
==========================================
 running on    8 total cores
 distrk:  each k-point on    8 cores,    1 groups
 distr:  one band on    4 cores,    2 groups
 using from now: INCAR     
 vasp.5.4.4.18Apr17-6-g9f103f2a35 (build Apr 28 2018 00:24:27) complex          
  
 POSCAR found type information on POSCAR  Co
 POSCAR found :  1 types and       2 ions
 scaLAPACK will be used

 ----------------------------------------------------------------------------- 
|                                                                             |
|  ADVICE TO THIS USER RUNNING 'VASP/VAMP'   (HEAR YOUR MASTER'S VOICE ...):  |
|                                                                             |
|      You have a (more or less) 'small supercell' and for smaller cells      |
|      it is recommended  to use the reciprocal-space projection scheme!      |
|      The real space optimization is not  efficient for small cells and it   |
|      is also less accurate ...                                              |
|      Therefore set LREAL=.FALSE. in the  INCAR file                         |
|                                                                             |
 ----------------------------------------------------------------------------- 

 LDA part: xc-table for Pade appr. of Perdew
 POSCAR, INCAR and KPOINTS ok, starting setup
 FFT: planning ...
 WAVECAR not read
 entering main loop
       N       E                     dE             d eps       ncg     rms          rms(c)
DAV:   1     0.725095185610E+02    0.72510E+02   -0.70281E+03  4368   0.140E+03
DAV:   2    -0.144046958603E+02   -0.86914E+02   -0.80682E+02  4286   0.254E+02
DAV:   3    -0.161954078817E+02   -0.17907E+01   -0.17431E+01  4964   0.519E+01
DAV:   4    -0.162225012077E+02   -0.27093E-01   -0.27111E-01  6100   0.491E+00
DAV:   5    -0.162227094297E+02   -0.20822E-03   -0.20869E-03  5064   0.406E-01    0.144E+01
DAV:   6    -0.142631575735E+02    0.19596E+01   -0.16463E+01  4484   0.832E+01    0.798E+00
DAV:   7    -0.139309007521E+02    0.33226E+00   -0.22873E+00  4616   0.297E+01    0.483E+00
DAV:   8    -0.140805326239E+02   -0.14963E+00   -0.15315E-01  5758   0.638E+00    0.218E+00
DAV:   9    -0.140372184919E+02    0.43314E-01   -0.33723E-02  6072   0.276E+00    0.237E+00
DAV:  10    -0.140265839342E+02    0.10635E-01   -0.99006E-04  6020   0.456E-01    0.267E+00
DAV:  11    -0.140718867757E+02   -0.45303E-01   -0.33056E-02  5256   0.304E+00    0.423E-01
DAV:  12    -0.140723332508E+02   -0.44648E-03   -0.96505E-04  6014   0.377E-01    0.155E-01
DAV:  13    -0.140721355188E+02    0.19773E-03   -0.16092E-04  5690   0.206E-01    0.841E-03
DAV:  14    -0.140721209925E+02    0.14526E-04   -0.60821E-06  4736   0.275E-02    0.713E-03
DAV:  15    -0.140721248483E+02   -0.38558E-05   -0.29792E-07  4730   0.662E-03    0.437E-03
DAV:  16    -0.140721332905E+02   -0.84422E-05   -0.17786E-07  3078   0.629E-03    0.517E-04
DAV:  17    -0.140721325052E+02    0.78530E-06   -0.10378E-08  2248   0.139E-03    0.268E-04
DAV:  18    -0.140721331668E+02   -0.66160E-06   -0.25423E-09  2242   0.704E-04    0.684E-05
DAV:  19    -0.140721331158E+02    0.51087E-07   -0.79930E-10  2194   0.282E-04
   1 F= -.14072133E+02 E0= -.14072133E+02  d E =0.000000E+00  mag=     3.1566
