       N       E                     dE             d eps       ncg     rms          rms(c)
DAV:   1     0.736852839566E+03    0.73685E+03   -0.34536E+04  4376   0.160E+03
DAV:   2     0.205599002886E+02   -0.71629E+03   -0.67931E+03  3984   0.523E+02
DAV:   3    -0.181505849808E+02   -0.38710E+02   -0.36484E+02  4232   0.137E+02
DAV:   4    -0.187262038689E+02   -0.57562E+00   -0.57486E+00  4224   0.170E+01
DAV:   5    -0.187383473423E+02   -0.12143E-01   -0.12143E-01  4336   0.239E+00
DAV:   6    -0.187387935252E+02   -0.44618E-03   -0.44618E-03  4512   0.447E-01
DAV:   7    -0.187388103698E+02   -0.16845E-04   -0.16844E-04  4264   0.809E-02
DAV:   8    -0.187388111562E+02   -0.78639E-06   -0.78648E-06  3872   0.172E-02
   1 F= -.18738811E+02 E0= -.18669377E+02  d E =-.138869E+00  mag=     2.3812
