=========================================
SLURM_JOB_ID = 33586444
SLURM_JOB_NODELIST = lnode48
SLURM_GPUS = 
SLURM_CPUS_ON_NODE = 8
SLURM_JOB_PARTITION = lenovo
SLURM_TASK_PID = 3330976
CUDA_VISIBLE_DEVICES = 
==========================================
 running on    8 total cores
 distrk:  each k-point on    8 cores,    1 groups
 distr:  one band on    4 cores,    2 groups
 using from now: INCAR     
 vasp.5.4.4.18Apr17-6-g9f103f2a35 (build Apr 28 2018 00:24:27) complex          
  
 POSCAR found type information on POSCAR  Eu O 
 POSCAR found :  2 types and       8 ions
 scaLAPACK will be used

 ----------------------------------------------------------------------------- 
|                                                                             |
|  ADVICE TO THIS USER RUNNING 'VASP/VAMP'   (HEAR YOUR MASTER'S VOICE ...):  |
|                                                                             |
|      You have a (more or less) 'small supercell' and for smaller cells      |
|      it is recommended  to use the reciprocal-space projection scheme!      |
|      The real space optimization is not  efficient for small cells and it   |
|      is also less accurate ...                                              |
|      Therefore set LREAL=.FALSE. in the  INCAR file                         |
|                                                                             |
 ----------------------------------------------------------------------------- 

 LDA part: xc-table for Pade appr. of Perdew
 POSCAR, INCAR and KPOINTS ok, starting setup
 FFT: planning ...
 WAVECAR not read
 WARNING: random wavefunctions but no delay for mixing, default for NELMDL
 entering main loop
       N       E                     dE             d eps       ncg     rms          rms(c)
DAV:   1     0.126037494330E+04    0.12604E+04   -0.31347E+04 59600   0.356E+03
DAV:   2     0.331107546581E+03   -0.92927E+03   -0.84472E+03 68480   0.696E+02
DAV:   3    -0.509436076710E+01   -0.33620E+03   -0.32545E+03 72488   0.353E+02
DAV:   4    -0.799697925296E+02   -0.74875E+02   -0.72594E+02 94984   0.146E+02
DAV:   5    -0.893501922605E+02   -0.93804E+01   -0.85770E+01 96608   0.570E+01    0.397E+01
DAV:   6    -0.178460982747E+03   -0.89111E+02   -0.10724E+03 85256   0.239E+02    0.177E+02
DAV:   7    -0.384875105736E+02    0.13997E+03   -0.90224E+02 76624   0.133E+02    0.557E+01
DAV:   8    -0.798548446318E+02   -0.41367E+02   -0.38894E+02 91016   0.808E+01    0.324E+01
DAV:   9    -0.825956621068E+02   -0.27408E+01   -0.37573E+01 83024   0.325E+01    0.164E+01
DAV:  10    -0.831149622934E+02   -0.51930E+00   -0.42043E+00100608   0.127E+01    0.125E+01
DAV:  11    -0.830928292757E+02    0.22133E-01   -0.87532E-01 99512   0.556E+00    0.927E+00
DAV:  12    -0.832776414150E+02   -0.18481E+00   -0.91758E-01 92784   0.700E+00    0.540E+00
DAV:  13    -0.833208439420E+02   -0.43203E-01   -0.23351E-01 87888   0.366E+00    0.453E+00
DAV:  14    -0.833184116471E+02    0.24323E-02   -0.44499E-02 96856   0.151E+00    0.414E+00
DAV:  15    -0.832766483476E+02    0.41763E-01   -0.26952E-02 95896   0.982E-01    0.319E+00
DAV:  16    -0.832381660176E+02    0.38482E-01   -0.49635E-02 90168   0.137E+00    0.225E+00
DAV:  17    -0.832283415004E+02    0.98245E-02   -0.69525E-02 88720   0.182E+00    0.113E+00
DAV:  18    -0.832313801221E+02   -0.30386E-02   -0.19999E-02 96168   0.748E-01    0.652E-01
DAV:  19    -0.832318411014E+02   -0.46098E-03   -0.18129E-03 88432   0.378E-01    0.226E-01
DAV:  20    -0.832318202466E+02    0.20855E-04   -0.61644E-04 98144   0.198E-01    0.109E-01
DAV:  21    -0.832318092479E+02    0.10999E-04   -0.91859E-05 92456   0.112E-01    0.962E-02
DAV:  22    -0.832317399213E+02    0.69327E-04   -0.35299E-04 91592   0.108E-01    0.516E-02
DAV:  23    -0.832317388225E+02    0.10987E-05   -0.85391E-05 91696   0.873E-02    0.449E-02
DAV:  24    -0.832317419546E+02   -0.31321E-05   -0.93754E-06 66864   0.408E-02    0.326E-02
DAV:  25    -0.832317481165E+02   -0.61618E-05   -0.12110E-05 41664   0.326E-02    0.259E-02
DAV:  26    -0.832317491974E+02   -0.10809E-05   -0.27659E-05 43424   0.454E-02    0.365E-02
DAV:  27    -0.832317463873E+02    0.28101E-05   -0.32235E-06 39832   0.334E-02    0.312E-02
DAV:  28    -0.832317452819E+02    0.11054E-05   -0.75534E-07 36536   0.162E-02    0.286E-02
DAV:  29    -0.832317450255E+02    0.25641E-06   -0.75572E-07 36160   0.176E-02
   1 F= -.83231745E+02 E0= -.83231745E+02  d E =0.000000E+00  mag=     0.0000
