 vasp.5.4.4.18Apr17-6-g9f103f2a35 (build Apr 28 2018 00:24:27) complex          
  
 executed on             LinuxIFC date 2021.03.28  01:29:28
 running on    8 total cores
 distrk:  each k-point on    8 cores,    1 groups
 distr:  one band on NCORES_PER_BAND=   1 cores,    8 groups


--------------------------------------------------------------------------------------------------------


 INCAR:
 POTCAR:    PAW_PBE Eu 23Dec2003                  
 POTCAR:    PAW_PBE O 08Apr2002                   

 ----------------------------------------------------------------------------- 
|                                                                             |
|           W    W    AA    RRRRR   N    N  II  N    N   GGGG   !!!           |
|           W    W   A  A   R    R  NN   N  II  NN   N  G    G  !!!           |
|           W    W  A    A  R    R  N N  N  II  N N  N  G       !!!           |
|           W WW W  AAAAAA  RRRRR   N  N N  II  N  N N  G  GGG   !            |
|           WW  WW  A    A  R   R   N   NN  II  N   NN  G    G                |
|           W    W  A    A  R    R  N    N  II  N    N   GGGG   !!!           |
|                                                                             |
|      For optimal performance we recommend to set                            |
|        NCORE= 4 - approx SQRT( number of cores)                             |
|      NCORE specifies how many cores store one orbital (NPAR=cpu/NCORE).     |
|      This setting can  greatly improve the performance of VASP for DFT.     |
|      The default,   NCORE=1            might be grossly inefficient         |
|      on modern multi-core architectures or massively parallel machines.     |
|      Do your own testing !!!!                                               |
|      Unfortunately you need to use the default for GW and RPA calculations. |
|      (for HF NCORE is supported but not extensively tested yet)             |
|                                                                             |
 ----------------------------------------------------------------------------- 

 POTCAR:    PAW_PBE Eu 23Dec2003                  
   VRHFIN =Eu : [core=Kr4d]                                                     
   LEXCH  = PE                                                                  
   EATOM  =  2619.8085 eV,  192.5505 Ry                                         
                                                                                
   TITEL  = PAW_PBE Eu 23Dec2003                                                
   LULTRA =        F    use ultrasoft PP ?                                      
   IUNSCR =        1    unscreen: 0-lin 1-nonlin 2-no                           
   RPACOR =    2.300    partial core radius                                     
   POMASS =  151.965; ZVAL   =   17.000    mass and valenz                      
   RCORE  =    2.800    outmost cutoff radius                                   
   RWIGS  =    2.800; RWIGS  =    1.482    wigner-seitz radius (au A)           
   ENMAX  =  249.668; ENMIN  =  187.251 eV                                      
   RCLOC  =    2.308    cutoff for local pot                                    
   LCOR   =        T    correct aug charges                                     
   LPAW   =        T    paw PP                                                  
   EAUG   =  549.628                                                            
   DEXC   =    0.000                                                            
   RMAX   =    2.870    core radius for proj-oper                               
   RAUG   =    1.300    factor for augmentation sphere                          
   RDEP   =    2.887    radius for radial grids                                 
   RDEPT  =    2.221    core radius for aug-charge                              
                                                                                
   Atomic configuration                                                         
   14 entries                                                                   
     n  l   j            E        occ.                                          
     1  0  0.50    -48354.7667   2.0000                                         
     2  0  0.50     -7939.6472   2.0000                                         
     2  1  1.50     -7072.6637   6.0000                                         
     3  0  0.50     -1747.1875   2.0000                                         
     3  1  1.50     -1477.5221   6.0000                                         
     3  2  2.50     -1117.4686  10.0000                                         
     4  0  0.50      -346.8682   2.0000                                         
     4  1  1.50      -258.1962   6.0000                                         
     4  2  2.50      -134.7724  10.0000                                         
     5  0  0.50       -44.6510   2.0000                                         
     6  0  0.50        -3.6227   2.0000                                         
     5  1  1.50       -23.7639   6.0000                                         
     5  2  2.50        -1.3130   0.0000                                         
     4  3  2.50        -2.7310   7.0000                                         
   Description                                                                  
     l       E           TYP  RCUT    TYP  RCUT                                 
     0    -44.6510453     23  2.400                                             
     0     -3.6226685     23  2.400                                             
     1    -23.7638687     23  2.400                                             
     1     27.2116520     23  2.400                                             
     2     -1.3129622     23  2.500                                             
     2     13.6058260     23  2.500                                             
     3     -2.7309948     23  2.800                                             
     3     -3.4014565     23  2.800                                             
  local pseudopotential read in
  partial core-charges read in
  partial kinetic energy density read in
  atomic valenz-charges read in
  non local Contribution for L=           0  read in
    real space projection operators read in
  non local Contribution for L=           0  read in
    real space projection operators read in
  non local Contribution for L=           1  read in
    real space projection operators read in
  non local Contribution for L=           1  read in
    real space projection operators read in
  non local Contribution for L=           2  read in
    real space projection operators read in
  non local Contribution for L=           2  read in
    real space projection operators read in
  non local Contribution for L=           3  read in
    real space projection operators read in
  non local Contribution for L=           3  read in
    real space projection operators read in
    PAW grid and wavefunctions read in
 
   number of l-projection  operators is LMAX  =           8
   number of lm-projection operators is LMMAX =          32
 
 POTCAR:    PAW_PBE O 08Apr2002                   
   VRHFIN =O: s2p4                                                              
   LEXCH  = PE                                                                  
   EATOM  =   432.3788 eV,   31.7789 Ry                                         
                                                                                
   TITEL  = PAW_PBE O 08Apr2002                                                 
   LULTRA =        F    use ultrasoft PP ?                                      
   IUNSCR =        1    unscreen: 0-lin 1-nonlin 2-no                           
   RPACOR =    1.200    partial core radius                                     
   POMASS =   16.000; ZVAL   =    6.000    mass and valenz                      
   RCORE  =    1.520    outmost cutoff radius                                   
   RWIGS  =    1.550; RWIGS  =    0.820    wigner-seitz radius (au A)           
   ENMAX  =  400.000; ENMIN  =  300.000 eV                                      
   ICORE  =        2    local potential                                         
   LCOR   =        T    correct aug charges                                     
   LPAW   =        T    paw PP                                                  
   EAUG   =  605.392                                                            
   DEXC   =    0.000                                                            
   RMAX   =    1.553    core radius for proj-oper                               
   RAUG   =    1.300    factor for augmentation sphere                          
   RDEP   =    1.550    radius for radial grids                                 
   RDEPT  =    1.329    core radius for aug-charge                              
                                                                                
   Atomic configuration                                                         
    4 entries                                                                   
     n  l   j            E        occ.                                          
     1  0  0.50      -514.6923   2.0000                                         
     2  0  0.50       -23.9615   2.0000                                         
     2  1  0.50        -9.0305   4.0000                                         
     3  2  1.50        -9.5241   0.0000                                         
   Description                                                                  
     l       E           TYP  RCUT    TYP  RCUT                                 
     0    -23.9615318     23  1.200                                             
     0     -9.5240782     23  1.200                                             
     1     -9.0304911     23  1.520                                             
     1      8.1634956     23  1.520                                             
     2     -9.5240782      7  1.500                                             
  local pseudopotential read in
  partial core-charges read in
  partial kinetic energy density read in
  kinetic energy density of atom read in
  atomic valenz-charges read in
  non local Contribution for L=           0  read in
    real space projection operators read in
  non local Contribution for L=           0  read in
    real space projection operators read in
  non local Contribution for L=           1  read in
    real space projection operators read in
  non local Contribution for L=           1  read in
    real space projection operators read in
    PAW grid and wavefunctions read in
 
   number of l-projection  operators is LMAX  =           4
   number of lm-projection operators is LMMAX =           8
 

 ----------------------------------------------------------------------------- 
|                                                                             |
|  ADVICE TO THIS USER RUNNING 'VASP/VAMP'   (HEAR YOUR MASTER'S VOICE ...):  |
|                                                                             |
|      You have a (more or less) 'small supercell' and for smaller cells      |
|      it is recommended  to use the reciprocal-space projection scheme!      |
|      The real space optimization is not  efficient for small cells and it   |
|      is also less accurate ...                                              |
|      Therefore set LREAL=.FALSE. in the  INCAR file                         |
|                                                                             |
 ----------------------------------------------------------------------------- 

 Optimization of the real space projectors (new method)

 maximal supplied QI-value         = 13.42
 optimisation between [QCUT,QGAM] = [ 11.67, 23.35] = [ 38.16,152.62] Ry 
 Optimized for a Real-space Cutoff    1.63 Angstroem

   l    n(q)    QCUT    max X(q) W(low)/X(q) W(high)/X(q)  e(spline) 
   0     11    11.673    10.400    0.14E-04    0.18E-05    0.24E-07
   0     11    11.673    10.768    0.21E-04    0.32E-05    0.49E-07
   1     11    11.673     4.094    0.40E-05    0.13E-04    0.93E-07
   1     11    11.673     4.009    0.11E-04    0.46E-04    0.33E-06
   2     10    11.673    29.030    0.79E-04    0.60E-04    0.70E-06
   2     10    11.673    19.941    0.80E-04    0.60E-04    0.71E-06
   3     10    11.673    88.889    0.23E-03    0.29E-03    0.30E-06
   3     10    11.673    76.102    0.23E-03    0.30E-03    0.30E-06
 Optimization of the real space projectors (new method)

 maximal supplied QI-value         = 24.76
 optimisation between [QCUT,QGAM] = [ 11.64, 23.27] = [ 37.91,151.63] Ry 
 Optimized for a Real-space Cutoff    1.14 Angstroem

   l    n(q)    QCUT    max X(q) W(low)/X(q) W(high)/X(q)  e(spline) 
   0      8    11.635    20.381    0.10E-03    0.33E-03    0.24E-06
   0      8    11.635    15.268    0.11E-03    0.35E-03    0.26E-06
   1      7    11.635     5.964    0.24E-03    0.31E-03    0.30E-06
   1      7    11.635     5.382    0.22E-03    0.25E-03    0.26E-06
  PAW_PBE Eu 23Dec2003                  :
 energy of atom  1       EATOM=-2619.8085
 kinetic energy error for atom=    0.0015 (will be added to EATOM!!)
  PAW_PBE O 08Apr2002                   :
 energy of atom  2       EATOM= -432.3788
 kinetic energy error for atom=    0.0208 (will be added to EATOM!!)
 
 
 POSCAR: Eu4 O4                                  
  positions in direct lattice
  No initial velocities read in
 exchange correlation table for  LEXCH =        8
   RHO(1)=    0.500       N(1)  =     2000
   RHO(2)=  100.500       N(2)  =     4000
 


--------------------------------------------------------------------------------------------------------


 ion  position               nearest neighbor table
   1  0.500  0.000  0.500-   5 2.54   5 2.54   7 2.54   7 2.54   6 2.54   8 2.54
   2  0.250  0.500  0.250-   6 2.54   6 2.54   8 2.54   8 2.54   7 2.54   5 2.54
   3  0.750  0.500  0.750-   8 2.54   8 2.54   6 2.54   6 2.54   5 2.54   7 2.54
   4  0.000  0.000  0.000-   7 2.54   7 2.54   5 2.54   5 2.54   8 2.54   6 2.54
   5  0.000  0.000  0.500-   1 2.54   1 2.54   4 2.54   4 2.54   2 2.54   3 2.54
   6  0.750  0.500  0.250-   2 2.54   2 2.54   3 2.54   3 2.54   4 2.54   1 2.54
   7  0.500  0.000  0.000-   4 2.54   4 2.54   1 2.54   1 2.54   3 2.54   2 2.54
   8  0.250  0.500  0.750-   3 2.54   3 2.54   2 2.54   2 2.54   1 2.54   4 2.54
 
  LATTYP: Found a base centered monoclinic cell.
 ALAT       =     7.1852778061
 B/A-ratio  =     0.9999817456
 C/A-ratio  =     1.6583276216
 COS(beta)  =    -0.6396104861
  
  Lattice vectors:
  
 A1 = (   0.0001320000,   4.1483960000,   2.9333340000)
 A2 = (   3.5926370000,   2.0741620000,  -2.9333340000)
 A3 = (  -8.9818080000,  -7.2596750000,  -2.9333340000)


Analysis of symmetry for initial positions (statically):
=====================================================================
 Subroutine PRICEL returns following result:
 
  LATTYP: Found a trigonal (rhomboedric) cell.
 ALAT       =     3.5926457500
 COS(alpha) =     0.5000198743
  
  Lattice vectors:
  
 A1 = (  -3.5926457500,   0.0000000000,   0.0000000000)
 A2 = (  -1.7963932500,  -1.0371170000,  -2.9333340000)
 A3 = (  -1.7963845000,  -3.1112790000,   0.0000000000)
 
   4 primitive cells build up your supercell.
 

 Routine SETGRP: Setting up the symmetry group for a 
 base centered monoclinic supercell.


 Subroutine GETGRP returns: Found  4 space group operations
 (whereof  4 operations were pure point group operations)
 out of a pool of  4 trial point group operations.


The static configuration has the point symmetry C_2h.


Analysis of symmetry for dynamics (positions and initial velocities):
=====================================================================
 Subroutine PRICEL returns following result:
 
  LATTYP: Found a trigonal (rhomboedric) cell.
 ALAT       =     3.5926457500
 COS(alpha) =     0.5000198743
  
  Lattice vectors:
  
 A1 = (  -3.5926457500,   0.0000000000,   0.0000000000)
 A2 = (  -1.7963932500,  -1.0371170000,  -2.9333340000)
 A3 = (  -1.7963845000,  -3.1112790000,   0.0000000000)
 
   4 primitive cells build up your supercell.
 

 Routine SETGRP: Setting up the symmetry group for a 
 base centered monoclinic supercell.


 Subroutine GETGRP returns: Found  4 space group operations
 (whereof  4 operations were pure point group operations)
 out of a pool of  4 trial point group operations.


The dynamic configuration has the point symmetry C_2h.


Analysis of structural, dynamic, and magnetic symmetry:
=====================================================================
 Subroutine PRICEL returns:
 Original cell was already a primitive cell.
 

 Routine SETGRP: Setting up the symmetry group for a 
 base centered monoclinic supercell.


 Subroutine GETGRP returns: Found  4 space group operations
 (whereof  2 operations were pure point group operations)
 out of a pool of  4 trial point group operations.


The magnetic configuration has the point symmetry C_2 .
 The point group associated with its full space group is C_2h.


 Subroutine INISYM returns: Found  4 space group operations
 (whereof  2 operations are pure point group operations),
 and found     1 'primitive' translations

 
 
 KPOINTS: pymatgen v2019.10.16 with grid density =

Automatic generation of k-mesh.
Space group operators:
 irot       det(A)        alpha          n_x          n_y          n_z        tau_x        tau_y        tau_z
    1     1.000000     0.000000     1.000000     0.000000     0.000000     0.000000     0.000000     0.000000
    2     1.000000   180.000000    -0.499990     0.288683     0.816500     0.000000     0.000000     0.000000
    3    -1.000000     0.000000     1.000000     0.000000     0.000000     0.750000    -0.500000    -0.250000
    4    -1.000000   180.000000    -0.499990     0.288683     0.816500     0.750000    -0.500000    -0.250000
 
 Subroutine IBZKPT returns following result:
 ===========================================
 
 Found     55 irreducible k-points:
 
 Following reciprocal coordinates:
            Coordinates               Weight
  0.000000  0.000000  0.000000      1.000000
  0.166667  0.000000 -0.000000      4.000000
  0.333333 -0.000000  0.000000      4.000000
  0.500000  0.000000 -0.000000      2.000000
  0.000000  0.200000 -0.000000      2.000000
  0.166667  0.200000 -0.000000      4.000000
  0.333333  0.200000 -0.000000      4.000000
  0.500000  0.200000  0.000000      4.000000
 -0.333333  0.200000 -0.000000      4.000000
 -0.166667  0.200000 -0.000000      4.000000
  0.000000  0.400000 -0.000000      2.000000
  0.166667  0.400000  0.000000      4.000000
  0.333333  0.400000 -0.000000      4.000000
  0.500000  0.400000 -0.000000      4.000000
 -0.333333  0.400000 -0.000000      4.000000
 -0.166667  0.400000  0.000000      4.000000
  0.166667 -0.000000  0.166667      2.000000
  0.333333 -0.000000  0.166667      4.000000
  0.500000 -0.000000  0.166667      4.000000
 -0.333333  0.000000  0.166667      4.000000
 -0.166667 -0.000000  0.166667      2.000000
  0.166667  0.200000  0.166667      4.000000
  0.333333  0.200000  0.166667      4.000000
  0.500000  0.200000  0.166667      4.000000
 -0.333333  0.200000  0.166667      4.000000
 -0.166667  0.200000  0.166667      2.000000
  0.166667  0.400000  0.166667      4.000000
  0.333333  0.400000  0.166667      4.000000
  0.500000  0.400000  0.166667      4.000000
 -0.333333  0.400000  0.166667      4.000000
 -0.166667  0.400000  0.166667      2.000000
  0.333333 -0.400000  0.166667      4.000000
  0.500000 -0.400000  0.166667      4.000000
 -0.333333 -0.400000  0.166667      4.000000
 -0.166667 -0.400000  0.166667      2.000000
  0.333333 -0.200000  0.166667      4.000000
  0.500000 -0.200000  0.166667      4.000000
 -0.333333 -0.200000  0.166667      4.000000
 -0.166667 -0.200000  0.166667      2.000000
  0.333333 -0.000000  0.333333      2.000000
  0.500000 -0.000000  0.333333      4.000000
 -0.333333 -0.000000  0.333333      2.000000
  0.333333  0.200000  0.333333      4.000000
  0.500000  0.200000  0.333333      4.000000
 -0.333333  0.200000  0.333333      2.000000
  0.333333  0.400000  0.333333      4.000000
  0.500000  0.400000  0.333333      4.000000
 -0.333333  0.400000  0.333333      2.000000
  0.500000 -0.400000  0.333333      4.000000
 -0.333333 -0.400000  0.333333      2.000000
  0.500000 -0.200000  0.333333      4.000000
 -0.333333 -0.200000  0.333333      2.000000
  0.500000 -0.000000  0.500000      1.000000
  0.500000  0.200000  0.500000      2.000000
  0.500000  0.400000  0.500000      2.000000
 
 Following cartesian coordinates:
            Coordinates               Weight
  0.000000  0.000000  0.000000      1.000000
 -0.034793 -0.006695  0.009470      4.000000
 -0.069587 -0.013391  0.018941      4.000000
 -0.104380 -0.020086  0.028411      2.000000
  0.027835 -0.016071  0.022727      2.000000
 -0.006959 -0.022766  0.032197      4.000000
 -0.041752 -0.029462  0.041668      4.000000
 -0.076545 -0.036157  0.051138      4.000000
  0.097421 -0.002680  0.003786      4.000000
  0.062628 -0.009376  0.013257      4.000000
  0.055669 -0.032142  0.045454      2.000000
  0.020876 -0.038838  0.054924      4.000000
 -0.013917 -0.045533  0.064395      4.000000
 -0.048711 -0.052228  0.073865      4.000000
  0.125256 -0.018751  0.026513      4.000000
  0.090463 -0.025447  0.035984      4.000000
 -0.023196  0.013393  0.037879      2.000000
 -0.057989  0.006697  0.047349      4.000000
 -0.092782  0.000002  0.056820      4.000000
  0.081184  0.033479  0.009468      4.000000
  0.046391  0.026783  0.018938      2.000000
  0.004639 -0.002679  0.060606      4.000000
 -0.030154 -0.009374  0.070076      4.000000
 -0.064947 -0.016069  0.079547      4.000000
  0.109019  0.017408  0.032195      4.000000
  0.074226  0.010712  0.041665      2.000000
  0.032474 -0.018750  0.083333      4.000000
 -0.002320 -0.025445  0.092803      4.000000
 -0.037113 -0.032140  0.102274      4.000000
  0.136854  0.001337  0.054922      4.000000
  0.102060 -0.005359  0.064392      2.000000
 -0.113658  0.038839  0.001896      4.000000
 -0.148451  0.032144  0.011366      4.000000
  0.025515  0.065621 -0.035986      4.000000
 -0.009278  0.058926 -0.026515      2.000000
 -0.085823  0.022768  0.024622      4.000000
 -0.120617  0.016073  0.034093      4.000000
  0.053350  0.049550 -0.013259      4.000000
  0.018556  0.042854 -0.003789      2.000000
 -0.046391  0.026785  0.075758      2.000000
 -0.081184  0.020090  0.085228      4.000000
  0.092782  0.053567  0.037877      2.000000
 -0.018556  0.010714  0.098485      4.000000
 -0.053350  0.004019  0.107955      4.000000
  0.120617  0.037496  0.060604      2.000000
  0.009278 -0.005357  0.121212      4.000000
 -0.025515 -0.012052  0.130682      4.000000
  0.148451  0.021424  0.083331      2.000000
 -0.136854  0.052232  0.039775      4.000000
  0.037113  0.085709 -0.007577      2.000000
 -0.109019  0.036161  0.062502      4.000000
  0.064947  0.069638  0.015150      2.000000
 -0.069587  0.040178  0.113637      1.000000
 -0.041752  0.024107  0.136364      2.000000
 -0.013917  0.008036  0.159091      2.000000
 
 TETIRR: Found    273 inequivalent tetrahedra from     1080


--------------------------------------------------------------------------------------------------------




 Dimension of arrays:
   k-points           NKPTS =     55   k-points in BZ     NKDIM =     55   number of bands    NBANDS=     56
   number of dos      NEDOS =    301   number of ions     NIONS =      8
   non local maximal  LDIM  =      8   non local SUM 2l+1 LMDIM =     32
   total plane-waves  NPLWV =  76800
   max r-space proj   IRMAX =  10618   max aug-charges    IRDMAX=  33672
   dimension x,y,z NGX =    40 NGY =   48 NGZ =   40
   dimension x,y,z NGXF=    80 NGYF=   96 NGZF=   80
   support grid    NGXF=    80 NGYF=   96 NGZF=   80
   ions per type =               4   4
   NGX,Y,Z   is equivalent  to a cutoff of  13.09, 12.82, 13.09 a.u.
   NGXF,Y,Z  is equivalent  to a cutoff of  26.18, 25.65, 26.18 a.u.

 SYSTEM =  unknown system                          
 POSCAR =  Eu4 O4                                  

 Startparameter for this run:
   NWRITE =      2    write-flag & timer
   PREC   = accura    normal or accurate (medium, high low for compatibility)
   ISTART =      0    job   : 0-new  1-cont  2-samecut
   ICHARG =      0    charge: 1-file 2-atom 10-const
   ISPIN  =      2    spin polarized calculation?
   LNONCOLLINEAR =      F non collinear calculations
   LSORBIT =      F    spin-orbit coupling
   INIWAV =      1    electr: 0-lowe 1-rand  2-diag
   LASPH  =      F    aspherical Exc in radial PAW
   METAGGA=      F    non-selfconsistent MetaGGA calc.

 Electronic Relaxation 1
   ENCUT  =  520.0 eV  38.22 Ry    6.18 a.u.   9.45 11.57  9.45*2*pi/ulx,y,z
   ENINI  =  520.0     initial cutoff
   ENAUG  =  605.4 eV  augmentation charge cutoff
   NELM   =    100;   NELMIN=  2; NELMDL= -5     # of ELM steps 
   EDIFF  = 0.4E-03   stopping-criterion for ELM
   LREAL  =      T    real-space projection
   NLSPLINE    = F    spline interpolate recip. space projectors
   LCOMPAT=      F    compatible to vasp.4.4
   GGA_COMPAT  = T    GGA compatible to vasp.4.4-vasp.4.6
   LMAXPAW     = -100 max onsite density
   LMAXMIX     =    2 max onsite mixed and CHGCAR
   VOSKOWN=      0    Vosko Wilk Nusair interpolation
   ROPT   =   -0.00025  -0.00025
 Ionic relaxation
   EDIFFG = 0.4E-02   stopping-criterion for IOM
   NSW    =      0    number of steps for IOM
   NBLOCK =      1;   KBLOCK =      1    inner block; outer block 
   IBRION =     -1    ionic relax: 0-MD 1-quasi-New 2-CG
   NFREE  =      0    steps in history (QN), initial steepest desc. (CG)
   ISIF   =      3    stress and relaxation
   IWAVPR =     10    prediction:  0-non 1-charg 2-wave 3-comb
   ISYM   =      2    0-nonsym 1-usesym 2-fastsym
   LCORR  =      T    Harris-Foulkes like correction to forces

   POTIM  = 0.5000    time-step for ionic-motion
   TEIN   =    0.0    initial temperature
   TEBEG  =    0.0;   TEEND  =   0.0 temperature during run
   SMASS  =  -3.00    Nose mass-parameter (am)
   estimated Nose-frequenzy (Omega)   =  0.10E-29 period in steps =****** mass=  -0.590E-27a.u.
   SCALEE = 1.0000    scale energy and forces
   NPACO  =    256;   APACO  = 16.0  distance and # of slots for P.C.
   PSTRESS=    0.0 pullay stress

  Mass of Ions in am
   POMASS = 151.97 16.00
  Ionic Valenz
   ZVAL   =  17.00  6.00
  Atomic Wigner-Seitz radii
   RWIGS  =  -1.00 -1.00
  virtual crystal weights 
   VCA    =   1.00  1.00
   NELECT =      92.0000    total number of electrons
   NUPDOWN=      -1.0000    fix difference up-down

 DOS related values:
   EMIN   =  10.00;   EMAX   =-10.00  energy-range for DOS
   EFERMI =   0.00
   ISMEAR =    -5;   SIGMA  =   0.05  broadening in eV -4-tet -1-fermi 0-gaus

 Electronic relaxation 2 (details)
   IALGO  =     38    algorithm
   LDIAG  =      T    sub-space diagonalisation (order eigenvalues)
   LSUBROT=      F    optimize rotation matrix (better conditioning)
   TURBO    =      0    0=normal 1=particle mesh
   IRESTART =      0    0=no restart 2=restart with 2 vectors
   NREBOOT  =      0    no. of reboots
   NMIN     =      0    reboot dimension
   EREF     =   0.00    reference energy to select bands
   IMIX   =      4    mixing-type and parameters
     AMIX     =   0.40;   BMIX     =  1.00
     AMIX_MAG =   1.60;   BMIX_MAG =  1.00
     AMIN     =   0.10
     WC   =   100.;   INIMIX=   1;  MIXPRE=   1;  MAXMIX= -45

 Intra band minimization:
   WEIMIN = 0.0000     energy-eigenvalue tresh-hold
   EBREAK =  0.18E-05  absolut break condition
   DEPER  =   0.30     relativ break condition  

   TIME   =   0.40     timestep for ELM

  volume/ion in A,a.u.               =      16.39       110.63
  Fermi-wavevector in a.u.,A,eV,Ry     =   1.454607  2.748810 28.788335  2.115883
  Thomas-Fermi vector in A             =   2.571738
 
 Write flags
   LWAVE        =      F    write WAVECAR
   LDOWNSAMPLE  =      F    k-point downsampling of WAVECAR
   LCHARG       =      T    write CHGCAR
   LVTOT        =      F    write LOCPOT, total local potential
   LVHAR        =      T    write LOCPOT, Hartree potential only
   LELF         =      F    write electronic localiz. function (ELF)
   LORBIT       =     11    0 simple, 1 ext, 2 COOP (PROOUT), +10 PAW based schemes


 Dipole corrections
   LMONO  =      F    monopole corrections only (constant potential shift)
   LDIPOL =      F    correct potential (dipole corrections)
   IDIPOL =      0    1-x, 2-y, 3-z, 4-all directions 
   EPSILON=  1.0000000 bulk dielectric constant

 Exchange correlation treatment:
   GGA     =    --    GGA type
   LEXCH   =     8    internal setting for exchange type
   VOSKOWN=      0    Vosko Wilk Nusair interpolation
   LHFCALC =     F    Hartree Fock is set to
   LHFONE  =     F    Hartree Fock one center treatment
   AEXX    =    0.0000 exact exchange contribution

 Linear response parameters
   LEPSILON=     F    determine dielectric tensor
   LRPA    =     F    only Hartree local field effects (RPA)
   LNABLA  =     F    use nabla operator in PAW spheres
   LVEL    =     F    velocity operator in full k-point grid
   LINTERFAST=   F  fast interpolation
   KINTER  =     0    interpolate to denser k-point grid
   CSHIFT  =0.1000    complex shift for real part using Kramers Kronig
   OMEGAMAX=  -1.0    maximum frequency
   DEG_THRESHOLD= 0.2000000E-02 threshold for treating states as degnerate
   RTIME   =   -0.100 relaxation time in fs
  (WPLASMAI=    0.000 imaginary part of plasma frequency in eV, 0.658/RTIME)
   DFIELD  = 0.0000000 0.0000000 0.0000000 field for delta impulse in time
 
 Orbital magnetization related:
   ORBITALMAG=     F  switch on orbital magnetization
   LCHIMAG   =     F  perturbation theory with respect to B field
   DQ        =  0.001000  dq finite difference perturbation B field
   LLRAUG    =     F  two centre corrections for induced B field



--------------------------------------------------------------------------------------------------------


 Static calculation
 charge density and potential will be updated during run
 spin polarized calculation
 Variant of blocked Davidson
 Davidson routine will perform the subspace rotation
 perform sub-space diagonalisation
    after iterative eigenvector-optimisation
 modified Broyden-mixing scheme, WC =      100.0
 initial mixing is a Kerker type mixing with AMIX =  0.4000 and BMIX =      1.0000
 Hartree-type preconditioning will be used
 using additional bands           10
 real space projection scheme for non local part
 use partial core corrections
 calculate Harris-corrections to forces 
   (improved forces if not selfconsistent)
 use gradient corrections 
 use of overlap-Matrix (Vanderbilt PP)
 Fermi weights with tetrahedron method with Bloechl corrections


--------------------------------------------------------------------------------------------------------


  energy-cutoff  :      520.00
  volume of cell :      131.15
      direct lattice vectors                 reciprocal lattice vectors
    -3.592637000 -2.074162000  2.933334000    -0.208759798 -0.040172268  0.056822044
     1.796270000 -5.185441000  2.933334000     0.139173198 -0.080355563  0.113634631
     0.000132000  4.148396000  2.933334000     0.069586599  0.120527832  0.170452338

  length of vectors
     5.080712250  6.222526226  5.080712327     0.220052741  0.196822319  0.220052841


 
 k-points in units of 2pi/SCALE and weight: pymatgen v2019.10.16 with grid density =
   0.00000000  0.00000000  0.00000000       0.006
  -0.03479330 -0.00669538  0.00947034       0.022
  -0.06958660 -0.01339076  0.01894068       0.022
  -0.10437990 -0.02008613  0.02841102       0.011
   0.02783464 -0.01607111  0.02272693       0.011
  -0.00695866 -0.02276649  0.03219727       0.022
  -0.04175196 -0.02946187  0.04166761       0.022
  -0.07654526 -0.03615725  0.05113795       0.022
   0.09742124 -0.00268036  0.00378624       0.022
   0.06262794 -0.00937573  0.01325659       0.022
   0.05566928 -0.03214223  0.04545385       0.011
   0.02087598 -0.03883760  0.05492419       0.022
  -0.01391732 -0.04553298  0.06439453       0.022
  -0.04871062 -0.05222836  0.07386487       0.022
   0.12525588 -0.01875147  0.02651317       0.022
   0.09046258 -0.02544685  0.03598351       0.022
  -0.02319553  0.01339259  0.03787906       0.011
  -0.05798883  0.00669722  0.04734940       0.022
  -0.09278213  0.00000184  0.05681975       0.022
   0.08118437  0.03347873  0.00946804       0.022
   0.04639107  0.02678335  0.01893838       0.011
   0.00463911 -0.00267852  0.06060599       0.022
  -0.03015419 -0.00937390  0.07007633       0.022
  -0.06494749 -0.01606927  0.07954667       0.022
   0.10901901  0.01740762  0.03219497       0.022
   0.07422571  0.01071224  0.04166531       0.011
   0.03247375 -0.01874963  0.08333292       0.022
  -0.00231955 -0.02544501  0.09280326       0.022
  -0.03711285 -0.03214039  0.10227360       0.022
   0.13685365  0.00133650  0.05492189       0.022
   0.10206035 -0.00535888  0.06439223       0.011
  -0.11365811  0.03883944  0.00189555       0.022
  -0.14845141  0.03214406  0.01136589       0.022
   0.02551509  0.06562095 -0.03598581       0.022
  -0.00927821  0.05892558 -0.02651547       0.011
  -0.08582347  0.02276833  0.02462248       0.022
  -0.12061677  0.01607295  0.03409282       0.022
   0.05334973  0.04954984 -0.01325888       0.022
   0.01855643  0.04285446 -0.00378854       0.011
  -0.04639107  0.02678519  0.07575813       0.011
  -0.08118437  0.02008981  0.08522847       0.022
   0.09278213  0.05356670  0.03787676       0.011
  -0.01855643  0.01071408  0.09848505       0.022
  -0.05334973  0.00401870  0.10795539       0.022
   0.12061677  0.03749559  0.06060369       0.011
   0.00927821 -0.00535704  0.12121198       0.022
  -0.02551509 -0.01205242  0.13068232       0.022
   0.14845141  0.02142447  0.08333062       0.011
  -0.13685365  0.05223203  0.03977462       0.022
   0.03711285  0.08570893 -0.00757709       0.011
  -0.10901901  0.03616092  0.06250154       0.022
   0.06494749  0.06963781  0.01514984       0.011
  -0.06958660  0.04017778  0.11363719       0.006
  -0.04175196  0.02410667  0.13636412       0.011
  -0.01391732  0.00803556  0.15909104       0.011
 
 k-points in reciprocal lattice and weights: pymatgen v2019.10.16 with grid density =
   0.00000000  0.00000000  0.00000000       0.006
   0.16666667  0.00000000 -0.00000000       0.022
   0.33333333 -0.00000000  0.00000000       0.022
   0.50000000  0.00000000 -0.00000000       0.011
   0.00000000  0.20000000 -0.00000000       0.011
   0.16666667  0.20000000 -0.00000000       0.022
   0.33333333  0.20000000 -0.00000000       0.022
   0.50000000  0.20000000  0.00000000       0.022
  -0.33333333  0.20000000 -0.00000000       0.022
  -0.16666667  0.20000000 -0.00000000       0.022
   0.00000000  0.40000000 -0.00000000       0.011
   0.16666667  0.40000000  0.00000000       0.022
   0.33333333  0.40000000 -0.00000000       0.022
   0.50000000  0.40000000 -0.00000000       0.022
  -0.33333333  0.40000000 -0.00000000       0.022
  -0.16666667  0.40000000  0.00000000       0.022
   0.16666667 -0.00000000  0.16666667       0.011
   0.33333333 -0.00000000  0.16666667       0.022
   0.50000000 -0.00000000  0.16666667       0.022
  -0.33333333  0.00000000  0.16666667       0.022
  -0.16666667 -0.00000000  0.16666667       0.011
   0.16666667  0.20000000  0.16666667       0.022
   0.33333333  0.20000000  0.16666667       0.022
   0.50000000  0.20000000  0.16666667       0.022
  -0.33333333  0.20000000  0.16666667       0.022
  -0.16666667  0.20000000  0.16666667       0.011
   0.16666667  0.40000000  0.16666667       0.022
   0.33333333  0.40000000  0.16666667       0.022
   0.50000000  0.40000000  0.16666667       0.022
  -0.33333333  0.40000000  0.16666667       0.022
  -0.16666667  0.40000000  0.16666667       0.011
   0.33333333 -0.40000000  0.16666667       0.022
   0.50000000 -0.40000000  0.16666667       0.022
  -0.33333333 -0.40000000  0.16666667       0.022
  -0.16666667 -0.40000000  0.16666667       0.011
   0.33333333 -0.20000000  0.16666667       0.022
   0.50000000 -0.20000000  0.16666667       0.022
  -0.33333333 -0.20000000  0.16666667       0.022
  -0.16666667 -0.20000000  0.16666667       0.011
   0.33333333 -0.00000000  0.33333333       0.011
   0.50000000 -0.00000000  0.33333333       0.022
  -0.33333333 -0.00000000  0.33333333       0.011
   0.33333333  0.20000000  0.33333333       0.022
   0.50000000  0.20000000  0.33333333       0.022
  -0.33333333  0.20000000  0.33333333       0.011
   0.33333333  0.40000000  0.33333333       0.022
   0.50000000  0.40000000  0.33333333       0.022
  -0.33333333  0.40000000  0.33333333       0.011
   0.50000000 -0.40000000  0.33333333       0.022
  -0.33333333 -0.40000000  0.33333333       0.011
   0.50000000 -0.20000000  0.33333333       0.022
  -0.33333333 -0.20000000  0.33333333       0.011
   0.50000000 -0.00000000  0.50000000       0.006
   0.50000000  0.20000000  0.50000000       0.011
   0.50000000  0.40000000  0.50000000       0.011
 
 position of ions in fractional coordinates (direct lattice) 
   0.50000000  0.00000000  0.50000000
   0.25000000  0.50000000  0.25000000
   0.75000000  0.50000000  0.75000000
   0.00000000  0.00000000  0.00000000
   0.00000000  0.00000000  0.50000000
   0.75000000  0.50000000  0.25000000
   0.50000000  0.00000000  0.00000000
   0.25000000  0.50000000  0.75000000
 
 position of ions in cartesian coordinates  (Angst):
  -1.79625250  1.03711700  2.93333400
   0.00000875 -2.07416200  2.93333400
  -1.79624375 -1.03704500  5.86666800
   0.00000000  0.00000000  0.00000000
   0.00006600  2.07419800  1.46666700
  -1.79630975 -3.11124300  4.40000100
  -1.79631850 -1.03708100  1.46666700
   0.00007475  0.00003600  4.40000100
 


--------------------------------------------------------------------------------------------------------


 k-point  1 :   0.0000 0.0000 0.0000  plane waves:    3539
 k-point  2 :   0.1667 0.0000-0.0000  plane waves:    3550
 k-point  3 :   0.3333-0.0000 0.0000  plane waves:    3546
 k-point  4 :   0.5000 0.0000-0.0000  plane waves:    3530
 k-point  5 :   0.0000 0.2000-0.0000  plane waves:    3551
 k-point  6 :   0.1667 0.2000-0.0000  plane waves:    3555
 k-point  7 :   0.3333 0.2000-0.0000  plane waves:    3534
 k-point  8 :   0.5000 0.2000 0.0000  plane waves:    3529
 k-point  9 :  -0.3333 0.2000-0.0000  plane waves:    3527
 k-point 10 :  -0.1667 0.2000-0.0000  plane waves:    3536
 k-point 11 :   0.0000 0.4000-0.0000  plane waves:    3531
 k-point 12 :   0.1667 0.4000 0.0000  plane waves:    3535
 k-point 13 :   0.3333 0.4000-0.0000  plane waves:    3539
 k-point 14 :   0.5000 0.4000-0.0000  plane waves:    3525
 k-point 15 :  -0.3333 0.4000-0.0000  plane waves:    3526
 k-point 16 :  -0.1667 0.4000 0.0000  plane waves:    3527
 k-point 17 :   0.1667-0.0000 0.1667  plane waves:    3553
 k-point 18 :   0.3333-0.0000 0.1667  plane waves:    3527
 k-point 19 :   0.5000-0.0000 0.1667  plane waves:    3519
 k-point 20 :  -0.3333 0.0000 0.1667  plane waves:    3536
 k-point 21 :  -0.1667-0.0000 0.1667  plane waves:    3546
 k-point 22 :   0.1667 0.2000 0.1667  plane waves:    3552
 k-point 23 :   0.3333 0.2000 0.1667  plane waves:    3532
 k-point 24 :   0.5000 0.2000 0.1667  plane waves:    3530
 k-point 25 :  -0.3333 0.2000 0.1667  plane waves:    3528
 k-point 26 :  -0.1667 0.2000 0.1667  plane waves:    3531
 k-point 27 :   0.1667 0.4000 0.1667  plane waves:    3535
 k-point 28 :   0.3333 0.4000 0.1667  plane waves:    3528
 k-point 29 :   0.5000 0.4000 0.1667  plane waves:    3512
 k-point 30 :  -0.3333 0.4000 0.1667  plane waves:    3530
 k-point 31 :  -0.1667 0.4000 0.1667  plane waves:    3525
 k-point 32 :   0.3333-0.4000 0.1667  plane waves:    3523
 k-point 33 :   0.5000-0.4000 0.1667  plane waves:    3529
 k-point 34 :  -0.3333-0.4000 0.1667  plane waves:    3533
 k-point 35 :  -0.1667-0.4000 0.1667  plane waves:    3548
 k-point 36 :   0.3333-0.2000 0.1667  plane waves:    3532
 k-point 37 :   0.5000-0.2000 0.1667  plane waves:    3522
 k-point 38 :  -0.3333-0.2000 0.1667  plane waves:    3535
 k-point 39 :  -0.1667-0.2000 0.1667  plane waves:    3550
 k-point 40 :   0.3333-0.0000 0.3333  plane waves:    3532
 k-point 41 :   0.5000-0.0000 0.3333  plane waves:    3524
 k-point 42 :  -0.3333-0.0000 0.3333  plane waves:    3524
 k-point 43 :   0.3333 0.2000 0.3333  plane waves:    3523
 k-point 44 :   0.5000 0.2000 0.3333  plane waves:    3521
 k-point 45 :  -0.3333 0.2000 0.3333  plane waves:    3532
 k-point 46 :   0.3333 0.4000 0.3333  plane waves:    3530
 k-point 47 :   0.5000 0.4000 0.3333  plane waves:    3527
 k-point 48 :  -0.3333 0.4000 0.3333  plane waves:    3531
 k-point 49 :   0.5000-0.4000 0.3333  plane waves:    3516
 k-point 50 :  -0.3333-0.4000 0.3333  plane waves:    3524
 k-point 51 :   0.5000-0.2000 0.3333  plane waves:    3525
 k-point 52 :  -0.3333-0.2000 0.3333  plane waves:    3527
 k-point 53 :   0.5000-0.0000 0.5000  plane waves:    3538
 k-point 54 :   0.5000 0.2000 0.5000  plane waves:    3512
 k-point 55 :   0.5000 0.4000 0.5000  plane waves:    3520

 maximum and minimum number of plane-waves per node :      3555     3512

 maximum number of plane-waves:      3555
 maximum index in each direction: 
   IXMAX=    9   IYMAX=   11   IZMAX=    9
   IXMIN=   -9   IYMIN=  -11   IZMIN=   -9


 serial   3D FFT for wavefunctions
 parallel 3D FFT for charge:
    minimum data exchange during FFTs selected (reduces bandwidth)


 total amount of memory used by VASP MPI-rank0   106034. kBytes
=======================================================================

   base      :      30000. kBytes
   nonlr-proj:      13984. kBytes
   fftplans  :       2962. kBytes
   grid      :      12472. kBytes
   one-center:        786. kBytes
   wavefun   :      45830. kBytes
 
     INWAV:  cpu time    0.0000: real time    0.0001
 Broyden mixing: mesh for mixing (old mesh)
   NGX = 19   NGY = 23   NGZ = 19
  (NGX  = 80   NGY  = 96   NGZ  = 80)
  gives a total of   8303 points

 charge density for first step will be calculated from the start-wavefunctions


--------------------------------------------------------------------------------------------------------


 Maximum index for non-local projection operator        10255
 Maximum index for augmentation-charges         4121 (set IRDMAX)


--------------------------------------------------------------------------------------------------------


 initial charge from wavefunction
 First call to EWALD:  gamma=   0.349
 Maximum number of real-space cells 3x 3x 3
 Maximum number of reciprocal cells 3x 3x 3

    FEWALD:  cpu time    0.0013: real time    0.0013


--------------------------------------- Iteration      1(   1)  ---------------------------------------


    POTLOK:  cpu time    0.0891: real time    0.0929
    SETDIJ:  cpu time    0.0162: real time    0.0163
     EDDAV:  cpu time   23.5308: real time   23.5975
 BZINTS: Fermi energy: 20.953499; 92.000000 electrons
         Band energy:***********;  BLOECHL correction: -2.248291
       DOS:  cpu time    0.0427: real time    0.0428
    --------------------------------------------
      LOOP:  cpu time   23.6789: real time   23.7494

 eigenvalue-minimisations  : 16920
 total energy-change (2. order) : 0.2164655E+03  (-0.4501099E+04)
 number of electron      91.9999991 magnetization      -0.0000000
 augmentation part       18.0757246 magnetization      -0.0418057

 Free energy of the ion-electron system (eV)
  ---------------------------------------------------
  alpha Z        PSCENC =       906.21130237
  Ewald energy   TEWEN  =     -9706.50130731
  -Hartree energ DENC   =      -790.64716923
  -exchange      EXHF   =         0.00000000
  -V(xc)+E(xc)   XCENC  =       344.39506110
  PAW double counting   =     13596.13194671   -14097.56332703
  entropy T*S    EENTRO =         0.00000000
  eigenvalues    EBANDS =     -2244.22093913
  atomic energy  EATOM  =     12208.65988691
  Solvation  Ediel_sol  =         0.00000000
  ---------------------------------------------------
  free energy    TOTEN  =       216.46545439 eV

  energy without entropy =      216.46545439  energy(sigma->0) =      216.46545439


--------------------------------------------------------------------------------------------------------




--------------------------------------- Iteration      1(   2)  ---------------------------------------


     EDDAV:  cpu time   21.0696: real time   21.1275
 BZINTS: Fermi energy:-30.459406; 92.000000 electrons
         Band energy:***********;  BLOECHL correction: -0.482730
       DOS:  cpu time    0.0465: real time    0.0466
    --------------------------------------------
      LOOP:  cpu time   21.1162: real time   21.1742

 eigenvalue-minimisations  : 14936
 total energy-change (2. order) :-0.1473609E+04  (-0.1399817E+04)
 number of electron      91.9999991 magnetization      -0.0000000
 augmentation part       18.0757246 magnetization      -0.0418057

 Free energy of the ion-electron system (eV)
  ---------------------------------------------------
  alpha Z        PSCENC =       906.21130237
  Ewald energy   TEWEN  =     -9706.50130731
  -Hartree energ DENC   =      -790.64716923
  -exchange      EXHF   =         0.00000000
  -V(xc)+E(xc)   XCENC  =       344.39506110
  PAW double counting   =     13596.13194671   -14097.56332703
  entropy T*S    EENTRO =         0.00000000
  eigenvalues    EBANDS =     -3717.83031028
  atomic energy  EATOM  =     12208.65988691
  Solvation  Ediel_sol  =         0.00000000
  ---------------------------------------------------
  free energy    TOTEN  =     -1257.14391676 eV

  energy without entropy =    -1257.14391676  energy(sigma->0) =    -1257.14391676


--------------------------------------------------------------------------------------------------------




--------------------------------------- Iteration      1(   3)  ---------------------------------------


     EDDAV:  cpu time   20.8832: real time   20.9537
 BZINTS: Fermi energy:-34.015060; 92.000000 electrons
         Band energy:***********;  BLOECHL correction: -0.005870
       DOS:  cpu time    0.0487: real time    0.0488
    --------------------------------------------
      LOOP:  cpu time   20.9318: real time   21.0025

 eigenvalue-minimisations  : 14864
 total energy-change (2. order) :-0.3252210E+03  (-0.2688986E+03)
 number of electron      91.9999991 magnetization      -0.0000000
 augmentation part       18.0757246 magnetization      -0.0418057

 Free energy of the ion-electron system (eV)
  ---------------------------------------------------
  alpha Z        PSCENC =       906.21130237
  Ewald energy   TEWEN  =     -9706.50130731
  -Hartree energ DENC   =      -790.64716923
  -exchange      EXHF   =         0.00000000
  -V(xc)+E(xc)   XCENC  =       344.39506110
  PAW double counting   =     13596.13194671   -14097.56332703
  entropy T*S    EENTRO =         0.00000000
  eigenvalues    EBANDS =     -4043.05129094
  atomic energy  EATOM  =     12208.65988691
  Solvation  Ediel_sol  =         0.00000000
  ---------------------------------------------------
  free energy    TOTEN  =     -1582.36489742 eV

  energy without entropy =    -1582.36489742  energy(sigma->0) =    -1582.36489742


--------------------------------------------------------------------------------------------------------




--------------------------------------- Iteration      1(   4)  ---------------------------------------


     EDDAV:  cpu time   25.4975: real time   25.5663
 BZINTS: Fermi energy:-34.075076; 92.000000 electrons
         Band energy:***********;  BLOECHL correction: -0.001464
       DOS:  cpu time    0.0518: real time    0.0520
    --------------------------------------------
      LOOP:  cpu time   25.5494: real time   25.6183

 eigenvalue-minimisations  : 19704
 total energy-change (2. order) :-0.7632286E+02  (-0.7554275E+02)
 number of electron      91.9999991 magnetization      -0.0000000
 augmentation part       18.0757246 magnetization      -0.0418057

 Free energy of the ion-electron system (eV)
  ---------------------------------------------------
  alpha Z        PSCENC =       906.21130237
  Ewald energy   TEWEN  =     -9706.50130731
  -Hartree energ DENC   =      -790.64716923
  -exchange      EXHF   =         0.00000000
  -V(xc)+E(xc)   XCENC  =       344.39506110
  PAW double counting   =     13596.13194671   -14097.56332703
  entropy T*S    EENTRO =         0.00000000
  eigenvalues    EBANDS =     -4119.37415208
  atomic energy  EATOM  =     12208.65988691
  Solvation  Ediel_sol  =         0.00000000
  ---------------------------------------------------
  free energy    TOTEN  =     -1658.68775856 eV

  energy without entropy =    -1658.68775856  energy(sigma->0) =    -1658.68775856


--------------------------------------------------------------------------------------------------------




--------------------------------------- Iteration      1(   5)  ---------------------------------------


     EDDAV:  cpu time   23.4451: real time   23.5031
 BZINTS: Fermi energy:-34.085310; 92.000000 electrons
         Band energy:***********;  BLOECHL correction: -0.000983
       DOS:  cpu time    0.0536: real time    0.0537
    CHARGE:  cpu time    0.7299: real time    0.7316
    MIXING:  cpu time    0.0016: real time    0.0016
    --------------------------------------------
      LOOP:  cpu time   24.2301: real time   24.2901

 eigenvalue-minimisations  : 18896
 total energy-change (2. order) :-0.6946308E+01  (-0.6903414E+01)
 number of electron      91.9999940 magnetization      -3.4335520
 augmentation part       36.1653821 magnetization      -3.2353764

 Broyden mixing:
  rms(total) = 0.25989E+02    rms(broyden)= 0.25976E+02
  rms(prec ) = 0.46960E+02
  weight for this iteration     100.00

 Free energy of the ion-electron system (eV)
  ---------------------------------------------------
  alpha Z        PSCENC =       906.21130237
  Ewald energy   TEWEN  =     -9706.50130731
  -Hartree energ DENC   =      -790.64716923
  -exchange      EXHF   =         0.00000000
  -V(xc)+E(xc)   XCENC  =       344.39506110
  PAW double counting   =     13596.13194671   -14097.56332703
  entropy T*S    EENTRO =         0.00000000
  eigenvalues    EBANDS =     -4126.32046037
  atomic energy  EATOM  =     12208.65988691
  Solvation  Ediel_sol  =         0.00000000
  ---------------------------------------------------
  free energy    TOTEN  =     -1665.63406685 eV

  energy without entropy =    -1665.63406685  energy(sigma->0) =    -1665.63406685


--------------------------------------------------------------------------------------------------------




--------------------------------------- Iteration      1(   6)  ---------------------------------------


    POTLOK:  cpu time    0.0826: real time    0.0829
    SETDIJ:  cpu time    0.0156: real time    0.0156
     EDDAV:  cpu time   24.6009: real time   24.6616
 BZINTS: Fermi energy:  4.987057; 92.000000 electrons
         Band energy:***********;  BLOECHL correction: -0.385378
       DOS:  cpu time    0.0476: real time    0.0478
    CHARGE:  cpu time    0.7273: real time    0.7291
    MIXING:  cpu time    0.0019: real time    0.0019
    --------------------------------------------
      LOOP:  cpu time   25.4760: real time   25.5389

 eigenvalue-minimisations  : 19528
 total energy-change (2. order) : 0.9241271E+02  (-0.1366168E+04)
 number of electron      91.9999954 magnetization      -1.5531406
 augmentation part       29.9458624 magnetization      -1.4838672

 Broyden mixing:
  rms(total) = 0.24834E+02    rms(broyden)= 0.24834E+02
  rms(prec ) = 0.42297E+02
  weight for this iteration     100.00

 eigenvalues of (default mixing * dielectric matrix)
  average eigenvalue GAMMA=   0.5063
  0.5063

 Free energy of the ion-electron system (eV)
  ---------------------------------------------------
  alpha Z        PSCENC =       906.21130237
  Ewald energy   TEWEN  =     -9706.50130731
  -Hartree energ DENC   =     -1844.99185278
  -exchange      EXHF   =         0.00000000
  -V(xc)+E(xc)   XCENC  =       400.75780604
  PAW double counting   =     13358.28395589   -14217.76522425
  entropy T*S    EENTRO =         0.00000000
  eigenvalues    EBANDS =     -2677.87592142
  atomic energy  EATOM  =     12208.65988691
  Solvation  Ediel_sol  =         0.00000000
  ---------------------------------------------------
  free energy    TOTEN  =     -1573.22135455 eV

  energy without entropy =    -1573.22135455  energy(sigma->0) =    -1573.22135455


--------------------------------------------------------------------------------------------------------




--------------------------------------- Iteration      1(   7)  ---------------------------------------


    POTLOK:  cpu time    0.0823: real time    0.0828
    SETDIJ:  cpu time    0.0155: real time    0.0155
     EDDAV:  cpu time   20.9789: real time   21.0316
 BZINTS: Fermi energy:  2.393934; 92.000000 electrons
         Band energy:***********;  BLOECHL correction:  0.000000
       DOS:  cpu time    0.0118: real time    0.0118
    CHARGE:  cpu time    0.7246: real time    0.7263
    MIXING:  cpu time    0.0018: real time    0.0018
    --------------------------------------------
      LOOP:  cpu time   21.8149: real time   21.8698

 eigenvalue-minimisations  : 16312
 total energy-change (2. order) : 0.1360332E+04  (-0.1622243E+03)
 number of electron      91.9999958 magnetization      -1.3198104
 augmentation part       28.7675228 magnetization      -1.1091729

 Broyden mixing:
  rms(total) = 0.20801E+02    rms(broyden)= 0.20801E+02
  rms(prec ) = 0.33323E+02
  weight for this iteration     100.00

 eigenvalues of (default mixing * dielectric matrix)
  average eigenvalue GAMMA=   0.2668
  0.4997  0.0339

 Free energy of the ion-electron system (eV)
  ---------------------------------------------------
  alpha Z        PSCENC =       906.21130237
  Ewald energy   TEWEN  =     -9706.50130731
  -Hartree energ DENC   =     -1973.65095892
  -exchange      EXHF   =         0.00000000
  -V(xc)+E(xc)   XCENC  =       408.55440707
  PAW double counting   =     12769.24067986   -13596.85079033
  entropy T*S    EENTRO =         0.00000000
  eigenvalues    EBANDS =     -1228.55237290
  atomic energy  EATOM  =     12208.65988691
  Solvation  Ediel_sol  =         0.00000000
  ---------------------------------------------------
  free energy    TOTEN  =      -212.88915324 eV

  energy without entropy =     -212.88915324  energy(sigma->0) =     -212.88915324


--------------------------------------------------------------------------------------------------------




--------------------------------------- Iteration      1(   8)  ---------------------------------------


    POTLOK:  cpu time    0.0802: real time    0.0804
    SETDIJ:  cpu time    0.0155: real time    0.0155
     EDDAV:  cpu time   25.6423: real time   25.7065
 BZINTS: Fermi energy:  0.689206; 92.000000 electrons
         Band energy:***********;  BLOECHL correction:  0.000000
       DOS:  cpu time    0.0106: real time    0.0106
    CHARGE:  cpu time    0.7240: real time    0.7260
    MIXING:  cpu time    0.0018: real time    0.0018
    --------------------------------------------
      LOOP:  cpu time   26.4743: real time   26.5409

 eigenvalue-minimisations  : 20512
 total energy-change (2. order) :-0.2066416E+03  (-0.3503807E+03)
 number of electron      91.9999964 magnetization       0.8653598
 augmentation part       28.8847422 magnetization       1.0338208

 Broyden mixing:
  rms(total) = 0.16502E+02    rms(broyden)= 0.16502E+02
  rms(prec ) = 0.30830E+02
  weight for this iteration     100.00

 eigenvalues of (default mixing * dielectric matrix)
  average eigenvalue GAMMA=   0.6297
  1.0264  0.4313  0.4313

 Free energy of the ion-electron system (eV)
  ---------------------------------------------------
  alpha Z        PSCENC =       906.21130237
  Ewald energy   TEWEN  =     -9706.50130731
  -Hartree energ DENC   =     -2105.99781434
  -exchange      EXHF   =         0.00000000
  -V(xc)+E(xc)   XCENC  =       414.79915085
  PAW double counting   =     12537.16692729   -13351.68439517
  entropy T*S    EENTRO =         0.00000000
  eigenvalues    EBANDS =     -1322.18449049
  atomic energy  EATOM  =     12208.65988691
  Solvation  Ediel_sol  =         0.00000000
  ---------------------------------------------------
  free energy    TOTEN  =      -419.53073989 eV

  energy without entropy =     -419.53073989  energy(sigma->0) =     -419.53073989


--------------------------------------------------------------------------------------------------------




--------------------------------------- Iteration      1(   9)  ---------------------------------------


    POTLOK:  cpu time    0.0805: real time    0.0808
    SETDIJ:  cpu time    0.0155: real time    0.0156
     EDDAV:  cpu time   29.0385: real time   29.1177
 BZINTS: Fermi energy:  5.147463; 92.000000 electrons
         Band energy:-967.790866;  BLOECHL correction: -0.182106
       DOS:  cpu time    0.0476: real time    0.0477
    CHARGE:  cpu time    0.7258: real time    0.7275
    MIXING:  cpu time    0.0019: real time    0.0019
    --------------------------------------------
      LOOP:  cpu time   29.9098: real time   29.9912

 eigenvalue-minimisations  : 23744
 total energy-change (2. order) :-0.1542288E+03  (-0.8879922E+03)
 number of electron      91.9999976 magnetization      -0.6291715
 augmentation part       26.3050356 magnetization       0.2642649

 Broyden mixing:
  rms(total) = 0.18690E+02    rms(broyden)= 0.18690E+02
  rms(prec ) = 0.37802E+02
  weight for this iteration     100.00

 eigenvalues of (default mixing * dielectric matrix)
  average eigenvalue GAMMA=   0.6934
  1.1449  0.9269  0.3509  0.3509

 Free energy of the ion-electron system (eV)
  ---------------------------------------------------
  alpha Z        PSCENC =       906.21130237
  Ewald energy   TEWEN  =     -9706.50130731
  -Hartree energ DENC   =     -2561.74443413
  -exchange      EXHF   =         0.00000000
  -V(xc)+E(xc)   XCENC  =       437.10974202
  PAW double counting   =     12323.59122809   -13213.29509574
  entropy T*S    EENTRO =         0.00000000
  eigenvalues    EBANDS =      -967.79086598
  atomic energy  EATOM  =     12208.65988691
  Solvation  Ediel_sol  =         0.00000000
  ---------------------------------------------------
  free energy    TOTEN  =      -573.75954376 eV

  energy without entropy =     -573.75954376  energy(sigma->0) =     -573.75954376


--------------------------------------------------------------------------------------------------------




--------------------------------------- Iteration      1(  10)  ---------------------------------------


    POTLOK:  cpu time    0.0819: real time    0.0824
    SETDIJ:  cpu time    0.0156: real time    0.0156
     EDDAV:  cpu time   25.3457: real time   25.4091
 BZINTS: Fermi energy:  7.261774; 92.000000 electrons
         Band energy:-557.839864;  BLOECHL correction: -0.065402
       DOS:  cpu time    0.0490: real time    0.0492
    CHARGE:  cpu time    0.7356: real time    0.7374
    MIXING:  cpu time    0.0019: real time    0.0019
    --------------------------------------------
      LOOP:  cpu time   26.2296: real time   26.2956

 eigenvalue-minimisations  : 20256
 total energy-change (2. order) : 0.4127426E+03  (-0.1634230E+03)
 number of electron      91.9999970 magnetization      -1.6109813
 augmentation part       20.5158513 magnetization      -1.8645374

 Broyden mixing:
  rms(total) = 0.14702E+02    rms(broyden)= 0.14702E+02
  rms(prec ) = 0.24261E+02
  weight for this iteration     100.00

 eigenvalues of (default mixing * dielectric matrix)
  average eigenvalue GAMMA=   0.9035
  1.6061  1.6061  0.6837  0.3108  0.3108

 Free energy of the ion-electron system (eV)
  ---------------------------------------------------
  alpha Z        PSCENC =       906.21130237
  Ewald energy   TEWEN  =     -9706.50130731
  -Hartree energ DENC   =     -2563.74814564
  -exchange      EXHF   =         0.00000000
  -V(xc)+E(xc)   XCENC  =       435.30986335
  PAW double counting   =     12040.67854822   -12923.78723415
  entropy T*S    EENTRO =         0.00000000
  eigenvalues    EBANDS =      -557.83986360
  atomic energy  EATOM  =     12208.65988691
  Solvation  Ediel_sol  =         0.00000000
  ---------------------------------------------------
  free energy    TOTEN  =      -161.01694984 eV

  energy without entropy =     -161.01694984  energy(sigma->0) =     -161.01694984


--------------------------------------------------------------------------------------------------------




--------------------------------------- Iteration      1(  11)  ---------------------------------------


    POTLOK:  cpu time    0.0805: real time    0.0807
    SETDIJ:  cpu time    0.0154: real time    0.0154
     EDDAV:  cpu time   25.3307: real time   25.3931
 BZINTS: Fermi energy: -1.127362; 92.000000 electrons
         Band energy:***********;  BLOECHL correction:  0.000000
       DOS:  cpu time    0.0080: real time    0.0080
    CHARGE:  cpu time    0.7241: real time    0.7258
    MIXING:  cpu time    0.0020: real time    0.0020
    --------------------------------------------
      LOOP:  cpu time   26.1606: real time   26.2251

 eigenvalue-minimisations  : 20224
 total energy-change (2. order) :-0.2160140E+03  (-0.4059423E+02)
 number of electron      91.9999965 magnetization      -0.7802298
 augmentation part       27.0401924 magnetization      -0.8032114

 Broyden mixing:
  rms(total) = 0.14289E+02    rms(broyden)= 0.14289E+02
  rms(prec ) = 0.28999E+02
  weight for this iteration     100.00

 eigenvalues of (default mixing * dielectric matrix)
  average eigenvalue GAMMA=   0.8890
  2.2249  1.3172  0.3197  0.3197  0.5762  0.5762

 Free energy of the ion-electron system (eV)
  ---------------------------------------------------
  alpha Z        PSCENC =       906.21130237
  Ewald energy   TEWEN  =     -9706.50130731
  -Hartree energ DENC   =     -2386.73872726
  -exchange      EXHF   =         0.00000000
  -V(xc)+E(xc)   XCENC  =       426.29768802
  PAW double counting   =     11471.90019099   -12236.67646384
  entropy T*S    EENTRO =         0.00000000
  eigenvalues    EBANDS =     -1060.18351876
  atomic energy  EATOM  =     12208.65988691
  Solvation  Ediel_sol  =         0.00000000
  ---------------------------------------------------
  free energy    TOTEN  =      -377.03094888 eV

  energy without entropy =     -377.03094888  energy(sigma->0) =     -377.03094888


--------------------------------------------------------------------------------------------------------




--------------------------------------- Iteration      1(  12)  ---------------------------------------


    POTLOK:  cpu time    0.0813: real time    0.0816
    SETDIJ:  cpu time    0.0156: real time    0.0156
     EDDAV:  cpu time   22.0011: real time   22.1000
 BZINTS: Fermi energy:  5.501533; 92.000000 electrons
         Band energy:-608.386064;  BLOECHL correction: -0.037475
       DOS:  cpu time    0.0505: real time    0.0507
    CHARGE:  cpu time    0.7378: real time    0.7403
    MIXING:  cpu time    0.0021: real time    0.0021
    --------------------------------------------
      LOOP:  cpu time   22.8884: real time   22.9902

 eigenvalue-minimisations  : 16656
 total energy-change (2. order) : 0.2203960E+03  (-0.1373479E+02)
 number of electron      91.9999968 magnetization      -0.8486296
 augmentation part       23.6687045 magnetization      -0.9671874

 Broyden mixing:
  rms(total) = 0.12727E+02    rms(broyden)= 0.12727E+02
  rms(prec ) = 0.24857E+02
  weight for this iteration     100.00

 eigenvalues of (default mixing * dielectric matrix)
  average eigenvalue GAMMA=   0.8290
  2.3160  1.3010  0.3287  0.3287  0.5590  0.5590  0.4106

 Free energy of the ion-electron system (eV)
  ---------------------------------------------------
  alpha Z        PSCENC =       906.21130237
  Ewald energy   TEWEN  =     -9706.50130731
  -Hartree energ DENC   =     -2622.24016720
  -exchange      EXHF   =         0.00000000
  -V(xc)+E(xc)   XCENC  =       437.75827699
  PAW double counting   =     11284.17092888   -12056.30783673
  entropy T*S    EENTRO =         0.00000000
  eigenvalues    EBANDS =      -608.38606400
  atomic energy  EATOM  =     12208.65988691
  Solvation  Ediel_sol  =         0.00000000
  ---------------------------------------------------
  free energy    TOTEN  =      -156.63498007 eV

  energy without entropy =     -156.63498007  energy(sigma->0) =     -156.63498007


--------------------------------------------------------------------------------------------------------




--------------------------------------- Iteration      1(  13)  ---------------------------------------


    POTLOK:  cpu time    0.0818: real time    0.0824
    SETDIJ:  cpu time    0.0154: real time    0.0154
     EDDAV:  cpu time   31.1223: real time   31.2086
 BZINTS: Fermi energy:  5.013877; 92.000000 electrons
         Band energy:-606.876728;  BLOECHL correction: -0.018905
       DOS:  cpu time    0.0484: real time    0.0485
    CHARGE:  cpu time    0.7309: real time    0.7327
    MIXING:  cpu time    0.0023: real time    0.0023
    --------------------------------------------
      LOOP:  cpu time   32.0010: real time   32.0898

 eigenvalue-minimisations  : 24600
 total energy-change (2. order) :-0.1484953E+02  (-0.2661807E+01)
 number of electron      91.9999970 magnetization      -0.7688720
 augmentation part       23.8478965 magnetization      -0.9631806

 Broyden mixing:
  rms(total) = 0.12554E+02    rms(broyden)= 0.12554E+02
  rms(prec ) = 0.25184E+02
  weight for this iteration     100.00

 eigenvalues of (default mixing * dielectric matrix)
  average eigenvalue GAMMA=   0.8137
  2.1296  1.5326  0.5988  0.5988  0.6332  0.3190  0.3190  0.3785

 Free energy of the ion-electron system (eV)
  ---------------------------------------------------
  alpha Z        PSCENC =       906.21130237
  Ewald energy   TEWEN  =     -9706.50130731
  -Hartree energ DENC   =     -2643.06110135
  -exchange      EXHF   =         0.00000000
  -V(xc)+E(xc)   XCENC  =       438.90569484
  PAW double counting   =     11197.09789351   -11965.92015033
  entropy T*S    EENTRO =         0.00000000
  eigenvalues    EBANDS =      -606.87672773
  atomic energy  EATOM  =     12208.65988691
  Solvation  Ediel_sol  =         0.00000000
  ---------------------------------------------------
  free energy    TOTEN  =      -171.48450909 eV

  energy without entropy =     -171.48450909  energy(sigma->0) =     -171.48450909


--------------------------------------------------------------------------------------------------------




--------------------------------------- Iteration      1(  14)  ---------------------------------------


    POTLOK:  cpu time    0.0833: real time    0.0841
    SETDIJ:  cpu time    0.0159: real time    0.0160
     EDDAV:  cpu time   28.9998: real time   29.0736
 BZINTS: Fermi energy:  4.028277; 92.000000 electrons
         Band energy:-645.120020;  BLOECHL correction:  0.000000
       DOS:  cpu time    0.0090: real time    0.0090
    CHARGE:  cpu time    0.7250: real time    0.7268
    MIXING:  cpu time    0.0023: real time    0.0023
    --------------------------------------------
      LOOP:  cpu time   29.8354: real time   29.9119

 eigenvalue-minimisations  : 23824
 total energy-change (2. order) :-0.2369612E+02  (-0.2995983E+00)
 number of electron      91.9999969 magnetization      -0.4327293
 augmentation part       24.8185175 magnetization      -0.5304774

 Broyden mixing:
  rms(total) = 0.12692E+02    rms(broyden)= 0.12692E+02
  rms(prec ) = 0.26172E+02
  weight for this iteration     100.00

 eigenvalues of (default mixing * dielectric matrix)
  average eigenvalue GAMMA=   0.8306
  2.1292  1.4547  0.8332  0.8332  0.3216  0.3216  0.6162  0.4829  0.4829

 Free energy of the ion-electron system (eV)
  ---------------------------------------------------
  alpha Z        PSCENC =       906.21130237
  Ewald energy   TEWEN  =     -9706.50130731
  -Hartree energ DENC   =     -2633.73564718
  -exchange      EXHF   =         0.00000000
  -V(xc)+E(xc)   XCENC  =       438.26388024
  PAW double counting   =     11127.20226347   -11890.16099262
  entropy T*S    EENTRO =         0.00000000
  eigenvalues    EBANDS =      -645.12001990
  atomic energy  EATOM  =     12208.65988691
  Solvation  Ediel_sol  =         0.00000000
  ---------------------------------------------------
  free energy    TOTEN  =      -195.18063402 eV

  energy without entropy =     -195.18063402  energy(sigma->0) =     -195.18063402


--------------------------------------------------------------------------------------------------------




--------------------------------------- Iteration      1(  15)  ---------------------------------------


    POTLOK:  cpu time    0.0809: real time    0.0813
    SETDIJ:  cpu time    0.0155: real time    0.0155
     EDDAV:  cpu time   26.1381: real time   26.2061
 BZINTS: Fermi energy:  4.578978; 92.000000 electrons
         Band energy:-605.549221;  BLOECHL correction: -0.002417
       DOS:  cpu time    0.0401: real time    0.0401
    CHARGE:  cpu time    0.7328: real time    0.7346
    MIXING:  cpu time    0.0026: real time    0.0026
    --------------------------------------------
      LOOP:  cpu time   27.0098: real time   27.0803

 eigenvalue-minimisations  : 20696
 total energy-change (2. order) :-0.1001764E+02  (-0.2172227E+00)
 number of electron      91.9999969 magnetization       0.5501196
 augmentation part       24.2612896 magnetization       0.4455446

 Broyden mixing:
  rms(total) = 0.12361E+02    rms(broyden)= 0.12361E+02
  rms(prec ) = 0.25735E+02
  weight for this iteration     100.00

 eigenvalues of (default mixing * dielectric matrix)
  average eigenvalue GAMMA=   0.9329
  1.9019  1.9019  1.3085  1.3085  0.3219  0.3219  0.6521  0.6521  0.4800  0.4800

 Free energy of the ion-electron system (eV)
  ---------------------------------------------------
  alpha Z        PSCENC =       906.21130237
  Ewald energy   TEWEN  =     -9706.50130731
  -Hartree energ DENC   =     -2680.18103129
  -exchange      EXHF   =         0.00000000
  -V(xc)+E(xc)   XCENC  =       440.32675439
  PAW double counting   =     11114.50318644   -11882.66784835
  entropy T*S    EENTRO =         0.00000000
  eigenvalues    EBANDS =      -605.54922126
  atomic energy  EATOM  =     12208.65988691
  Solvation  Ediel_sol  =         0.00000000
  ---------------------------------------------------
  free energy    TOTEN  =      -205.19827809 eV

  energy without entropy =     -205.19827809  energy(sigma->0) =     -205.19827809


--------------------------------------------------------------------------------------------------------




--------------------------------------- Iteration      1(  16)  ---------------------------------------


    POTLOK:  cpu time    0.0842: real time    0.0845
    SETDIJ:  cpu time    0.0159: real time    0.0160
     EDDAV:  cpu time   24.2056: real time   24.2666
 BZINTS: Fermi energy:  9.924210; 92.000000 electrons
         Band energy:-422.497674;  BLOECHL correction: -0.007498
       DOS:  cpu time    0.0449: real time    0.0450
    CHARGE:  cpu time    0.7695: real time    0.7714
    MIXING:  cpu time    0.0027: real time    0.0027
    --------------------------------------------
      LOOP:  cpu time   25.1228: real time   25.1861

 eigenvalue-minimisations  : 17792
 total energy-change (2. order) : 0.4515137E+02  (-0.1679043E+02)
 number of electron      91.9999974 magnetization       0.7658999
 augmentation part        7.8900882 magnetization       0.1409844

 Broyden mixing:
  rms(total) = 0.91754E+01    rms(broyden)= 0.91754E+01
  rms(prec ) = 0.16673E+02
  weight for this iteration     100.00

 eigenvalues of (default mixing * dielectric matrix)
  average eigenvalue GAMMA=   0.8612
  1.9996  1.9996  1.2447  1.2447  0.3219  0.3219  0.6854  0.6854  0.4706  0.4706
  0.0285

 Free energy of the ion-electron system (eV)
  ---------------------------------------------------
  alpha Z        PSCENC =       906.21130237
  Ewald energy   TEWEN  =     -9706.50130731
  -Hartree energ DENC   =     -2834.88708557
  -exchange      EXHF   =         0.00000000
  -V(xc)+E(xc)   XCENC  =       447.70337118
  PAW double counting   =     10913.71201558   -11672.44741598
  entropy T*S    EENTRO =         0.00000000
  eigenvalues    EBANDS =      -422.49767360
  atomic energy  EATOM  =     12208.65988691
  Solvation  Ediel_sol  =         0.00000000
  ---------------------------------------------------
  free energy    TOTEN  =      -160.04690641 eV

  energy without entropy =     -160.04690641  energy(sigma->0) =     -160.04690641


--------------------------------------------------------------------------------------------------------




--------------------------------------- Iteration      1(  17)  ---------------------------------------


    POTLOK:  cpu time    0.0837: real time    0.0840
    SETDIJ:  cpu time    0.0160: real time    0.0161
     EDDAV:  cpu time   32.4564: real time   32.5370
 BZINTS: Fermi energy: 10.256603; 92.000000 electrons
         Band energy:-421.630322;  BLOECHL correction: -0.022156
       DOS:  cpu time    0.0465: real time    0.0466
    CHARGE:  cpu time    0.8310: real time    0.8330
    MIXING:  cpu time    0.0034: real time    0.0034
    --------------------------------------------
      LOOP:  cpu time   33.4369: real time   33.5200

 eigenvalue-minimisations  : 24640
 total energy-change (2. order) : 0.1577329E+02  (-0.2212088E+01)
 number of electron      91.9999975 magnetization       0.7537910
 augmentation part        6.5219718 magnetization      -0.1734202

 Broyden mixing:
  rms(total) = 0.89608E+01    rms(broyden)= 0.89608E+01
  rms(prec ) = 0.16108E+02
  weight for this iteration     100.00

 eigenvalues of (default mixing * dielectric matrix)
  average eigenvalue GAMMA=   0.7942
  1.9747  1.9747  1.2537  1.2537  0.6862  0.6862  0.3219  0.3219  0.4679  0.4679
  0.0610  0.0610

 Free energy of the ion-electron system (eV)
  ---------------------------------------------------
  alpha Z        PSCENC =       906.21130237
  Ewald energy   TEWEN  =     -9706.50130731
  -Hartree energ DENC   =     -2825.61733970
  -exchange      EXHF   =         0.00000000
  -V(xc)+E(xc)   XCENC  =       447.48983358
  PAW double counting   =     10898.75842525   -11651.64409797
  entropy T*S    EENTRO =         0.00000000
  eigenvalues    EBANDS =      -421.63032159
  atomic energy  EATOM  =     12208.65988691
  Solvation  Ediel_sol  =         0.00000000
  ---------------------------------------------------
  free energy    TOTEN  =      -144.27361846 eV

  energy without entropy =     -144.27361846  energy(sigma->0) =     -144.27361846


--------------------------------------------------------------------------------------------------------




--------------------------------------- Iteration      1(  18)  ---------------------------------------


    POTLOK:  cpu time    0.0988: real time    0.0995
    SETDIJ:  cpu time    0.0185: real time    0.0186
     EDDAV:  cpu time   43.4577: real time   43.5669
 BZINTS: Fermi energy: 10.212397; 92.000000 electrons
         Band energy:-422.304712;  BLOECHL correction: -0.016688
       DOS:  cpu time    0.0509: real time    0.0510
    CHARGE:  cpu time    0.8225: real time    0.8246
    MIXING:  cpu time    0.0029: real time    0.0029
    --------------------------------------------
      LOOP:  cpu time   44.4513: real time   44.5635

 eigenvalue-minimisations  : 24600
 total energy-change (2. order) :-0.1411597E+01  (-0.4852126E+00)
 number of electron      91.9999974 magnetization       0.7365523
 augmentation part        6.2069017 magnetization      -0.0321776

 Broyden mixing:
  rms(total) = 0.89504E+01    rms(broyden)= 0.89504E+01
  rms(prec ) = 0.16125E+02
  weight for this iteration     100.00

 eigenvalues of (default mixing * dielectric matrix)
  average eigenvalue GAMMA=   0.7324
  2.1476  1.6504  1.2668  1.2668  0.6890  0.6890  0.3220  0.3220  0.4526  0.4526
  0.1133  0.1133  0.0355

 Free energy of the ion-electron system (eV)
  ---------------------------------------------------
  alpha Z        PSCENC =       906.21130237
  Ewald energy   TEWEN  =     -9706.50130731
  -Hartree energ DENC   =     -2826.38613692
  -exchange      EXHF   =         0.00000000
  -V(xc)+E(xc)   XCENC  =       447.51549700
  PAW double counting   =     10899.78203490   -11652.66178061
  entropy T*S    EENTRO =         0.00000000
  eigenvalues    EBANDS =      -422.30471204
  atomic energy  EATOM  =     12208.65988691
  Solvation  Ediel_sol  =         0.00000000
  ---------------------------------------------------
  free energy    TOTEN  =      -145.68521571 eV

  energy without entropy =     -145.68521571  energy(sigma->0) =     -145.68521571


--------------------------------------------------------------------------------------------------------




--------------------------------------- Iteration      1(  19)  ---------------------------------------


    POTLOK:  cpu time    0.0856: real time    0.0859
    SETDIJ:  cpu time    0.0190: real time    0.0190
     EDDAV:  cpu time   43.4224: real time   43.5316
 BZINTS: Fermi energy: 10.259546; 92.000000 electrons
         Band energy:-421.912000;  BLOECHL correction: -0.031988
       DOS:  cpu time    0.0509: real time    0.0510
    CHARGE:  cpu time    0.8124: real time    0.8144
    MIXING:  cpu time    0.0036: real time    0.0036
    --------------------------------------------
      LOOP:  cpu time   44.3939: real time   44.5056

 eigenvalue-minimisations  : 24608
 total energy-change (2. order) : 0.1195802E+01  (-0.2266423E+00)
 number of electron      91.9999975 magnetization       0.8997138
 augmentation part        5.7722329 magnetization       0.1744766

 Broyden mixing:
  rms(total) = 0.89452E+01    rms(broyden)= 0.89452E+01
  rms(prec ) = 0.16135E+02
  weight for this iteration     100.00

 eigenvalues of (default mixing * dielectric matrix)
  average eigenvalue GAMMA=   0.6814
  2.1752  1.6046  1.2782  1.2782  0.6892  0.6892  0.3220  0.3220  0.4503  0.4503
  0.1049  0.1049  0.0498  0.0207

 Free energy of the ion-electron system (eV)
  ---------------------------------------------------
  alpha Z        PSCENC =       906.21130237
  Ewald energy   TEWEN  =     -9706.50130731
  -Hartree energ DENC   =     -2826.05641105
  -exchange      EXHF   =         0.00000000
  -V(xc)+E(xc)   XCENC  =       447.51344563
  PAW double counting   =     10899.51765904   -11651.92198959
  entropy T*S    EENTRO =         0.00000000
  eigenvalues    EBANDS =      -421.91199954
  atomic energy  EATOM  =     12208.65988691
  Solvation  Ediel_sol  =         0.00000000
  ---------------------------------------------------
  free energy    TOTEN  =      -144.48941353 eV

  energy without entropy =     -144.48941353  energy(sigma->0) =     -144.48941353


--------------------------------------------------------------------------------------------------------




--------------------------------------- Iteration      1(  20)  ---------------------------------------


    POTLOK:  cpu time    0.0986: real time    0.0995
    SETDIJ:  cpu time    0.0191: real time    0.0191
     EDDAV:  cpu time   39.7373: real time   39.8443
 BZINTS: Fermi energy: 10.240054; 92.000000 electrons
         Band energy:-423.288212;  BLOECHL correction: -0.035793
       DOS:  cpu time    0.0508: real time    0.0509
    CHARGE:  cpu time    0.8092: real time    0.8112
[...]
  2.3883  1.6073  1.6073  1.1891  0.9481  0.9481  0.8504  0.5003  0.5003  0.3003
  0.3003  0.7126  0.6633  0.6633  0.5245  0.5245  0.5322  0.5322  0.0766  0.0766
  0.2689  0.2689  0.5030  0.4368  0.4368  0.2952  0.2952  0.3815  0.3815  0.4110
  0.4110  0.0047  0.0003  0.0628  0.1260  0.1260  0.3111  0.2129  0.2129  0.2035

 Free energy of the ion-electron system (eV)
  ---------------------------------------------------
  alpha Z        PSCENC =       906.21130237
  Ewald energy   TEWEN  =     -9706.50130731
  -Hartree energ DENC   =     -2669.53359274
  -exchange      EXHF   =         0.00000000
  -V(xc)+E(xc)   XCENC  =       443.20004573
  PAW double counting   =     10652.75549399   -11321.60883165
  entropy T*S    EENTRO =         0.00000000
  eigenvalues    EBANDS =      -584.62007770
  atomic energy  EATOM  =     12208.65988691
  Solvation  Ediel_sol  =         0.00000000
  ---------------------------------------------------
  free energy    TOTEN  =       -71.43708039 eV

  energy without entropy =      -71.43708039  energy(sigma->0) =      -71.43708039


--------------------------------------------------------------------------------------------------------




--------------------------------------- Iteration      1(  71)  ---------------------------------------


    POTLOK:  cpu time    0.1053: real time    0.1057
    SETDIJ:  cpu time    0.0199: real time    0.0199
     EDDAV:  cpu time   36.7456: real time   36.8376
 BZINTS: Fermi energy:  5.314487; 92.000000 electrons
         Band energy:-627.672794;  BLOECHL correction: -0.020082
       DOS:  cpu time    0.0505: real time    0.0506
    CHARGE:  cpu time    0.7932: real time    0.7951
    MIXING:  cpu time    0.0092: real time    0.0092
    --------------------------------------------
      LOOP:  cpu time   37.7235: real time   37.8181

 eigenvalue-minimisations  : 21504
 total energy-change (2. order) :-0.8790854E+01  (-0.5336821E+01)
 number of electron      91.9999975 magnetization      -1.3481460
 augmentation part       22.8703031 magnetization      -0.6280517

 Broyden mixing:
  rms(total) = 0.83272E+01    rms(broyden)= 0.83272E+01
  rms(prec ) = 0.17331E+02
  weight for this iteration     100.00

 eigenvalues of (default mixing * dielectric matrix)
  average eigenvalue GAMMA=   0.5141
  2.3813  1.6579  1.3565  1.3565  0.8689  0.8689  0.8518  0.5057  0.5057  0.2946
  0.2946  0.6941  0.6941  0.6800  0.5072  0.5072  0.5462  0.5462  0.5640  0.0641
  0.0641  0.3351  0.3351  0.1371  0.1371  0.0001  0.0022  0.4662  0.4662  0.3714
  0.3714  0.0799  0.1664  0.1664  0.1807  0.2696  0.2696  0.2928  0.4099  0.4099
  0.3996

 Free energy of the ion-electron system (eV)
  ---------------------------------------------------
  alpha Z        PSCENC =       906.21130237
  Ewald energy   TEWEN  =     -9706.50130731
  -Hartree energ DENC   =     -2666.06150014
  -exchange      EXHF   =         0.00000000
  -V(xc)+E(xc)   XCENC  =       443.33045552
  PAW double counting   =     10770.17430315   -11408.36828147
  entropy T*S    EENTRO =         0.00000000
  eigenvalues    EBANDS =      -627.67279373
  atomic energy  EATOM  =     12208.65988691
  Solvation  Ediel_sol  =         0.00000000
  ---------------------------------------------------
  free energy    TOTEN  =       -80.22793471 eV

  energy without entropy =      -80.22793471  energy(sigma->0) =      -80.22793471


--------------------------------------------------------------------------------------------------------




--------------------------------------- Iteration      1(  72)  ---------------------------------------


    POTLOK:  cpu time    0.0979: real time    0.0985
    SETDIJ:  cpu time    0.0194: real time    0.0194
     EDDAV:  cpu time   40.5370: real time   40.6383
 BZINTS: Fermi energy:  5.371607; 92.000000 electrons
         Band energy:-620.781068;  BLOECHL correction: -0.015852
       DOS:  cpu time    0.0521: real time    0.0523
    CHARGE:  cpu time    0.7815: real time    0.7834
    MIXING:  cpu time    0.0096: real time    0.0096
    --------------------------------------------
      LOOP:  cpu time   41.4976: real time   41.6015

 eigenvalue-minimisations  : 23032
 total energy-change (2. order) : 0.4647901E+00  (-0.6944917E+00)
 number of electron      91.9999975 magnetization      -1.1216362
 augmentation part       22.7093870 magnetization      -0.4709489

 Broyden mixing:
  rms(total) = 0.82576E+01    rms(broyden)= 0.82576E+01
  rms(prec ) = 0.17241E+02
  weight for this iteration     100.00

 eigenvalues of (default mixing * dielectric matrix)
  average eigenvalue GAMMA=   0.5145
  2.3815  1.7393  1.3039  1.3039  0.8506  0.8506  0.8512  0.5190  0.5190  0.3023
  0.3023  0.7159  0.7159  0.6829  0.4716  0.4716  0.5414  0.5414  0.5605  0.5605
  0.5659  0.3466  0.3466  0.0605  0.0605  0.1175  0.1175  0.4036  0.4036  0.0002
  0.0017  0.0841  0.1601  0.1601  0.3009  0.3009  0.4118  0.4118  0.3923  0.3084
  0.3084  0.1600

 Free energy of the ion-electron system (eV)
  ---------------------------------------------------
  alpha Z        PSCENC =       906.21130237
  Ewald energy   TEWEN  =     -9706.50130731
  -Hartree energ DENC   =     -2670.89632545
  -exchange      EXHF   =         0.00000000
  -V(xc)+E(xc)   XCENC  =       443.27546109
  PAW double counting   =     10821.50672483   -11461.23781938
  entropy T*S    EENTRO =         0.00000000
  eigenvalues    EBANDS =      -620.78106772
  atomic energy  EATOM  =     12208.65988691
  Solvation  Ediel_sol  =         0.00000000
  ---------------------------------------------------
  free energy    TOTEN  =       -79.76314465 eV

  energy without entropy =      -79.76314465  energy(sigma->0) =      -79.76314465


--------------------------------------------------------------------------------------------------------




--------------------------------------- Iteration      1(  73)  ---------------------------------------


    POTLOK:  cpu time    0.0987: real time    0.0991
    SETDIJ:  cpu time    0.0191: real time    0.0192
     EDDAV:  cpu time   40.2590: real time   40.3598
 BZINTS: Fermi energy:  5.273547; 92.000000 electrons
         Band energy:-620.654124;  BLOECHL correction: -0.013564
       DOS:  cpu time    0.0560: real time    0.0562
    CHARGE:  cpu time    0.7796: real time    0.7815
    MIXING:  cpu time    0.0096: real time    0.0097
    --------------------------------------------
      LOOP:  cpu time   41.2220: real time   41.3253

 eigenvalue-minimisations  : 23368
 total energy-change (2. order) :-0.1446320E+00  (-0.8043671E-01)
 number of electron      91.9999975 magnetization      -0.6727818
 augmentation part       22.8103066 magnetization      -0.0650801

 Broyden mixing:
  rms(total) = 0.83506E+01    rms(broyden)= 0.83506E+01
  rms(prec ) = 0.17435E+02
  weight for this iteration     100.00

 eigenvalues of (default mixing * dielectric matrix)
  average eigenvalue GAMMA=   0.5299
  2.3849  1.7784  1.2905  1.2905  0.8272  0.8272  0.8327  0.8327  0.5095  0.5095
  0.8104  0.2773  0.2773  0.5599  0.5599  0.7263  0.6876  0.6876  0.5427  0.5427
  0.5475  0.5475  0.3629  0.3629  0.1488  0.1488  0.0592  0.0592  0.4263  0.4263
  0.3951  0.3951  0.3384  0.3384  0.3538  0.2865  0.2865  0.1465  0.1465  0.0005
  0.0047  0.0843  0.1649

 Free energy of the ion-electron system (eV)
  ---------------------------------------------------
  alpha Z        PSCENC =       906.21130237
  Ewald energy   TEWEN  =     -9706.50130731
  -Hartree energ DENC   =     -2671.01658423
  -exchange      EXHF   =         0.00000000
  -V(xc)+E(xc)   XCENC  =       443.38043036
  PAW double counting   =     10828.59154592   -11468.57892664
  entropy T*S    EENTRO =         0.00000000
  eigenvalues    EBANDS =      -620.65412399
  atomic energy  EATOM  =     12208.65988691
  Solvation  Ediel_sol  =         0.00000000
  ---------------------------------------------------
  free energy    TOTEN  =       -79.90777661 eV

  energy without entropy =      -79.90777661  energy(sigma->0) =      -79.90777661


--------------------------------------------------------------------------------------------------------




--------------------------------------- Iteration      1(  74)  ---------------------------------------


    POTLOK:  cpu time    0.0971: real time    0.0978
    SETDIJ:  cpu time    0.0184: real time    0.0185
     EDDAV:  cpu time   37.5088: real time   37.6028
 BZINTS: Fermi energy:  5.091001; 92.000000 electrons
         Band energy:-626.717065;  BLOECHL correction: -0.013892
       DOS:  cpu time    0.0513: real time    0.0514
    CHARGE:  cpu time    0.7695: real time    0.7714
    MIXING:  cpu time    0.0108: real time    0.0108
    --------------------------------------------
      LOOP:  cpu time   38.4560: real time   38.5527

 eigenvalue-minimisations  : 21408
 total energy-change (2. order) :-0.3748428E+01  (-0.9367912E-01)
 number of electron      91.9999975 magnetization      -0.5133170
 augmentation part       23.0037186 magnetization       0.1059842

 Broyden mixing:
  rms(total) = 0.87853E+01    rms(broyden)= 0.87853E+01
  rms(prec ) = 0.18807E+02
  weight for this iteration     100.00

 eigenvalues of (default mixing * dielectric matrix)
  average eigenvalue GAMMA=   0.5453
  2.3856  1.6352  1.6352  1.1670  1.1670  0.8329  0.8329  1.1026  0.3515  0.3515
  0.8479  0.4664  0.4664  0.6845  0.6845  0.6879  0.5553  0.5553  0.4624  0.4624
  0.4905  0.4905  0.0625  0.0625  0.5558  0.5558  0.1660  0.1660  0.5231  0.2974
  0.2974  0.3928  0.3928  0.4145  0.4145  0.3547  0.2819  0.2819  0.0001  0.0104
  0.0901  0.0901  0.0765  0.1932

 Free energy of the ion-electron system (eV)
  ---------------------------------------------------
  alpha Z        PSCENC =       906.21130237
  Ewald energy   TEWEN  =     -9706.50130731
  -Hartree energ DENC   =     -2670.01860639
  -exchange      EXHF   =         0.00000000
  -V(xc)+E(xc)   XCENC  =       443.23556980
  PAW double counting   =     10842.16658870   -11480.69257375
  entropy T*S    EENTRO =         0.00000000
  eigenvalues    EBANDS =      -626.71706485
  atomic energy  EATOM  =     12208.65988691
  Solvation  Ediel_sol  =         0.00000000
  ---------------------------------------------------
  free energy    TOTEN  =       -83.65620452 eV

  energy without entropy =      -83.65620452  energy(sigma->0) =      -83.65620452


--------------------------------------------------------------------------------------------------------




--------------------------------------- Iteration      1(  75)  ---------------------------------------


    POTLOK:  cpu time    0.1059: real time    0.1062
    SETDIJ:  cpu time    0.0196: real time    0.0196
     EDDAV:  cpu time   36.5120: real time   36.6033
 BZINTS: Fermi energy:  5.223461; 92.000000 electrons
         Band energy:-629.432729;  BLOECHL correction: -0.021737
       DOS:  cpu time    0.0511: real time    0.0512
    CHARGE:  cpu time    0.7230: real time    0.7260
    MIXING:  cpu time    0.0087: real time    0.0087
    --------------------------------------------
      LOOP:  cpu time   37.4202: real time   37.5151

 eigenvalue-minimisations  : 20648
 total energy-change (2. order) :-0.3363734E+01  (-0.7724937E-01)
 number of electron      91.9999974 magnetization       0.3431699
 augmentation part       22.8783666 magnetization       0.8654912

 Broyden mixing:
  rms(total) = 0.99026E+01    rms(broyden)= 0.99026E+01
  rms(prec ) = 0.22166E+02
  weight for this iteration     100.00

 eigenvalues of (default mixing * dielectric matrix)
  average eigenvalue GAMMA=   0.5277
  2.2508  1.4459  1.4459  1.4916  0.9521  0.9521  1.0197  0.6527  0.6527  0.7633
  0.5252  0.5252  0.2062  0.2762  0.2762  0.5154  0.5154  0.0704  0.0198  0.0037
  0.0208  0.0713  0.0713  0.5556  0.5556  0.3565  0.3565  0.5200  0.5200  0.5072
  0.1201  0.2296  0.2296  0.4297  0.4297  0.3495  0.3495  0.2506  0.2506  0.3748

 Free energy of the ion-electron system (eV)
  ---------------------------------------------------
  alpha Z        PSCENC =       906.21130237
  Ewald energy   TEWEN  =     -9706.50130731
  -Hartree energ DENC   =     -2671.24934407
  -exchange      EXHF   =         0.00000000
  -V(xc)+E(xc)   XCENC  =       443.02454650
  PAW double counting   =     10860.05349108   -11497.78578531
  entropy T*S    EENTRO =         0.00000000
  eigenvalues    EBANDS =      -629.43272883
  atomic energy  EATOM  =     12208.65988691
  Solvation  Ediel_sol  =         0.00000000
  ---------------------------------------------------
  free energy    TOTEN  =       -87.01993865 eV

  energy without entropy =      -87.01993865  energy(sigma->0) =      -87.01993865


--------------------------------------------------------------------------------------------------------




--------------------------------------- Iteration      1(  76)  ---------------------------------------


    POTLOK:  cpu time    0.0832: real time    0.0847
    SETDIJ:  cpu time    0.0161: real time    0.0161
     EDDAV:  cpu time   26.6322: real time   26.7041
 BZINTS: Fermi energy:  5.034740; 92.000000 electrons
         Band energy:-642.890535;  BLOECHL correction: -0.033969
       DOS:  cpu time    0.0508: real time    0.0509
    CHARGE:  cpu time    0.7240: real time    0.7258
    MIXING:  cpu time    0.0080: real time    0.0080
    --------------------------------------------
      LOOP:  cpu time   27.5142: real time   27.5896

 eigenvalue-minimisations  : 21152
 total energy-change (2. order) :-0.1432889E+02  (-0.9178853E+00)
 number of electron      91.9999972 magnetization      -0.0139984
 augmentation part       23.4284883 magnetization       0.2501531

 Broyden mixing:
  rms(total) = 0.10536E+02    rms(broyden)= 0.10536E+02
  rms(prec ) = 0.24329E+02
  weight for this iteration     100.00

 eigenvalues of (default mixing * dielectric matrix)
  average eigenvalue GAMMA=   0.5262
  2.2523  1.8875  1.3694  1.3694  1.0300  0.9438  0.9438  0.5455  0.5455  0.6290
  0.6290  0.7563  0.2877  0.2877  0.1578  0.5139  0.5139  0.5695  0.5695  0.0968
  0.2562  0.2562  0.5151  0.5151  0.4975  0.4011  0.4011  0.4222  0.4222  0.3365
  0.3365  0.0196  0.0618  0.0618  0.0148  0.0030  0.1242  0.2162  0.2162  0.2349
  0.3648

 Free energy of the ion-electron system (eV)
  ---------------------------------------------------
  alpha Z        PSCENC =       906.21130237
  Ewald energy   TEWEN  =     -9706.50130731
  -Hartree energ DENC   =     -2665.72082842
  -exchange      EXHF   =         0.00000000
  -V(xc)+E(xc)   XCENC  =       442.01387766
  PAW double counting   =     10853.08122661   -11496.20245164
  entropy T*S    EENTRO =         0.00000000
  eigenvalues    EBANDS =      -642.89053493
  atomic energy  EATOM  =     12208.65988691
  Solvation  Ediel_sol  =         0.00000000
  ---------------------------------------------------
  free energy    TOTEN  =      -101.34882874 eV

  energy without entropy =     -101.34882874  energy(sigma->0) =     -101.34882874


--------------------------------------------------------------------------------------------------------




--------------------------------------- Iteration      1(  77)  ---------------------------------------


    POTLOK:  cpu time    0.0812: real time    0.0815
    SETDIJ:  cpu time    0.0156: real time    0.0157
     EDDAV:  cpu time   32.5884: real time   32.6698
 BZINTS: Fermi energy:  5.156682; 92.000000 electrons
         Band energy:-629.755357;  BLOECHL correction: -0.032849
       DOS:  cpu time    0.0443: real time    0.0444
    CHARGE:  cpu time    0.7404: real time    0.7422
    MIXING:  cpu time    0.0087: real time    0.0087
    --------------------------------------------
      LOOP:  cpu time   33.4787: real time   33.5623

 eigenvalue-minimisations  : 22896
 total energy-change (2. order) :-0.3353271E+01  (-0.1290202E+00)
 number of electron      91.9999972 magnetization       0.7441520
 augmentation part       23.1965616 magnetization       1.0272338

 Broyden mixing:
  rms(total) = 0.10484E+02    rms(broyden)= 0.10484E+02
  rms(prec ) = 0.24227E+02
  weight for this iteration     100.00

 eigenvalues of (default mixing * dielectric matrix)
  average eigenvalue GAMMA=   0.5440
  2.2468  1.8538  1.3548  1.3548  1.0356  0.9170  0.9170  0.7500  0.7500  0.3416
  0.8549  0.7035  0.7035  0.3071  0.3071  0.3203  0.3203  0.5035  0.5035  0.5915
  0.5915  0.4460  0.4460  0.5168  0.5125  0.5125  0.4423  0.4423  0.0802  0.3563
  0.3563  0.3055  0.3055  0.2256  0.2256  0.2099  0.1055  0.0217  0.0257  0.0257
  0.0573  0.0028

 Free energy of the ion-electron system (eV)
  ---------------------------------------------------
  alpha Z        PSCENC =       906.21130237
  Ewald energy   TEWEN  =     -9706.50130731
  -Hartree energ DENC   =     -2675.98018292
  -exchange      EXHF   =         0.00000000
  -V(xc)+E(xc)   XCENC  =       442.29697141
  PAW double counting   =     10861.21998306   -11510.85339718
  entropy T*S    EENTRO =         0.00000000
  eigenvalues    EBANDS =      -629.75535653
  atomic energy  EATOM  =     12208.65988691
  Solvation  Ediel_sol  =         0.00000000
  ---------------------------------------------------
  free energy    TOTEN  =      -104.70210019 eV

  energy without entropy =     -104.70210019  energy(sigma->0) =     -104.70210019


--------------------------------------------------------------------------------------------------------




--------------------------------------- Iteration      1(  78)  ---------------------------------------


    POTLOK:  cpu time    0.0893: real time    0.0901
    SETDIJ:  cpu time    0.0187: real time    0.0187
     EDDAV:  cpu time   28.1119: real time   28.1818
 BZINTS: Fermi energy:  5.904718; 92.000000 electrons
         Band energy:-591.904890;  BLOECHL correction: -0.043019
       DOS:  cpu time    0.0487: real time    0.0488
    CHARGE:  cpu time    0.7439: real time    0.7458
    MIXING:  cpu time    0.0092: real time    0.0093
    --------------------------------------------
      LOOP:  cpu time   29.0217: real time   29.0944

 eigenvalue-minimisations  : 18408
 total energy-change (2. order) :-0.2633404E+01  (-0.4706304E+00)
 number of electron      91.9999974 magnetization       0.7938876
 augmentation part       21.7297803 magnetization       1.1411124

 Broyden mixing:
  rms(total) = 0.10094E+02    rms(broyden)= 0.10094E+02
  rms(prec ) = 0.23031E+02
  weight for this iteration     100.00

 eigenvalues of (default mixing * dielectric matrix)
  average eigenvalue GAMMA=   0.5596
  2.2183  1.9251  1.4763  1.4763  0.5004  0.9965  0.9965  1.0404  0.7788  0.7788
  0.7625  0.7625  0.3106  0.3106  0.7010  0.0783  0.3551  0.3551  0.6702  0.4858
  0.4858  0.5818  0.5818  0.5498  0.5498  0.4460  0.4460  0.0220  0.0227  0.0227
  0.0025  0.0615  0.1108  0.2188  0.2188  0.4348  0.4348  0.3993  0.3993  0.2822
  0.2822  0.2650  0.2650

 Free energy of the ion-electron system (eV)
  ---------------------------------------------------
  alpha Z        PSCENC =       906.21130237
  Ewald energy   TEWEN  =     -9706.50130731
  -Hartree energ DENC   =     -2693.26234298
  -exchange      EXHF   =         0.00000000
  -V(xc)+E(xc)   XCENC  =       443.16146259
  PAW double counting   =     10867.79430207   -11541.49391780
  entropy T*S    EENTRO =         0.00000000
  eigenvalues    EBANDS =      -591.90489022
  atomic energy  EATOM  =     12208.65988691
  Solvation  Ediel_sol  =         0.00000000
  ---------------------------------------------------
  free energy    TOTEN  =      -107.33550437 eV

  energy without entropy =     -107.33550437  energy(sigma->0) =     -107.33550437


--------------------------------------------------------------------------------------------------------




--------------------------------------- Iteration      1(  79)  ---------------------------------------


    POTLOK:  cpu time    0.0870: real time    0.0873
    SETDIJ:  cpu time    0.0167: real time    0.0168
Error EDDDAV: Call to ZHEGV failed. Returncode =   7 1   8
