 vasp.5.4.4.18Apr17-6-g9f103f2a35 (build Apr 28 2018 00:24:27) complex          
  
 executed on             LinuxIFC date 2021.04.01  03:06:31
 running on    8 total cores
 distrk:  each k-point on    8 cores,    1 groups
 distr:  one band on NCORES_PER_BAND=   4 cores,    2 groups


--------------------------------------------------------------------------------------------------------


 INCAR:
 POTCAR:    PAW_PBE Eu 23Dec2003                  
 POTCAR:    PAW_PBE O 08Apr2002                   
 POTCAR:    PAW_PBE Eu 23Dec2003                  
   VRHFIN =Eu : [core=Kr4d]                                                     
   LEXCH  = PE                                                                  
   EATOM  =  2619.8085 eV,  192.5505 Ry                                         
                                                                                
   TITEL  = PAW_PBE Eu 23Dec2003                                                
   LULTRA =        F    use ultrasoft PP ?                                      
   IUNSCR =        1    unscreen: 0-lin 1-nonlin 2-no                           
   RPACOR =    2.300    partial core radius                                     
   POMASS =  151.965; ZVAL   =   17.000    mass and valenz                      
   RCORE  =    2.800    outmost cutoff radius                                   
   RWIGS  =    2.800; RWIGS  =    1.482    wigner-seitz radius (au A)           
   ENMAX  =  249.668; ENMIN  =  187.251 eV                                      
   RCLOC  =    2.308    cutoff for local pot                                    
   LCOR   =        T    correct aug charges                                     
   LPAW   =        T    paw PP                                                  
   EAUG   =  549.628                                                            
   DEXC   =    0.000                                                            
   RMAX   =    2.870    core radius for proj-oper                               
   RAUG   =    1.300    factor for augmentation sphere                          
   RDEP   =    2.887    radius for radial grids                                 
   RDEPT  =    2.221    core radius for aug-charge                              
                                                                                
   Atomic configuration                                                         
   14 entries                                                                   
     n  l   j            E        occ.                                          
     1  0  0.50    -48354.7667   2.0000                                         
     2  0  0.50     -7939.6472   2.0000                                         
     2  1  1.50     -7072.6637   6.0000                                         
     3  0  0.50     -1747.1875   2.0000                                         
     3  1  1.50     -1477.5221   6.0000                                         
     3  2  2.50     -1117.4686  10.0000                                         
     4  0  0.50      -346.8682   2.0000                                         
     4  1  1.50      -258.1962   6.0000                                         
     4  2  2.50      -134.7724  10.0000                                         
     5  0  0.50       -44.6510   2.0000                                         
     6  0  0.50        -3.6227   2.0000                                         
     5  1  1.50       -23.7639   6.0000                                         
     5  2  2.50        -1.3130   0.0000                                         
     4  3  2.50        -2.7310   7.0000                                         
   Description                                                                  
     l       E           TYP  RCUT    TYP  RCUT                                 
     0    -44.6510453     23  2.400                                             
     0     -3.6226685     23  2.400                                             
     1    -23.7638687     23  2.400                                             
     1     27.2116520     23  2.400                                             
     2     -1.3129622     23  2.500                                             
     2     13.6058260     23  2.500                                             
     3     -2.7309948     23  2.800                                             
     3     -3.4014565     23  2.800                                             
  local pseudopotential read in
  partial core-charges read in
  partial kinetic energy density read in
  atomic valenz-charges read in
  non local Contribution for L=           0  read in
    real space projection operators read in
  non local Contribution for L=           0  read in
    real space projection operators read in
  non local Contribution for L=           1  read in
    real space projection operators read in
  non local Contribution for L=           1  read in
    real space projection operators read in
  non local Contribution for L=           2  read in
    real space projection operators read in
  non local Contribution for L=           2  read in
    real space projection operators read in
  non local Contribution for L=           3  read in
    real space projection operators read in
  non local Contribution for L=           3  read in
    real space projection operators read in
    PAW grid and wavefunctions read in
 
   number of l-projection  operators is LMAX  =           8
   number of lm-projection operators is LMMAX =          32
 
 POTCAR:    PAW_PBE O 08Apr2002                   
   VRHFIN =O: s2p4                                                              
   LEXCH  = PE                                                                  
   EATOM  =   432.3788 eV,   31.7789 Ry                                         
                                                                                
   TITEL  = PAW_PBE O 08Apr2002                                                 
   LULTRA =        F    use ultrasoft PP ?                                      
   IUNSCR =        1    unscreen: 0-lin 1-nonlin 2-no                           
   RPACOR =    1.200    partial core radius                                     
   POMASS =   16.000; ZVAL   =    6.000    mass and valenz                      
   RCORE  =    1.520    outmost cutoff radius                                   
   RWIGS  =    1.550; RWIGS  =    0.820    wigner-seitz radius (au A)           
   ENMAX  =  400.000; ENMIN  =  300.000 eV                                      
   ICORE  =        2    local potential                                         
   LCOR   =        T    correct aug charges                                     
   LPAW   =        T    paw PP                                                  
   EAUG   =  605.392                                                            
   DEXC   =    0.000                                                            
   RMAX   =    1.553    core radius for proj-oper                               
   RAUG   =    1.300    factor for augmentation sphere                          
   RDEP   =    1.550    radius for radial grids                                 
   RDEPT  =    1.329    core radius for aug-charge                              
                                                                                
   Atomic configuration                                                         
    4 entries                                                                   
     n  l   j            E        occ.                                          
     1  0  0.50      -514.6923   2.0000                                         
     2  0  0.50       -23.9615   2.0000                                         
     2  1  0.50        -9.0305   4.0000                                         
     3  2  1.50        -9.5241   0.0000                                         
   Description                                                                  
     l       E           TYP  RCUT    TYP  RCUT                                 
     0    -23.9615318     23  1.200                                             
     0     -9.5240782     23  1.200                                             
     1     -9.0304911     23  1.520                                             
     1      8.1634956     23  1.520                                             
     2     -9.5240782      7  1.500                                             
  local pseudopotential read in
  partial core-charges read in
  partial kinetic energy density read in
  kinetic energy density of atom read in
  atomic valenz-charges read in
  non local Contribution for L=           0  read in
    real space projection operators read in
  non local Contribution for L=           0  read in
    real space projection operators read in
  non local Contribution for L=           1  read in
    real space projection operators read in
  non local Contribution for L=           1  read in
    real space projection operators read in
    PAW grid and wavefunctions read in
 
   number of l-projection  operators is LMAX  =           4
   number of lm-projection operators is LMMAX =           8
 

 ----------------------------------------------------------------------------- 
|                                                                             |
|  ADVICE TO THIS USER RUNNING 'VASP/VAMP'   (HEAR YOUR MASTER'S VOICE ...):  |
|                                                                             |
|      You have a (more or less) 'small supercell' and for smaller cells      |
|      it is recommended  to use the reciprocal-space projection scheme!      |
|      The real space optimization is not  efficient for small cells and it   |
|      is also less accurate ...                                              |
|      Therefore set LREAL=.FALSE. in the  INCAR file                         |
|                                                                             |
 ----------------------------------------------------------------------------- 

 Optimization of the real space projectors (new method)

 maximal supplied QI-value         = 13.42
 optimisation between [QCUT,QGAM] = [ 11.67, 23.35] = [ 38.16,152.62] Ry 
 Optimized for a Real-space Cutoff    1.63 Angstroem

   l    n(q)    QCUT    max X(q) W(low)/X(q) W(high)/X(q)  e(spline) 
   0     11    11.673    10.400    0.14E-04    0.18E-05    0.24E-07
   0     11    11.673    10.768    0.21E-04    0.32E-05    0.49E-07
   1     11    11.673     4.094    0.40E-05    0.13E-04    0.93E-07
   1     11    11.673     4.009    0.11E-04    0.46E-04    0.33E-06
   2     10    11.673    29.030    0.79E-04    0.60E-04    0.70E-06
   2     10    11.673    19.941    0.80E-04    0.60E-04    0.71E-06
   3     10    11.673    88.889    0.23E-03    0.29E-03    0.30E-06
   3     10    11.673    76.102    0.23E-03    0.30E-03    0.30E-06
 Optimization of the real space projectors (new method)

 maximal supplied QI-value         = 24.76
 optimisation between [QCUT,QGAM] = [ 11.64, 23.27] = [ 37.91,151.63] Ry 
 Optimized for a Real-space Cutoff    1.14 Angstroem

   l    n(q)    QCUT    max X(q) W(low)/X(q) W(high)/X(q)  e(spline) 
   0      8    11.635    20.381    0.10E-03    0.33E-03    0.24E-06
   0      8    11.635    15.268    0.11E-03    0.35E-03    0.26E-06
   1      7    11.635     5.964    0.24E-03    0.31E-03    0.30E-06
   1      7    11.635     5.382    0.22E-03    0.25E-03    0.26E-06
  PAW_PBE Eu 23Dec2003                  :
 energy of atom  1       EATOM=-2619.8085
 kinetic energy error for atom=    0.0015 (will be added to EATOM!!)
  PAW_PBE O 08Apr2002                   :
 energy of atom  2       EATOM= -432.3788
 kinetic energy error for atom=    0.0208 (will be added to EATOM!!)
 
 
 POSCAR: Eu4 O4                                  
  positions in direct lattice
  velocities in cartesian coordinates
 exchange correlation table for  LEXCH =        8
   RHO(1)=    0.500       N(1)  =     2000
   RHO(2)=  100.500       N(2)  =     4000
 


--------------------------------------------------------------------------------------------------------


 ion  position               nearest neighbor table
   1  0.500  0.000  0.500-   6 2.54   8 2.54   7 2.54   7 2.54   5 2.54   5 2.54
   2  0.250  0.500  0.250-   5 2.54   7 2.54   8 2.54   8 2.54   6 2.54   6 2.54
   3  0.750  0.500  0.750-   7 2.54   5 2.54   6 2.54   6 2.54   8 2.54   8 2.54
   4  0.000  0.000  0.000-   8 2.54   6 2.54   5 2.54   5 2.54   7 2.54   7 2.54
   5  0.000  1.000  0.500-   2 2.54   3 2.54   4 2.54   4 2.54   1 2.54   1 2.54
   6  0.750  0.500  0.250-   1 2.54   4 2.54   3 2.54   3 2.54   2 2.54   2 2.54
   7  0.500  1.000  1.000-   3 2.54   2 2.54   1 2.54   1 2.54   4 2.54   4 2.54
   8  0.250  0.500  0.750-   4 2.54   1 2.54   2 2.54   2 2.54   3 2.54   3 2.54
 
  LATTYP: Found a triclinic cell.
 ALAT       =     6.2223752480
 B/A-ratio  =     0.8165221913
 C/A-ratio  =     0.8165974888
 COS(alpha) =     0.0000137832
 COS(beta)  =     0.4082305809
 COS(gamma) =     0.4083623623
  
  Lattice vectors:
  
 A1 = (   1.7960369684,  -1.0366742167,   5.8666439728)
 A2 = (   0.0002516457,   4.1482564946,   2.9335228675)
 A3 = (  -3.5930919757,  -2.0742115007,   2.9335450001)


Analysis of symmetry for initial positions (statically):
=====================================================================
 Subroutine PRICEL returns following result:
 
  LATTYP: Found a triclinic cell.
 ALAT       =     3.5927436012
 B/A-ratio  =     1.7320249592
 C/A-ratio  =     1.0000137833
 COS(alpha) =     0.0000377974
 COS(beta)  =     0.0000922131
 COS(gamma) =     0.5774786837
  
  Lattice vectors:
  
 A1 = (   1.7966718107,   3.1112339977,  -0.0000110663)
 A2 = (   5.3891289441,   1.0375372840,   2.9330989727)
 A3 = (   1.7964201650,  -1.0370224970,  -2.9335339338)
 
   2 primitive cells build up your supercell.
 

 Routine SETGRP: Setting up the symmetry group for a 
 triclinic supercell.


 Subroutine GETGRP returns: Found  2 space group operations
 (whereof  1 operations were pure point group operations)
 out of a pool of  2 trial point group operations.


The static configuration has the point symmetry C_1 .
 The point group associated with its full space group is S_2 .


Analysis of symmetry for dynamics (positions and initial velocities):
=====================================================================
 Subroutine PRICEL returns following result:
 
  LATTYP: Found a triclinic cell.
 ALAT       =     3.5927436012
 B/A-ratio  =     1.7320249592
 C/A-ratio  =     1.0000137833
 COS(alpha) =     0.0000377974
 COS(beta)  =     0.0000922131
 COS(gamma) =     0.5774786837
  
  Lattice vectors:
  
 A1 = (   1.7966718107,   3.1112339977,  -0.0000110663)
 A2 = (   5.3891289441,   1.0375372840,   2.9330989727)
 A3 = (   1.7964201650,  -1.0370224970,  -2.9335339338)
 
   2 primitive cells build up your supercell.
 

 Routine SETGRP: Setting up the symmetry group for a 
 triclinic supercell.


 Subroutine GETGRP returns: Found  2 space group operations
 (whereof  1 operations were pure point group operations)
 out of a pool of  2 trial point group operations.


The dynamic configuration has the point symmetry C_1 .
 The point group associated with its full space group is S_2 .


Analysis of structural, dynamic, and magnetic symmetry:
=====================================================================
 Subroutine PRICEL returns following result:
 
  LATTYP: Found a triclinic cell.
 ALAT       =     3.5927436012
 B/A-ratio  =     1.7320249592
 C/A-ratio  =     1.0000137833
 COS(alpha) =     0.0000377974
 COS(beta)  =     0.0000922131
 COS(gamma) =     0.5774786837
  
  Lattice vectors:
  
 A1 = (   1.7966718107,   3.1112339977,  -0.0000110663)
 A2 = (   5.3891289441,   1.0375372840,   2.9330989727)
 A3 = (   1.7964201650,  -1.0370224970,  -2.9335339338)
 
   2 primitive cells build up your supercell.
 

 Routine SETGRP: Setting up the symmetry group for a 
 triclinic supercell.


 Subroutine GETGRP returns: Found  2 space group operations
 (whereof  1 operations were pure point group operations)
 out of a pool of  2 trial point group operations.


The magnetic configuration has the point symmetry C_1 .
 The point group associated with its full space group is S_2 .


 Subroutine INISYM returns: Found  2 space group operations
 (whereof  1 operations are pure point group operations),
 and found     2 'primitive' translations

 
 
 KPOINTS: pymatgen v2019.10.16 with grid density =

Automatic generation of k-mesh.
Space group operators:
 irot       det(A)        alpha          n_x          n_y          n_z        tau_x        tau_y        tau_z
    1     1.000000     0.000001     1.000000     0.000000     0.000000     0.000000     0.000000     0.000000
    2    -1.000000     0.000001     1.000000     0.000000     0.000000    -0.750000     0.500000     0.250000
 
 Subroutine IBZKPT returns following result:
 ===========================================
 
 Found    226 irreducible k-points:
 
 Following reciprocal coordinates:
            Coordinates               Weight
  0.000000  0.000000  0.000000      1.000000
  0.125000  0.000000 -0.000000      2.000000
  0.250000  0.000000 -0.000000      2.000000
  0.375000  0.000000  0.000000      2.000000
  0.500000  0.000000 -0.000000      1.000000
 -0.000000  0.142857 -0.000000      2.000000
  0.125000  0.142857  0.000000      2.000000
  0.250000  0.142857  0.000000      2.000000
  0.375000  0.142857 -0.000000      2.000000
  0.500000  0.142857  0.000000      2.000000
 -0.375000  0.142857  0.000000      2.000000
 -0.250000  0.142857  0.000000      2.000000
 -0.125000  0.142857  0.000000      2.000000
 -0.000000  0.285714  0.000000      2.000000
  0.125000  0.285714  0.000000      2.000000
  0.250000  0.285714  0.000000      2.000000
  0.375000  0.285714  0.000000      2.000000
  0.500000  0.285714 -0.000000      2.000000
 -0.375000  0.285714  0.000000      2.000000
 -0.250000  0.285714 -0.000000      2.000000
 -0.125000  0.285714  0.000000      2.000000
 -0.000000  0.428571  0.000000      2.000000
  0.125000  0.428571  0.000000      2.000000
  0.250000  0.428571  0.000000      2.000000
  0.375000  0.428571 -0.000000      2.000000
  0.500000  0.428571  0.000000      2.000000
 -0.375000  0.428571  0.000000      2.000000
 -0.250000  0.428571  0.000000      2.000000
 -0.125000  0.428571 -0.000000      2.000000
  0.000000  0.000000  0.125000      2.000000
  0.125000  0.000000  0.125000      2.000000
  0.250000  0.000000  0.125000      2.000000
  0.375000  0.000000  0.125000      2.000000
  0.500000  0.000000  0.125000      2.000000
 -0.375000  0.000000  0.125000      2.000000
 -0.250000  0.000000  0.125000      2.000000
 -0.125000  0.000000  0.125000      2.000000
  0.000000  0.142857  0.125000      2.000000
  0.125000  0.142857  0.125000      2.000000
  0.250000  0.142857  0.125000      2.000000
  0.375000  0.142857  0.125000      2.000000
  0.500000  0.142857  0.125000      2.000000
 -0.375000  0.142857  0.125000      2.000000
 -0.250000  0.142857  0.125000      2.000000
 -0.125000  0.142857  0.125000      2.000000
 -0.000000  0.285714  0.125000      2.000000
  0.125000  0.285714  0.125000      2.000000
  0.250000  0.285714  0.125000      2.000000
  0.375000  0.285714  0.125000      2.000000
  0.500000  0.285714  0.125000      2.000000
 -0.375000  0.285714  0.125000      2.000000
 -0.250000  0.285714  0.125000      2.000000
 -0.125000  0.285714  0.125000      2.000000
 -0.000000  0.428571  0.125000      2.000000
  0.125000  0.428571  0.125000      2.000000
  0.250000  0.428571  0.125000      2.000000
  0.375000  0.428571  0.125000      2.000000
  0.500000  0.428571  0.125000      2.000000
 -0.375000  0.428571  0.125000      2.000000
 -0.250000  0.428571  0.125000      2.000000
 -0.125000  0.428571  0.125000      2.000000
  0.000000 -0.428571  0.125000      2.000000
  0.125000 -0.428571  0.125000      2.000000
  0.250000 -0.428571  0.125000      2.000000
  0.375000 -0.428571  0.125000      2.000000
  0.500000 -0.428571  0.125000      2.000000
 -0.375000 -0.428571  0.125000      2.000000
 -0.250000 -0.428571  0.125000      2.000000
 -0.125000 -0.428571  0.125000      2.000000
  0.000000 -0.285714  0.125000      2.000000
  0.125000 -0.285714  0.125000      2.000000
  0.250000 -0.285714  0.125000      2.000000
  0.375000 -0.285714  0.125000      2.000000
  0.500000 -0.285714  0.125000      2.000000
 -0.375000 -0.285714  0.125000      2.000000
 -0.250000 -0.285714  0.125000      2.000000
 -0.125000 -0.285714  0.125000      2.000000
  0.000000 -0.142857  0.125000      2.000000
  0.125000 -0.142857  0.125000      2.000000
  0.250000 -0.142857  0.125000      2.000000
  0.375000 -0.142857  0.125000      2.000000
  0.500000 -0.142857  0.125000      2.000000
 -0.375000 -0.142857  0.125000      2.000000
 -0.250000 -0.142857  0.125000      2.000000
 -0.125000 -0.142857  0.125000      2.000000
  0.000000  0.000000  0.250000      2.000000
  0.125000  0.000000  0.250000      2.000000
  0.250000  0.000000  0.250000      2.000000
  0.375000  0.000000  0.250000      2.000000
  0.500000  0.000000  0.250000      2.000000
 -0.375000  0.000000  0.250000      2.000000
 -0.250000  0.000000  0.250000      2.000000
 -0.125000  0.000000  0.250000      2.000000
  0.000000  0.142857  0.250000      2.000000
  0.125000  0.142857  0.250000      2.000000
  0.250000  0.142857  0.250000      2.000000
  0.375000  0.142857  0.250000      2.000000
  0.500000  0.142857  0.250000      2.000000
 -0.375000  0.142857  0.250000      2.000000
 -0.250000  0.142857  0.250000      2.000000
 -0.125000  0.142857  0.250000      2.000000
  0.000000  0.285714  0.250000      2.000000
  0.125000  0.285714  0.250000      2.000000
  0.250000  0.285714  0.250000      2.000000
  0.375000  0.285714  0.250000      2.000000
  0.500000  0.285714  0.250000      2.000000
 -0.375000  0.285714  0.250000      2.000000
 -0.250000  0.285714  0.250000      2.000000
 -0.125000  0.285714  0.250000      2.000000
  0.000000  0.428571  0.250000      2.000000
  0.125000  0.428571  0.250000      2.000000
  0.250000  0.428571  0.250000      2.000000
  0.375000  0.428571  0.250000      2.000000
  0.500000  0.428571  0.250000      2.000000
 -0.375000  0.428571  0.250000      2.000000
 -0.250000  0.428571  0.250000      2.000000
 -0.125000  0.428571  0.250000      2.000000
  0.000000 -0.428571  0.250000      2.000000
  0.125000 -0.428571  0.250000      2.000000
  0.250000 -0.428571  0.250000      2.000000
  0.375000 -0.428571  0.250000      2.000000
  0.500000 -0.428571  0.250000      2.000000
 -0.375000 -0.428571  0.250000      2.000000
 -0.250000 -0.428571  0.250000      2.000000
 -0.125000 -0.428571  0.250000      2.000000
 -0.000000 -0.285714  0.250000      2.000000
  0.125000 -0.285714  0.250000      2.000000
  0.250000 -0.285714  0.250000      2.000000
  0.375000 -0.285714  0.250000      2.000000
  0.500000 -0.285714  0.250000      2.000000
 -0.375000 -0.285714  0.250000      2.000000
 -0.250000 -0.285714  0.250000      2.000000
 -0.125000 -0.285714  0.250000      2.000000
  0.000000 -0.142857  0.250000      2.000000
  0.125000 -0.142857  0.250000      2.000000
  0.250000 -0.142857  0.250000      2.000000
  0.375000 -0.142857  0.250000      2.000000
  0.500000 -0.142857  0.250000      2.000000
 -0.375000 -0.142857  0.250000      2.000000
 -0.250000 -0.142857  0.250000      2.000000
 -0.125000 -0.142857  0.250000      2.000000
 -0.000000  0.000000  0.375000      2.000000
  0.125000  0.000000  0.375000      2.000000
  0.250000  0.000000  0.375000      2.000000
  0.375000  0.000000  0.375000      2.000000
  0.500000  0.000000  0.375000      2.000000
 -0.375000  0.000000  0.375000      2.000000
 -0.250000  0.000000  0.375000      2.000000
 -0.125000  0.000000  0.375000      2.000000
  0.000000  0.142857  0.375000      2.000000
  0.125000  0.142857  0.375000      2.000000
  0.250000  0.142857  0.375000      2.000000
  0.375000  0.142857  0.375000      2.000000
  0.500000  0.142857  0.375000      2.000000
 -0.375000  0.142857  0.375000      2.000000
 -0.250000  0.142857  0.375000      2.000000
 -0.125000  0.142857  0.375000      2.000000
  0.000000  0.285714  0.375000      2.000000
  0.125000  0.285714  0.375000      2.000000
  0.250000  0.285714  0.375000      2.000000
  0.375000  0.285714  0.375000      2.000000
  0.500000  0.285714  0.375000      2.000000
 -0.375000  0.285714  0.375000      2.000000
 -0.250000  0.285714  0.375000      2.000000
 -0.125000  0.285714  0.375000      2.000000
  0.000000  0.428571  0.375000      2.000000
  0.125000  0.428571  0.375000      2.000000
  0.250000  0.428571  0.375000      2.000000
  0.375000  0.428571  0.375000      2.000000
  0.500000  0.428571  0.375000      2.000000
 -0.375000  0.428571  0.375000      2.000000
 -0.250000  0.428571  0.375000      2.000000
 -0.125000  0.428571  0.375000      2.000000
  0.000000 -0.428571  0.375000      2.000000
  0.125000 -0.428571  0.375000      2.000000
  0.250000 -0.428571  0.375000      2.000000
  0.375000 -0.428571  0.375000      2.000000
  0.500000 -0.428571  0.375000      2.000000
 -0.375000 -0.428571  0.375000      2.000000
 -0.250000 -0.428571  0.375000      2.000000
 -0.125000 -0.428571  0.375000      2.000000
  0.000000 -0.285714  0.375000      2.000000
  0.125000 -0.285714  0.375000      2.000000
  0.250000 -0.285714  0.375000      2.000000
  0.375000 -0.285714  0.375000      2.000000
  0.500000 -0.285714  0.375000      2.000000
 -0.375000 -0.285714  0.375000      2.000000
 -0.250000 -0.285714  0.375000      2.000000
 -0.125000 -0.285714  0.375000      2.000000
  0.000000 -0.142857  0.375000      2.000000
  0.125000 -0.142857  0.375000      2.000000
  0.250000 -0.142857  0.375000      2.000000
  0.375000 -0.142857  0.375000      2.000000
  0.500000 -0.142857  0.375000      2.000000
 -0.375000 -0.142857  0.375000      2.000000
 -0.250000 -0.142857  0.375000      2.000000
 -0.125000 -0.142857  0.375000      2.000000
  0.000000  0.000000  0.500000      1.000000
  0.125000  0.000000  0.500000      2.000000
  0.250000  0.000000  0.500000      2.000000
  0.375000  0.000000  0.500000      2.000000
  0.500000  0.000000  0.500000      1.000000
  0.000000  0.142857  0.500000      2.000000
  0.125000  0.142857  0.500000      2.000000
  0.250000  0.142857  0.500000      2.000000
  0.375000  0.142857  0.500000      2.000000
  0.500000  0.142857  0.500000      2.000000
 -0.375000  0.142857  0.500000      2.000000
 -0.250000  0.142857  0.500000      2.000000
 -0.125000  0.142857  0.500000      2.000000
  0.000000  0.285714  0.500000      2.000000
  0.125000  0.285714  0.500000      2.000000
  0.250000  0.285714  0.500000      2.000000
  0.375000  0.285714  0.500000      2.000000
  0.500000  0.285714  0.500000      2.000000
 -0.375000  0.285714  0.500000      2.000000
 -0.250000  0.285714  0.500000      2.000000
 -0.125000  0.285714  0.500000      2.000000
  0.000000  0.428571  0.500000      2.000000
  0.125000  0.428571  0.500000      2.000000
  0.250000  0.428571  0.500000      2.000000
  0.375000  0.428571  0.500000      2.000000
  0.500000  0.428571  0.500000      2.000000
 -0.375000  0.428571  0.500000      2.000000
 -0.250000  0.428571  0.500000      2.000000
 -0.125000  0.428571  0.500000      2.000000
 
 Following cartesian coordinates:
            Coordinates               Weight
  0.000000  0.000000  0.000000      1.000000
 -0.026093 -0.005020  0.007101      2.000000
 -0.052186 -0.010040  0.014202      2.000000
 -0.078280 -0.015061  0.021304      2.000000
 -0.104373 -0.020081  0.028405      1.000000
  0.019883 -0.011482  0.016235      2.000000
 -0.006210 -0.016502  0.023336      2.000000
 -0.032304 -0.021522  0.030437      2.000000
 -0.058397 -0.026542  0.037538      2.000000
 -0.084490 -0.031563  0.044640      2.000000
  0.098163  0.003579 -0.005069      2.000000
  0.072069 -0.001442  0.002032      2.000000
  0.045976 -0.006462  0.009134      2.000000
  0.039766 -0.022964  0.032470      2.000000
  0.013673 -0.027984  0.039571      2.000000
 -0.012421 -0.033004  0.046672      2.000000
 -0.038514 -0.038024  0.053773      2.000000
 -0.064607 -0.043045  0.060874      2.000000
  0.118046 -0.007903  0.011166      2.000000
  0.091952 -0.012924  0.018267      2.000000
  0.065859 -0.017944  0.025368      2.000000
  0.059649 -0.034446  0.048704      2.000000
  0.033556 -0.039466  0.055805      2.000000
  0.007462 -0.044486  0.062907      2.000000
 -0.018631 -0.049506  0.070008      2.000000
 -0.044724 -0.054526  0.077109      2.000000
  0.137929 -0.019385  0.027401      2.000000
  0.111835 -0.024405  0.034502      2.000000
  0.085742 -0.029426  0.041603      2.000000
  0.008698  0.015066  0.021306      2.000000
 -0.017395  0.010045  0.028407      2.000000
 -0.043488  0.005025  0.035509      2.000000
 -0.069582  0.000005  0.042610      2.000000
 -0.095675 -0.005015  0.049711      2.000000
  0.086978  0.030126  0.000003      2.000000
  0.060885  0.025106  0.007104      2.000000
  0.034791  0.020086  0.014205      2.000000
  0.028581  0.003584  0.037541      2.000000
  0.002488 -0.001437  0.044642      2.000000
 -0.023605 -0.006457  0.051743      2.000000
 -0.049699 -0.011477  0.058845      2.000000
 -0.075792 -0.016497  0.065946      2.000000
  0.106861  0.018644  0.016237      2.000000
  0.080768  0.013624  0.023339      2.000000
  0.054674  0.008604  0.030440      2.000000
  0.048464 -0.007898  0.053776      2.000000
  0.022371 -0.012919  0.060877      2.000000
 -0.003722 -0.017939  0.067978      2.000000
 -0.029816 -0.022959  0.075079      2.000000
 -0.055909 -0.027979  0.082180      2.000000
  0.126744  0.007162  0.032472      2.000000
  0.100651  0.002142  0.039573      2.000000
  0.074557 -0.002878  0.046674      2.000000
  0.068347 -0.019380  0.070010      2.000000
  0.042254 -0.024400  0.077112      2.000000
  0.016161 -0.029421  0.084213      2.000000
 -0.009933 -0.034441  0.091314      2.000000
 -0.036026 -0.039461  0.098415      2.000000
  0.146627 -0.004320  0.048707      2.000000
  0.120534 -0.009340  0.055808      2.000000
  0.094440 -0.014360  0.062909      2.000000
 -0.050951  0.049511 -0.027398      2.000000
 -0.077044  0.044491 -0.020297      2.000000
 -0.103137  0.039471 -0.013196      2.000000
 -0.129230  0.034451 -0.006095      2.000000
 -0.155324  0.029431  0.001007      2.000000
  0.027329  0.064572 -0.048702      2.000000
  0.001236  0.059552 -0.041600      2.000000
 -0.024857  0.054532 -0.034499      2.000000
 -0.031068  0.038029 -0.011163      2.000000
 -0.057161  0.033009 -0.004062      2.000000
 -0.083254  0.027989  0.003039      2.000000
 -0.109347  0.022969  0.010140      2.000000
 -0.135441  0.017949  0.017241      2.000000
  0.047212  0.053090 -0.032467      2.000000
  0.021119  0.048070 -0.025366      2.000000
 -0.004974  0.043050 -0.018265      2.000000
 -0.011185  0.026547  0.005071      2.000000
 -0.037278  0.021527  0.012173      2.000000
 -0.063371  0.016507  0.019274      2.000000
 -0.089465  0.011487  0.026375      2.000000
 -0.115558  0.006467  0.033476      2.000000
  0.067095  0.041608 -0.016232      2.000000
  0.041002  0.036588 -0.009131      2.000000
  0.014908  0.031568 -0.002030      2.000000
  0.017396  0.030131  0.042612      2.000000
 -0.008697  0.025111  0.049714      2.000000
 -0.034790  0.020091  0.056815      2.000000
 -0.060883  0.015071  0.063916      2.000000
 -0.086977  0.010050  0.071017      2.000000
  0.095676  0.045192  0.021309      2.000000
  0.069583  0.040171  0.028410      2.000000
  0.043490  0.035151  0.035511      2.000000
  0.037279  0.018649  0.058847      2.000000
  0.011186  0.013629  0.065948      2.000000
 -0.014907  0.008609  0.073049      2.000000
 -0.041000  0.003589  0.080151      2.000000
 -0.067094 -0.001432  0.087252      2.000000
  0.115559  0.033710  0.037544      2.000000
  0.089466  0.028689  0.044645      2.000000
  0.063373  0.023669  0.051746      2.000000
  0.057162  0.007167  0.075082      2.000000
  0.031069  0.002147  0.082183      2.000000
  0.004976 -0.002873  0.089284      2.000000
 -0.021117 -0.007893  0.096385      2.000000
 -0.047211 -0.012913  0.103487      2.000000
  0.135442  0.022228  0.053778      2.000000
  0.109349  0.017208  0.060879      2.000000
  0.083256  0.012187  0.067981      2.000000
  0.077045 -0.004315  0.091317      2.000000
  0.050952 -0.009335  0.098418      2.000000
  0.024859 -0.014355  0.105519      2.000000
 -0.001234 -0.019375  0.112620      2.000000
 -0.027328 -0.024395  0.119721      2.000000
  0.155325  0.010746  0.070013      2.000000
  0.129232  0.005726  0.077114      2.000000
  0.103139  0.000705  0.084215      2.000000
 -0.042252  0.064577 -0.006092      2.000000
 -0.068346  0.059557  0.001009      2.000000
 -0.094439  0.054537  0.008110      2.000000
 -0.120532  0.049516  0.015212      2.000000
 -0.146625  0.044496  0.022313      2.000000
  0.036027  0.079637 -0.027396      2.000000
  0.009934  0.074617 -0.020294      2.000000
 -0.016159  0.069597 -0.013193      2.000000
 -0.022370  0.053095  0.010143      2.000000
 -0.048463  0.048075  0.017244      2.000000
 -0.074556  0.043055  0.024345      2.000000
 -0.100649  0.038034  0.031446      2.000000
 -0.126743  0.033014  0.038548      2.000000
  0.055910  0.068155 -0.011161      2.000000
  0.029817  0.063135 -0.004060      2.000000
  0.003724  0.058115  0.003042      2.000000
 -0.002487  0.041613  0.026378      2.000000
 -0.028580  0.036593  0.033479      2.000000
 -0.054673  0.031573  0.040580      2.000000
 -0.080766  0.026552  0.047681      2.000000
 -0.106860  0.021532  0.054782      2.000000
  0.075793  0.056673  0.005074      2.000000
  0.049700  0.051653  0.012175      2.000000
  0.023607  0.046633  0.019276      2.000000
  0.026095  0.045197  0.063919      2.000000
  0.000001  0.040176  0.071020      2.000000
 -0.026092  0.035156  0.078121      2.000000
 -0.052185  0.030136  0.085222      2.000000
 -0.078278  0.025116  0.092323      2.000000
  0.104374  0.060257  0.042615      2.000000
  0.078281  0.055237  0.049716      2.000000
  0.052188  0.050217  0.056817      2.000000
  0.045978  0.033715  0.080153      2.000000
  0.019884  0.028694  0.087254      2.000000
 -0.006209  0.023674  0.094356      2.000000
 -0.032302  0.018654  0.101457      2.000000
 -0.058395  0.013634  0.108558      2.000000
  0.124257  0.048775  0.058850      2.000000
  0.098164  0.043755  0.065951      2.000000
  0.072071  0.038735  0.073052      2.000000
  0.065861  0.022233  0.096388      2.000000
  0.039767  0.017213  0.103489      2.000000
  0.013674  0.012192  0.110590      2.000000
 -0.012419  0.007172  0.117692      2.000000
 -0.038512  0.002152  0.124793      2.000000
  0.144140  0.037293  0.075084      2.000000
  0.118047  0.032273  0.082186      2.000000
  0.091954  0.027253  0.089287      2.000000
  0.085744  0.010751  0.112623      2.000000
  0.059650  0.005731  0.119724      2.000000
  0.033557  0.000710  0.126825      2.000000
  0.007464 -0.004310  0.133926      2.000000
 -0.018629 -0.009330  0.141028      2.000000
  0.164023  0.025811  0.091319      2.000000
  0.137930  0.020791  0.098420      2.000000
  0.111837  0.015771  0.105522      2.000000
 -0.033554  0.079642  0.015214      2.000000
 -0.059648  0.074622  0.022315      2.000000
 -0.085741  0.069602  0.029417      2.000000
 -0.111834  0.064582  0.036518      2.000000
 -0.137927  0.059562  0.043619      2.000000
  0.044725  0.094703 -0.006089      2.000000
  0.018632  0.089683  0.001012      2.000000
 -0.007461  0.084663  0.008113      2.000000
 -0.013671  0.068160  0.031449      2.000000
 -0.039765  0.063140  0.038550      2.000000
 -0.065858  0.058120  0.045651      2.000000
 -0.091951  0.053100  0.052753      2.000000
 -0.118044  0.048080  0.059854      2.000000
  0.064608  0.083221  0.010145      2.000000
  0.038515  0.078201  0.017247      2.000000
  0.012422  0.073181  0.024348      2.000000
  0.006212  0.056679  0.047684      2.000000
 -0.019882  0.051658  0.054785      2.000000
 -0.045975  0.046638  0.061886      2.000000
 -0.072068  0.041618  0.068987      2.000000
 -0.098161  0.036598  0.076089      2.000000
  0.084491  0.071739  0.026380      2.000000
  0.058398  0.066719  0.033481      2.000000
  0.032305  0.061699  0.040583      2.000000
  0.034793  0.060262  0.085225      1.000000
  0.008700  0.055242  0.092326      2.000000
 -0.017394  0.050222  0.099427      2.000000
 -0.043487  0.045202  0.106528      2.000000
 -0.069580  0.040181  0.113629      1.000000
  0.054676  0.048780  0.101459      2.000000
  0.028583  0.043760  0.108561      2.000000
  0.002489  0.038740  0.115662      2.000000
 -0.023604  0.033720  0.122763      2.000000
 -0.049697  0.028700  0.129864      2.000000
  0.132956  0.063841  0.080156      2.000000
  0.106862  0.058821  0.087257      2.000000
  0.080769  0.053800  0.094358      2.000000
  0.074559  0.037298  0.117694      2.000000
  0.048466  0.032278  0.124795      2.000000
  0.022372  0.027258  0.131897      2.000000
 -0.003721  0.022238  0.138998      2.000000
 -0.029814  0.017218  0.146099      2.000000
  0.152839  0.052359  0.096391      2.000000
  0.126745  0.047339  0.103492      2.000000
  0.100652  0.042318  0.110593      2.000000
  0.094442  0.025816  0.133929      2.000000
  0.068349  0.020796  0.141030      2.000000
  0.042255  0.015776  0.148131      2.000000
  0.016162  0.010756  0.155233      2.000000
 -0.009931  0.005736  0.162334      2.000000
  0.172722  0.040877  0.112625      2.000000
  0.146628  0.035857  0.119727      2.000000
  0.120535  0.030836  0.126828      2.000000
 
 TETIRR: Found   1344 inequivalent tetrahedra from     2688


--------------------------------------------------------------------------------------------------------




 Dimension of arrays:
   k-points           NKPTS =    226   k-points in BZ     NKDIM =    226   number of bands    NBANDS=     56
   number of dos      NEDOS =    301   number of ions     NIONS =      8
   non local maximal  LDIM  =      8   non local SUM 2l+1 LMDIM =     32
   total plane-waves  NPLWV =  76800
   max r-space proj   IRMAX =  10618   max aug-charges    IRDMAX=  33672
   dimension x,y,z NGX =    40 NGY =   48 NGZ =   40
   dimension x,y,z NGXF=    80 NGYF=   96 NGZF=   80
   support grid    NGXF=    80 NGYF=   96 NGZF=   80
   ions per type =               4   4
   NGX,Y,Z   is equivalent  to a cutoff of  13.09, 12.83, 13.09 a.u.
   NGXF,Y,Z  is equivalent  to a cutoff of  26.17, 25.65, 26.18 a.u.

 SYSTEM =  unknown system                          
 POSCAR =  Eu4 O4                                  

 Startparameter for this run:
   NWRITE =      2    write-flag & timer
   PREC   = accura    normal or accurate (medium, high low for compatibility)
   ISTART =      0    job   : 0-new  1-cont  2-samecut
   ICHARG =      2    charge: 1-file 2-atom 10-const
   ISPIN  =      2    spin polarized calculation?
   LNONCOLLINEAR =      F non collinear calculations
   LSORBIT =      F    spin-orbit coupling
   INIWAV =      1    electr: 0-lowe 1-rand  2-diag
   LASPH  =      T    aspherical Exc in radial PAW
   METAGGA=      F    non-selfconsistent MetaGGA calc.

 Electronic Relaxation 1
   ENCUT  =  520.0 eV  38.22 Ry    6.18 a.u.   9.45 11.57  9.45*2*pi/ulx,y,z
   ENINI  =  520.0     initial cutoff
   ENAUG  =  605.4 eV  augmentation charge cutoff
   NELM   =    120;   NELMIN=  2; NELMDL=  0     # of ELM steps 
   EDIFF  = 0.1E-05   stopping-criterion for ELM
   LREAL  =      T    real-space projection
   NLSPLINE    = F    spline interpolate recip. space projectors
   LCOMPAT=      F    compatible to vasp.4.4
   GGA_COMPAT  = T    GGA compatible to vasp.4.4-vasp.4.6
   LMAXPAW     = -100 max onsite density
   LMAXMIX     =    4 max onsite mixed and CHGCAR
   VOSKOWN=      0    Vosko Wilk Nusair interpolation
   ROPT   =   -0.00025  -0.00025
 Ionic relaxation
   EDIFFG = 0.1E-04   stopping-criterion for IOM
   NSW    =      0    number of steps for IOM
   NBLOCK =      1;   KBLOCK =      1    inner block; outer block 
   IBRION =     -1    ionic relax: 0-MD 1-quasi-New 2-CG
   NFREE  =      0    steps in history (QN), initial steepest desc. (CG)
   ISIF   =      3    stress and relaxation
   IWAVPR =     10    prediction:  0-non 1-charg 2-wave 3-comb
   ISYM   =      2    0-nonsym 1-usesym 2-fastsym
   LCORR  =      T    Harris-Foulkes like correction to forces

   POTIM  = 0.5000    time-step for ionic-motion
   TEIN   =    0.0    initial temperature
   TEBEG  =    0.0;   TEEND  =   0.0 temperature during run
   SMASS  =  -3.00    Nose mass-parameter (am)
   estimated Nose-frequenzy (Omega)   =  0.10E-29 period in steps =****** mass=  -0.590E-27a.u.
   SCALEE = 1.0000    scale energy and forces
   NPACO  =    256;   APACO  = 16.0  distance and # of slots for P.C.
   PSTRESS=    0.0 pullay stress

  Mass of Ions in am
   POMASS = 151.97 16.00
  Ionic Valenz
   ZVAL   =  17.00  6.00
  Atomic Wigner-Seitz radii
   RWIGS  =  -1.00 -1.00
  virtual crystal weights 
   VCA    =   1.00  1.00
   NELECT =      92.0000    total number of electrons
   NUPDOWN=      -1.0000    fix difference up-down

 DOS related values:
   EMIN   =  10.00;   EMAX   =-10.00  energy-range for DOS
   EFERMI =   0.00
   ISMEAR =    -5;   SIGMA  =   0.05  broadening in eV -4-tet -1-fermi 0-gaus

 Electronic relaxation 2 (details)
   IALGO  =     38    algorithm
   LDIAG  =      T    sub-space diagonalisation (order eigenvalues)
   LSUBROT=      F    optimize rotation matrix (better conditioning)
   TURBO    =      0    0=normal 1=particle mesh
   IRESTART =      0    0=no restart 2=restart with 2 vectors
   NREBOOT  =      0    no. of reboots
   NMIN     =      0    reboot dimension
   EREF     =   0.00    reference energy to select bands
   IMIX   =      4    mixing-type and parameters
     AMIX     =   0.40;   BMIX     =  1.00
     AMIX_MAG =   1.60;   BMIX_MAG =  1.00
     AMIN     =   0.10
     WC   =   100.;   INIMIX=   1;  MIXPRE=   1;  MAXMIX= -45

 Intra band minimization:
   WEIMIN = 0.0000     energy-eigenvalue tresh-hold
   EBREAK =  0.45E-08  absolut break condition
   DEPER  =   0.30     relativ break condition  

   TIME   =   0.40     timestep for ELM

  volume/ion in A,a.u.               =      16.39       110.63
  Fermi-wavevector in a.u.,A,eV,Ry     =   1.454607  2.748810 28.788335  2.115883
  Thomas-Fermi vector in A             =   2.571738
 
 Write flags
   LWAVE        =      F    write WAVECAR
   LDOWNSAMPLE  =      F    k-point downsampling of WAVECAR
   LCHARG       =      F    write CHGCAR
   LVTOT        =      F    write LOCPOT, total local potential
   LVHAR        =      F    write LOCPOT, Hartree potential only
   LELF         =      F    write electronic localiz. function (ELF)
   LORBIT       =     11    0 simple, 1 ext, 2 COOP (PROOUT), +10 PAW based schemes


 Dipole corrections
   LMONO  =      F    monopole corrections only (constant potential shift)
   LDIPOL =      F    correct potential (dipole corrections)
   IDIPOL =      0    1-x, 2-y, 3-z, 4-all directions 
   EPSILON=  1.0000000 bulk dielectric constant

 Exchange correlation treatment:
   GGA     =    --    GGA type
   LEXCH   =     8    internal setting for exchange type
   VOSKOWN=      0    Vosko Wilk Nusair interpolation
   LHFCALC =     F    Hartree Fock is set to
   LHFONE  =     F    Hartree Fock one center treatment
   AEXX    =    0.0000 exact exchange contribution

 Linear response parameters
   LEPSILON=     F    determine dielectric tensor
   LRPA    =     F    only Hartree local field effects (RPA)
   LNABLA  =     F    use nabla operator in PAW spheres
   LVEL    =     F    velocity operator in full k-point grid
   LINTERFAST=   F  fast interpolation
   KINTER  =     0    interpolate to denser k-point grid
   CSHIFT  =0.1000    complex shift for real part using Kramers Kronig
   OMEGAMAX=  -1.0    maximum frequency
   DEG_THRESHOLD= 0.2000000E-02 threshold for treating states as degnerate
   RTIME   =   -0.100 relaxation time in fs
  (WPLASMAI=    0.000 imaginary part of plasma frequency in eV, 0.658/RTIME)
   DFIELD  = 0.0000000 0.0000000 0.0000000 field for delta impulse in time
 
 Orbital magnetization related:
   ORBITALMAG=     F  switch on orbital magnetization
   LCHIMAG   =     F  perturbation theory with respect to B field
   DQ        =  0.001000  dq finite difference perturbation B field
   LLRAUG    =     F  two centre corrections for induced B field



--------------------------------------------------------------------------------------------------------


 Static calculation
 charge density and potential will be updated during run
 spin polarized calculation
 Variant of blocked Davidson
 Davidson routine will perform the subspace rotation
 perform sub-space diagonalisation
    after iterative eigenvector-optimisation
 modified Broyden-mixing scheme, WC =      100.0
 initial mixing is a Kerker type mixing with AMIX =  0.4000 and BMIX =      1.0000
 Hartree-type preconditioning will be used
 using additional bands           10
 real space projection scheme for non local part
 use partial core corrections
 calculate Harris-corrections to forces 
   (improved forces if not selfconsistent)
 use gradient corrections 
 use of overlap-Matrix (Vanderbilt PP)
 Fermi weights with tetrahedron method with Bloechl corrections


--------------------------------------------------------------------------------------------------------


  energy-cutoff  :      520.00
  volume of cell :      131.15
      direct lattice vectors                 reciprocal lattice vectors
    -3.593091976 -2.074211501  2.933545000    -0.208745997 -0.040161339  0.056809533
     1.795785323 -5.184930711  2.933121105     0.139180846 -0.080373590  0.113643308
     0.000251646  4.148256495  2.933522868     0.069585788  0.120524224  0.170449360

  length of vectors
     5.081176002  6.221860720  5.080707473     0.220034424  0.196840096  0.220048301


 
 k-points in units of 2pi/SCALE and weight: pymatgen v2019.10.16 with grid density =
   0.00000000  0.00000000  0.00000000       0.002
  -0.02609325 -0.00502017  0.00710119       0.004
  -0.05218650 -0.01004033  0.01420238       0.004
  -0.07827975 -0.01506050  0.02130357       0.004
  -0.10437300 -0.02008067  0.02840477       0.002
   0.01988298 -0.01148194  0.01623476       0.004
  -0.00621027 -0.01650211  0.02333595       0.004
  -0.03230352 -0.02152228  0.03043714       0.004
  -0.05839677 -0.02654244  0.03753833       0.004
  -0.08449002 -0.03156261  0.04463952       0.004
   0.09816273  0.00357856 -0.00506882       0.004
   0.07206948 -0.00144161  0.00203238       0.004
   0.04597623 -0.00646177  0.00913357       0.004
   0.03976596 -0.02296388  0.03246952       0.004
   0.01367271 -0.02798405  0.03957071       0.004
  -0.01242054 -0.03300422  0.04667190       0.004
  -0.03851379 -0.03802438  0.05377309       0.004
  -0.06460704 -0.04304455  0.06087428       0.004
   0.11804571 -0.00790338  0.01116594       0.004
   0.09195246 -0.01292355  0.01826713       0.004
   0.06585921 -0.01794372  0.02536832       0.004
   0.05964893 -0.03444582  0.04870427       0.004
   0.03355568 -0.03946599  0.05580547       0.004
   0.00746243 -0.04448616  0.06290666       0.004
  -0.01863081 -0.04950633  0.07000785       0.004
  -0.04472406 -0.05452649  0.07710904       0.004
   0.13792868 -0.01938532  0.02740070       0.004
   0.11183543 -0.02440549  0.03450189       0.004
   0.08574218 -0.02942566  0.04160308       0.004
   0.00869822  0.01506553  0.02130617       0.004
  -0.01739503  0.01004536  0.02840736       0.004
  -0.04348828  0.00502519  0.03550855       0.004
  -0.06958153  0.00000503  0.04260974       0.004
  -0.09567478 -0.00501514  0.04971094       0.004
   0.08697797  0.03012603  0.00000260       0.004
   0.06088472  0.02510586  0.00710379       0.004
   0.03479147  0.02008570  0.01420498       0.004
   0.02858120  0.00358359  0.03754093       0.004
   0.00248795 -0.00143658  0.04464212       0.004
  -0.02360530 -0.00645675  0.05174331       0.004
  -0.04969855 -0.01147692  0.05884450       0.004
  -0.07579180 -0.01649708  0.06594569       0.004
   0.10686095  0.01864409  0.01623735       0.004
   0.08076770  0.01362392  0.02333854       0.004
   0.05467445  0.00860375  0.03043974       0.004
   0.04846418 -0.00789835  0.05377569       0.004
   0.02237093 -0.01291852  0.06087688       0.004
  -0.00372232 -0.01793869  0.06797807       0.004
  -0.02981557 -0.02295886  0.07507926       0.004
  -0.05590882 -0.02797902  0.08218045       0.004
   0.12674393  0.00716215  0.03247211       0.004
   0.10065068  0.00214198  0.03957330       0.004
   0.07455743 -0.00287819  0.04667449       0.004
   0.06834716 -0.01938030  0.07001044       0.004
   0.04225391 -0.02440046  0.07711164       0.004
   0.01616066 -0.02942063  0.08421283       0.004
  -0.00993259 -0.03444080  0.09131402       0.004
  -0.03602584 -0.03946097  0.09841521       0.004
   0.14662691 -0.00431979  0.04870687       0.004
   0.12053366 -0.00933996  0.05580806       0.004
   0.09444041 -0.01436013  0.06290925       0.004
  -0.05095071  0.04951135 -0.02739810       0.004
  -0.07704396  0.04449118 -0.02029691       0.004
  -0.10313721  0.03947102 -0.01319572       0.004
  -0.12923046  0.03445085 -0.00609453       0.004
  -0.15532371  0.02943068  0.00100666       0.004
   0.02732904  0.06457185 -0.04870168       0.004
   0.00123579  0.05955169 -0.04160049       0.004
  -0.02485746  0.05453152 -0.03449930       0.004
  -0.03106773  0.03802941 -0.01116335       0.004
  -0.05716098  0.03300924 -0.00406215       0.004
  -0.08325423  0.02798908  0.00303904       0.004
  -0.10934748  0.02296891  0.01014023       0.004
  -0.13544073  0.01794874  0.01724142       0.004
   0.04721202  0.05308991 -0.03246692       0.004
   0.02111877  0.04806975 -0.02536573       0.004
  -0.00497448  0.04304958 -0.01826454       0.004
  -0.01118475  0.02654747  0.00507141       0.004
  -0.03727800  0.02152730  0.01217260       0.004
  -0.06337125  0.01650713  0.01927379       0.004
  -0.08946450  0.01148697  0.02637499       0.004
  -0.11555775  0.00646680  0.03347618       0.004
   0.06709499  0.04160797 -0.01623216       0.004
   0.04100174  0.03658780 -0.00913097       0.004
   0.01490850  0.03156764 -0.00202978       0.004
   0.01739645  0.03013106  0.04261234       0.004
  -0.00869680  0.02511089  0.04971353       0.004
  -0.03479005  0.02009072  0.05681472       0.004
  -0.06088330  0.01507055  0.06391591       0.004
  -0.08697655  0.01005039  0.07101711       0.004
   0.09567620  0.04519156  0.02130877       0.004
   0.06958295  0.04017139  0.02840996       0.004
   0.04348970  0.03515122  0.03551115       0.004
   0.03727942  0.01864911  0.05884710       0.004
   0.01118618  0.01362895  0.06594829       0.004
  -0.01490707  0.00860878  0.07304948       0.004
  -0.04100032  0.00358861  0.08015067       0.004
  -0.06709357 -0.00143155  0.08725186       0.004
   0.11555917  0.03370962  0.03754352       0.004
   0.08946592  0.02868945  0.04464471       0.004
   0.06337267  0.02366928  0.05174591       0.004
   0.05716240  0.00716717  0.07508186       0.004
   0.03106915  0.00214701  0.08218305       0.004
   0.00497590 -0.00287316  0.08928424       0.004
  -0.02111735 -0.00789333  0.09638543       0.004
  -0.04721060 -0.01291350  0.10348662       0.004
   0.13544215  0.02222768  0.05377828       0.004
   0.10934890  0.01720751  0.06087947       0.004
   0.08325565  0.01218734  0.06798066       0.004
   0.07704538 -0.00431477  0.09131661       0.004
   0.05095213 -0.00933494  0.09841781       0.004
   0.02485888 -0.01435510  0.10551900       0.004
  -0.00123437 -0.01937527  0.11262019       0.004
  -0.02732762 -0.02439544  0.11972138       0.004
   0.15532513  0.01074573  0.07001304       0.004
   0.12923188  0.00572557  0.07711423       0.004
   0.10313863  0.00070540  0.08421542       0.004
  -0.04225249  0.06457688 -0.00609193       0.004
  -0.06834574  0.05955671  0.00100926       0.004
  -0.09443899  0.05453655  0.00811045       0.004
  -0.12053224  0.04951638  0.01521164       0.004
  -0.14662549  0.04449621  0.02231283       0.004
   0.03602726  0.07963738 -0.02739551       0.004
   0.00993401  0.07461721 -0.02029432       0.004
  -0.01615924  0.06959705 -0.01319313       0.004
  -0.02236951  0.05309494  0.01014282       0.004
  -0.04846276  0.04807477  0.01724402       0.004
  -0.07455601  0.04305460  0.02434521       0.004
  -0.10064926  0.03803444  0.03144640       0.004
  -0.12674251  0.03301427  0.03854759       0.004
   0.05591024  0.06815544 -0.01116075       0.004
   0.02981699  0.06313527 -0.00405956       0.004
   0.00372374  0.05811511  0.00304163       0.004
  -0.00248653  0.04161300  0.02637758       0.004
  -0.02857978  0.03659283  0.03347877       0.004
  -0.05467303  0.03157266  0.04057996       0.004
  -0.08076628  0.02655250  0.04768116       0.004
  -0.10685953  0.02153233  0.05478235       0.004
   0.07579322  0.05667350  0.00507401       0.004
   0.04969997  0.05165333  0.01217520       0.004
   0.02360672  0.04663316  0.01927639       0.004
   0.02609467  0.04519658  0.06391851       0.004
   0.00000142  0.04017642  0.07101970       0.004
  -0.02609183  0.03515625  0.07812089       0.004
  -0.05218508  0.03013608  0.08522208       0.004
  -0.07827833  0.02511591  0.09232328       0.004
   0.10437442  0.06025709  0.04261494       0.004
   0.07828117  0.05523692  0.04971613       0.004
   0.05218792  0.05021675  0.05681732       0.004
   0.04597765  0.03371464  0.08015327       0.004
   0.01988440  0.02869448  0.08725446       0.004
  -0.00620885  0.02367431  0.09435565       0.004
  -0.03230210  0.01865414  0.10145684       0.004
  -0.05839535  0.01363397  0.10855803       0.004
   0.12425740  0.04877514  0.05884969       0.004
   0.09816415  0.04375498  0.06595088       0.004
   0.07207090  0.03873481  0.07305208       0.004
   0.06586063  0.02223270  0.09638803       0.004
   0.03976738  0.01721253  0.10348922       0.004
   0.01367413  0.01219237  0.11059041       0.004
  -0.01241912  0.00717220  0.11769160       0.004
  -0.03851237  0.00215203  0.12479279       0.004
   0.14414038  0.03729320  0.07508445       0.004
   0.11804713  0.03227304  0.08218564       0.004
   0.09195388  0.02725287  0.08928683       0.004
   0.08574360  0.01075076  0.11262278       0.004
   0.05965035  0.00573059  0.11972398       0.004
   0.03355711  0.00071043  0.12682517       0.004
   0.00746386 -0.00430974  0.13392636       0.004
  -0.01862939 -0.00932991  0.14102755       0.004
   0.16402335  0.02581126  0.09131921       0.004
   0.13793010  0.02079109  0.09842040       0.004
   0.11183685  0.01577093  0.10552159       0.004
  -0.03355426  0.07964241  0.01521424       0.004
  -0.05964751  0.07462224  0.02231543       0.004
  -0.08574076  0.06960207  0.02941662       0.004
  -0.11183401  0.06458191  0.03651781       0.004
  -0.13792726  0.05956174  0.04361900       0.004
   0.04472549  0.09470291 -0.00608934       0.004
   0.01863224  0.08968274  0.00101185       0.004
  -0.00746101  0.08466258  0.00811304       0.004
  -0.01367129  0.06816047  0.03144899       0.004
  -0.03976454  0.06314030  0.03855018       0.004
  -0.06585779  0.05812013  0.04565138       0.004
  -0.09195103  0.05309996  0.05275257       0.004
  -0.11804428  0.04807980  0.05985376       0.004
   0.06460846  0.08322097  0.01014542       0.004
   0.03851521  0.07820080  0.01724661       0.004
   0.01242196  0.07318063  0.02434780       0.004
   0.00621169  0.05667853  0.04768375       0.004
  -0.01988156  0.05165836  0.05478494       0.004
  -0.04597481  0.04663819  0.06188613       0.004
  -0.07206806  0.04161802  0.06898733       0.004
  -0.09816131  0.03659786  0.07608852       0.004
   0.08449144  0.07173903  0.02638018       0.004
   0.05839819  0.06671886  0.03348137       0.004
   0.03230494  0.06169869  0.04058256       0.004
   0.03479289  0.06026211  0.08522468       0.002
   0.00869964  0.05524194  0.09232587       0.004
  -0.01739361  0.05022178  0.09942706       0.004
  -0.04348686  0.04520161  0.10652825       0.004
  -0.06958010  0.04018144  0.11362945       0.002
   0.05467587  0.04878017  0.10145944       0.004
   0.02858262  0.04376000  0.10856063       0.004
   0.00248937  0.03873984  0.11566182       0.004
  -0.02360388  0.03371967  0.12276301       0.004
  -0.04969713  0.02869950  0.12986420       0.004
   0.13295562  0.06384067  0.08015586       0.004
   0.10686237  0.05882051  0.08725705       0.004
   0.08076912  0.05380034  0.09435825       0.004
   0.07455885  0.03729823  0.11769420       0.004
   0.04846560  0.03227806  0.12479539       0.004
   0.02237235  0.02725789  0.13189658       0.004
  -0.00372090  0.02223773  0.13899777       0.004
  -0.02981415  0.01721756  0.14609896       0.004
   0.15283860  0.05235873  0.09639062       0.004
   0.12674535  0.04733856  0.10349181       0.004
   0.10065210  0.04231840  0.11059300       0.004
   0.09444183  0.02581629  0.13392895       0.004
   0.06834858  0.02079612  0.14103015       0.004
   0.04225533  0.01577595  0.14813134       0.004
   0.01616208  0.01075579  0.15523253       0.004
  -0.00993117  0.00573562  0.16233372       0.004
   0.17272158  0.04087679  0.11262538       0.004
   0.14662833  0.03585662  0.11972657       0.004
   0.12053508  0.03083646  0.12682776       0.004
 
 k-points in reciprocal lattice and weights: pymatgen v2019.10.16 with grid density =
   0.00000000  0.00000000  0.00000000       0.002
   0.12500000  0.00000000 -0.00000000       0.004
   0.25000000  0.00000000 -0.00000000       0.004
   0.37500000  0.00000000  0.00000000       0.004
   0.50000000  0.00000000 -0.00000000       0.002
  -0.00000000  0.14285714 -0.00000000       0.004
   0.12500000  0.14285714  0.00000000       0.004
   0.25000000  0.14285714  0.00000000       0.004
   0.37500000  0.14285714 -0.00000000       0.004
   0.50000000  0.14285714  0.00000000       0.004
  -0.37500000  0.14285714  0.00000000       0.004
  -0.25000000  0.14285714  0.00000000       0.004
  -0.12500000  0.14285714  0.00000000       0.004
  -0.00000000  0.28571429  0.00000000       0.004
   0.12500000  0.28571429  0.00000000       0.004
   0.25000000  0.28571429  0.00000000       0.004
   0.37500000  0.28571429  0.00000000       0.004
   0.50000000  0.28571429 -0.00000000       0.004
  -0.37500000  0.28571429  0.00000000       0.004
  -0.25000000  0.28571429 -0.00000000       0.004
  -0.12500000  0.28571429  0.00000000       0.004
  -0.00000000  0.42857143  0.00000000       0.004
   0.12500000  0.42857143  0.00000000       0.004
   0.25000000  0.42857143  0.00000000       0.004
   0.37500000  0.42857143 -0.00000000       0.004
   0.50000000  0.42857143  0.00000000       0.004
  -0.37500000  0.42857143  0.00000000       0.004
  -0.25000000  0.42857143  0.00000000       0.004
  -0.12500000  0.42857143 -0.00000000       0.004
   0.00000000  0.00000000  0.12500000       0.004
   0.12500000  0.00000000  0.12500000       0.004
   0.25000000  0.00000000  0.12500000       0.004
   0.37500000  0.00000000  0.12500000       0.004
   0.50000000  0.00000000  0.12500000       0.004
  -0.37500000  0.00000000  0.12500000       0.004
  -0.25000000  0.00000000  0.12500000       0.004
  -0.12500000  0.00000000  0.12500000       0.004
   0.00000000  0.14285714  0.12500000       0.004
   0.12500000  0.14285714  0.12500000       0.004
   0.25000000  0.14285714  0.12500000       0.004
   0.37500000  0.14285714  0.12500000       0.004
   0.50000000  0.14285714  0.12500000       0.004
  -0.37500000  0.14285714  0.12500000       0.004
  -0.25000000  0.14285714  0.12500000       0.004
  -0.12500000  0.14285714  0.12500000       0.004
  -0.00000000  0.28571429  0.12500000       0.004
   0.12500000  0.28571429  0.12500000       0.004
   0.25000000  0.28571429  0.12500000       0.004
   0.37500000  0.28571429  0.12500000       0.004
   0.50000000  0.28571429  0.12500000       0.004
  -0.37500000  0.28571429  0.12500000       0.004
  -0.25000000  0.28571429  0.12500000       0.004
  -0.12500000  0.28571429  0.12500000       0.004
  -0.00000000  0.42857143  0.12500000       0.004
   0.12500000  0.42857143  0.12500000       0.004
   0.25000000  0.42857143  0.12500000       0.004
   0.37500000  0.42857143  0.12500000       0.004
   0.50000000  0.42857143  0.12500000       0.004
  -0.37500000  0.42857143  0.12500000       0.004
  -0.25000000  0.42857143  0.12500000       0.004
  -0.12500000  0.42857143  0.12500000       0.004
   0.00000000 -0.42857143  0.12500000       0.004
   0.12500000 -0.42857143  0.12500000       0.004
   0.25000000 -0.42857143  0.12500000       0.004
   0.37500000 -0.42857143  0.12500000       0.004
   0.50000000 -0.42857143  0.12500000       0.004
  -0.37500000 -0.42857143  0.12500000       0.004
  -0.25000000 -0.42857143  0.12500000       0.004
  -0.12500000 -0.42857143  0.12500000       0.004
   0.00000000 -0.28571429  0.12500000       0.004
   0.12500000 -0.28571429  0.12500000       0.004
   0.25000000 -0.28571429  0.12500000       0.004
   0.37500000 -0.28571429  0.12500000       0.004
   0.50000000 -0.28571429  0.12500000       0.004
  -0.37500000 -0.28571429  0.12500000       0.004
  -0.25000000 -0.28571429  0.12500000       0.004
  -0.12500000 -0.28571429  0.12500000       0.004
   0.00000000 -0.14285714  0.12500000       0.004
   0.12500000 -0.14285714  0.12500000       0.004
   0.25000000 -0.14285714  0.12500000       0.004
   0.37500000 -0.14285714  0.12500000       0.004
   0.50000000 -0.14285714  0.12500000       0.004
  -0.37500000 -0.14285714  0.12500000       0.004
  -0.25000000 -0.14285714  0.12500000       0.004
  -0.12500000 -0.14285714  0.12500000       0.004
   0.00000000  0.00000000  0.25000000       0.004
   0.12500000  0.00000000  0.25000000       0.004
   0.25000000  0.00000000  0.25000000       0.004
   0.37500000  0.00000000  0.25000000       0.004
   0.50000000  0.00000000  0.25000000       0.004
  -0.37500000  0.00000000  0.25000000       0.004
  -0.25000000  0.00000000  0.25000000       0.004
  -0.12500000  0.00000000  0.25000000       0.004
   0.00000000  0.14285714  0.25000000       0.004
   0.12500000  0.14285714  0.25000000       0.004
   0.25000000  0.14285714  0.25000000       0.004
   0.37500000  0.14285714  0.25000000       0.004
   0.50000000  0.14285714  0.25000000       0.004
  -0.37500000  0.14285714  0.25000000       0.004
  -0.25000000  0.14285714  0.25000000       0.004
  -0.12500000  0.14285714  0.25000000       0.004
   0.00000000  0.28571429  0.25000000       0.004
   0.12500000  0.28571429  0.25000000       0.004
   0.25000000  0.28571429  0.25000000       0.004
   0.37500000  0.28571429  0.25000000       0.004
   0.50000000  0.28571429  0.25000000       0.004
  -0.37500000  0.28571429  0.25000000       0.004
  -0.25000000  0.28571429  0.25000000       0.004
  -0.12500000  0.28571429  0.25000000       0.004
   0.00000000  0.42857143  0.25000000       0.004
   0.12500000  0.42857143  0.25000000       0.004
   0.25000000  0.42857143  0.25000000       0.004
   0.37500000  0.42857143  0.25000000       0.004
   0.50000000  0.42857143  0.25000000       0.004
  -0.37500000  0.42857143  0.25000000       0.004
  -0.25000000  0.42857143  0.25000000       0.004
  -0.12500000  0.42857143  0.25000000       0.004
   0.00000000 -0.42857143  0.25000000       0.004
   0.12500000 -0.42857143  0.25000000       0.004
   0.25000000 -0.42857143  0.25000000       0.004
   0.37500000 -0.42857143  0.25000000       0.004
   0.50000000 -0.42857143  0.25000000       0.004
  -0.37500000 -0.42857143  0.25000000       0.004
  -0.25000000 -0.42857143  0.25000000       0.004
  -0.12500000 -0.42857143  0.25000000       0.004
  -0.00000000 -0.28571429  0.25000000       0.004
   0.12500000 -0.28571429  0.25000000       0.004
   0.25000000 -0.28571429  0.25000000       0.004
   0.37500000 -0.28571429  0.25000000       0.004
   0.50000000 -0.28571429  0.25000000       0.004
  -0.37500000 -0.28571429  0.25000000       0.004
  -0.25000000 -0.28571429  0.25000000       0.004
  -0.12500000 -0.28571429  0.25000000       0.004
   0.00000000 -0.14285714  0.25000000       0.004
   0.12500000 -0.14285714  0.25000000       0.004
   0.25000000 -0.14285714  0.25000000       0.004
   0.37500000 -0.14285714  0.25000000       0.004
   0.50000000 -0.14285714  0.25000000       0.004
  -0.37500000 -0.14285714  0.25000000       0.004
  -0.25000000 -0.14285714  0.25000000       0.004
  -0.12500000 -0.14285714  0.25000000       0.004
  -0.00000000  0.00000000  0.37500000       0.004
   0.12500000  0.00000000  0.37500000       0.004
   0.25000000  0.00000000  0.37500000       0.004
   0.37500000  0.00000000  0.37500000       0.004
   0.50000000  0.00000000  0.37500000       0.004
  -0.37500000  0.00000000  0.37500000       0.004
  -0.25000000  0.00000000  0.37500000       0.004
  -0.12500000  0.00000000  0.37500000       0.004
   0.00000000  0.14285714  0.37500000       0.004
   0.12500000  0.14285714  0.37500000       0.004
   0.25000000  0.14285714  0.37500000       0.004
   0.37500000  0.14285714  0.37500000       0.004
   0.50000000  0.14285714  0.37500000       0.004
  -0.37500000  0.14285714  0.37500000       0.004
  -0.25000000  0.14285714  0.37500000       0.004
  -0.12500000  0.14285714  0.37500000       0.004
   0.00000000  0.28571429  0.37500000       0.004
   0.12500000  0.28571429  0.37500000       0.004
   0.25000000  0.28571429  0.37500000       0.004
   0.37500000  0.28571429  0.37500000       0.004
   0.50000000  0.28571429  0.37500000       0.004
  -0.37500000  0.28571429  0.37500000       0.004
  -0.25000000  0.28571429  0.37500000       0.004
  -0.12500000  0.28571429  0.37500000       0.004
   0.00000000  0.42857143  0.37500000       0.004
   0.12500000  0.42857143  0.37500000       0.004
   0.25000000  0.42857143  0.37500000       0.004
   0.37500000  0.42857143  0.37500000       0.004
   0.50000000  0.42857143  0.37500000       0.004
  -0.37500000  0.42857143  0.37500000       0.004
  -0.25000000  0.42857143  0.37500000       0.004
  -0.12500000  0.42857143  0.37500000       0.004
   0.00000000 -0.42857143  0.37500000       0.004
   0.12500000 -0.42857143  0.37500000       0.004
   0.25000000 -0.42857143  0.37500000       0.004
   0.37500000 -0.42857143  0.37500000       0.004
   0.50000000 -0.42857143  0.37500000       0.004
  -0.37500000 -0.42857143  0.37500000       0.004
  -0.25000000 -0.42857143  0.37500000       0.004
  -0.12500000 -0.42857143  0.37500000       0.004
   0.00000000 -0.28571429  0.37500000       0.004
   0.12500000 -0.28571429  0.37500000       0.004
   0.25000000 -0.28571429  0.37500000       0.004
   0.37500000 -0.28571429  0.37500000       0.004
   0.50000000 -0.28571429  0.37500000       0.004
  -0.37500000 -0.28571429  0.37500000       0.004
  -0.25000000 -0.28571429  0.37500000       0.004
  -0.12500000 -0.28571429  0.37500000       0.004
   0.00000000 -0.14285714  0.37500000       0.004
   0.12500000 -0.14285714  0.37500000       0.004
   0.25000000 -0.14285714  0.37500000       0.004
   0.37500000 -0.14285714  0.37500000       0.004
   0.50000000 -0.14285714  0.37500000       0.004
  -0.37500000 -0.14285714  0.37500000       0.004
  -0.25000000 -0.14285714  0.37500000       0.004
  -0.12500000 -0.14285714  0.37500000       0.004
   0.00000000  0.00000000  0.50000000       0.002
   0.12500000  0.00000000  0.50000000       0.004
   0.25000000  0.00000000  0.50000000       0.004
   0.37500000  0.00000000  0.50000000       0.004
   0.50000000  0.00000000  0.50000000       0.002
   0.00000000  0.14285714  0.50000000       0.004
   0.12500000  0.14285714  0.50000000       0.004
   0.25000000  0.14285714  0.50000000       0.004
   0.37500000  0.14285714  0.50000000       0.004
   0.50000000  0.14285714  0.50000000       0.004
  -0.37500000  0.14285714  0.50000000       0.004
  -0.25000000  0.14285714  0.50000000       0.004
  -0.12500000  0.14285714  0.50000000       0.004
   0.00000000  0.28571429  0.50000000       0.004
   0.12500000  0.28571429  0.50000000       0.004
   0.25000000  0.28571429  0.50000000       0.004
   0.37500000  0.28571429  0.50000000       0.004
   0.50000000  0.28571429  0.50000000       0.004
  -0.37500000  0.28571429  0.50000000       0.004
  -0.25000000  0.28571429  0.50000000       0.004
  -0.12500000  0.28571429  0.50000000       0.004
   0.00000000  0.42857143  0.50000000       0.004
   0.12500000  0.42857143  0.50000000       0.004
   0.25000000  0.42857143  0.50000000       0.004
   0.37500000  0.42857143  0.50000000       0.004
   0.50000000  0.42857143  0.50000000       0.004
  -0.37500000  0.42857143  0.50000000       0.004
  -0.25000000  0.42857143  0.50000000       0.004
  -0.12500000  0.42857143  0.50000000       0.004
 
 position of ions in fractional coordinates (direct lattice) 
   0.50000835  0.00000212  0.50000562
   0.24999165  0.49999788  0.24999438
   0.74999165  0.49999788  0.74999438
   0.00000835  0.00000212  0.00000562
   0.00000217  0.99999765  0.49999792
   0.74999783  0.50000235  0.25000208
   0.50000217  0.99999765  0.99999792
   0.24999783  0.50000235  0.75000208
 
 position of ions in cartesian coordinates  (Angst):
  -1.79644636  1.03701747  2.93358115
  -0.00029123 -2.07394908  2.93328031
  -1.79671139 -1.03692658  5.86681424
  -0.00002619 -0.00000503  0.00004721
   1.79589914 -3.11080341  4.39987593
  -1.79685140 -3.11105891  4.40010663
  -0.00052103 -2.07378092  7.33340986
  -0.00017959  0.00017509  4.40009556
 


--------------------------------------------------------------------------------------------------------


 k-point  1 :   0.0000 0.0000 0.0000  plane waves:    3547
 k-point  2 :   0.1250 0.0000-0.0000  plane waves:    3549
 k-point  3 :   0.2500 0.0000-0.0000  plane waves:    3551
 k-point  4 :   0.3750 0.0000 0.0000  plane waves:    3529
 k-point  5 :   0.5000 0.0000-0.0000  plane waves:    3530
 k-point  6 :  -0.0000 0.1429-0.0000  plane waves:    3551
 k-point  7 :   0.1250 0.1429 0.0000  plane waves:    3551
 k-point  8 :   0.2500 0.1429 0.0000  plane waves:    3548
 k-point  9 :   0.3750 0.1429-0.0000  plane waves:    3528
 k-point 10 :   0.5000 0.1429 0.0000  plane waves:    3526
 k-point 11 :  -0.3750 0.1429 0.0000  plane waves:    3539
 k-point 12 :  -0.2500 0.1429 0.0000  plane waves:    3541
 k-point 13 :  -0.1250 0.1429 0.0000  plane waves:    3551
 k-point 14 :  -0.0000 0.2857 0.0000  plane waves:    3527
 k-point 15 :   0.1250 0.2857 0.0000  plane waves:    3544
 k-point 16 :   0.2500 0.2857 0.0000  plane waves:    3550
 k-point 17 :   0.3750 0.2857 0.0000  plane waves:    3531
 k-point 18 :   0.5000 0.2857-0.0000  plane waves:    3533
 k-point 19 :  -0.3750 0.2857 0.0000  plane waves:    3520
 k-point 20 :  -0.2500 0.2857-0.0000  plane waves:    3531
 k-point 21 :  -0.1250 0.2857 0.0000  plane waves:    3542
 k-point 22 :  -0.0000 0.4286 0.0000  plane waves:    3523
 k-point 23 :   0.1250 0.4286 0.0000  plane waves:    3536
 k-point 24 :   0.2500 0.4286 0.0000  plane waves:    3536
 k-point 25 :   0.3750 0.4286-0.0000  plane waves:    3530
 k-point 26 :   0.5000 0.4286 0.0000  plane waves:    3532
 k-point 27 :  -0.3750 0.4286 0.0000  plane waves:    3525
 k-point 28 :  -0.2500 0.4286 0.0000  plane waves:    3524
 k-point 29 :  -0.1250 0.4286-0.0000  plane waves:    3528
 k-point 30 :   0.0000 0.0000 0.1250  plane waves:    3549
 k-point 31 :   0.1250 0.0000 0.1250  plane waves:    3555
 k-point 32 :   0.2500 0.0000 0.1250  plane waves:    3543
 k-point 33 :   0.3750 0.0000 0.1250  plane waves:    3526
 k-point 34 :   0.5000 0.0000 0.1250  plane waves:    3518
 k-point 35 :  -0.3750 0.0000 0.1250  plane waves:    3533
 k-point 36 :  -0.2500 0.0000 0.1250  plane waves:    3544
 k-point 37 :  -0.1250 0.0000 0.1250  plane waves:    3556
 k-point 38 :   0.0000 0.1429 0.1250  plane waves:    3552
 k-point 39 :   0.1250 0.1429 0.1250  plane waves:    3556
 k-point 40 :   0.2500 0.1429 0.1250  plane waves:    3546
 k-point 41 :   0.3750 0.1429 0.1250  plane waves:    3526
 k-point 42 :   0.5000 0.1429 0.1250  plane waves:    3524
 k-point 43 :  -0.3750 0.1429 0.1250  plane waves:    3527
 k-point 44 :  -0.2500 0.1429 0.1250  plane waves:    3531
 k-point 45 :  -0.1250 0.1429 0.1250  plane waves:    3541
 k-point 46 :  -0.0000 0.2857 0.1250  plane waves:    3542
 k-point 47 :   0.1250 0.2857 0.1250  plane waves:    3540
 k-point 48 :   0.2500 0.2857 0.1250  plane waves:    3538
 k-point 49 :   0.3750 0.2857 0.1250  plane waves:    3528
 k-point 50 :   0.5000 0.2857 0.1250  plane waves:    3522
 k-point 51 :  -0.3750 0.2857 0.1250  plane waves:    3528
 k-point 52 :  -0.2500 0.2857 0.1250  plane waves:    3524
 k-point 53 :  -0.1250 0.2857 0.1250  plane waves:    3535
 k-point 54 :  -0.0000 0.4286 0.1250  plane waves:    3528
 k-point 55 :   0.1250 0.4286 0.1250  plane waves:    3527
 k-point 56 :   0.2500 0.4286 0.1250  plane waves:    3530
 k-point 57 :   0.3750 0.4286 0.1250  plane waves:    3532
 k-point 58 :   0.5000 0.4286 0.1250  plane waves:    3517
 k-point 59 :  -0.3750 0.4286 0.1250  plane waves:    3533
 k-point 60 :  -0.2500 0.4286 0.1250  plane waves:    3529
 k-point 61 :  -0.1250 0.4286 0.1250  plane waves:    3523
 k-point 62 :   0.0000-0.4286 0.1250  plane waves:    3536
 k-point 63 :   0.1250-0.4286 0.1250  plane waves:    3527
 k-point 64 :   0.2500-0.4286 0.1250  plane waves:    3519
 k-point 65 :   0.3750-0.4286 0.1250  plane waves:    3532
 k-point 66 :   0.5000-0.4286 0.1250  plane waves:    3521
 k-point 67 :  -0.3750-0.4286 0.1250  plane waves:    3528
 k-point 68 :  -0.2500-0.4286 0.1250  plane waves:    3536
 k-point 69 :  -0.1250-0.4286 0.1250  plane waves:    3537
 k-point 70 :   0.0000-0.2857 0.1250  plane waves:    3544
 k-point 71 :   0.1250-0.2857 0.1250  plane waves:    3540
 k-point 72 :   0.2500-0.2857 0.1250  plane waves:    3535
 k-point 73 :   0.3750-0.2857 0.1250  plane waves:    3529
 k-point 74 :   0.5000-0.2857 0.1250  plane waves:    3528
 k-point 75 :  -0.3750-0.2857 0.1250  plane waves:    3531
 k-point 76 :  -0.2500-0.2857 0.1250  plane waves:    3547
 k-point 77 :  -0.1250-0.2857 0.1250  plane waves:    3558
 k-point 78 :   0.0000-0.1429 0.1250  plane waves:    3549
 k-point 79 :   0.1250-0.1429 0.1250  plane waves:    3556
 k-point 80 :   0.2500-0.1429 0.1250  plane waves:    3541
 k-point 81 :   0.3750-0.1429 0.1250  plane waves:    3530
 k-point 82 :   0.5000-0.1429 0.1250  plane waves:    3520
 k-point 83 :  -0.3750-0.1429 0.1250  plane waves:    3528
 k-point 84 :  -0.2500-0.1429 0.1250  plane waves:    3545
 k-point 85 :  -0.1250-0.1429 0.1250  plane waves:    3551
 k-point 86 :   0.0000 0.0000 0.2500  plane waves:    3551
 k-point 87 :   0.1250 0.0000 0.2500  plane waves:    3543
 k-point 88 :   0.2500 0.0000 0.2500  plane waves:    3557
 k-point 89 :   0.3750 0.0000 0.2500  plane waves:    3526
 k-point 90 :   0.5000 0.0000 0.2500  plane waves:    3522
 k-point 91 :  -0.3750 0.0000 0.2500  plane waves:    3531
 k-point 92 :  -0.2500 0.0000 0.2500  plane waves:    3560
 k-point 93 :  -0.1250 0.0000 0.2500  plane waves:    3545
 k-point 94 :   0.0000 0.1429 0.2500  plane waves:    3541
 k-point 95 :   0.1250 0.1429 0.2500  plane waves:    3541
 k-point 96 :   0.2500 0.1429 0.2500  plane waves:    3531
 k-point 97 :   0.3750 0.1429 0.2500  plane waves:    3525
 k-point 98 :   0.5000 0.1429 0.2500  plane waves:    3527
 k-point 99 :  -0.3750 0.1429 0.2500  plane waves:    3527
 k-point ** :  -0.2500 0.1429 0.2500  plane waves:    3531
 k-point ** :  -0.1250 0.1429 0.2500  plane waves:    3532
 k-point ** :   0.0000 0.2857 0.2500  plane waves:    3531
 k-point ** :   0.1250 0.2857 0.2500  plane waves:    3535
 k-point ** :   0.2500 0.2857 0.2500  plane waves:    3541
 k-point ** :   0.3750 0.2857 0.2500  plane waves:    3524
 k-point ** :   0.5000 0.2857 0.2500  plane waves:    3521
 k-point ** :  -0.3750 0.2857 0.2500  plane waves:    3525
 k-point ** :  -0.2500 0.2857 0.2500  plane waves:    3532
 k-point ** :  -0.1250 0.2857 0.2500  plane waves:    3524
 k-point ** :   0.0000 0.4286 0.2500  plane waves:    3525
 k-point ** :   0.1250 0.4286 0.2500  plane waves:    3519
 k-point ** :   0.2500 0.4286 0.2500  plane waves:    3529
 k-point ** :   0.3750 0.4286 0.2500  plane waves:    3529
 k-point ** :   0.5000 0.4286 0.2500  plane waves:    3521
 k-point ** :  -0.3750 0.4286 0.2500  plane waves:    3528
 k-point ** :  -0.2500 0.4286 0.2500  plane waves:    3537
 k-point ** :  -0.1250 0.4286 0.2500  plane waves:    3529
 k-point ** :   0.0000-0.4286 0.2500  plane waves:    3536
 k-point ** :   0.1250-0.4286 0.2500  plane waves:    3530
 k-point ** :   0.2500-0.4286 0.2500  plane waves:    3529
 k-point ** :   0.3750-0.4286 0.2500  plane waves:    3527
 k-point ** :   0.5000-0.4286 0.2500  plane waves:    3522
 k-point ** :  -0.3750-0.4286 0.2500  plane waves:    3525
 k-point ** :  -0.2500-0.4286 0.2500  plane waves:    3528
 k-point ** :  -0.1250-0.4286 0.2500  plane waves:    3536
 k-point ** :  -0.0000-0.2857 0.2500  plane waves:    3551
 k-point ** :   0.1250-0.2857 0.2500  plane waves:    3539
 k-point ** :   0.2500-0.2857 0.2500  plane waves:    3540
 k-point ** :   0.3750-0.2857 0.2500  plane waves:    3532
 k-point ** :   0.5000-0.2857 0.2500  plane waves:    3526
 k-point ** :  -0.3750-0.2857 0.2500  plane waves:    3533
 k-point ** :  -0.2500-0.2857 0.2500  plane waves:    3537
 k-point ** :  -0.1250-0.2857 0.2500  plane waves:    3547
 k-point ** :   0.0000-0.1429 0.2500  plane waves:    3548
 k-point ** :   0.1250-0.1429 0.2500  plane waves:    3545
 k-point ** :   0.2500-0.1429 0.2500  plane waves:    3531
 k-point ** :   0.3750-0.1429 0.2500  plane waves:    3525
 k-point ** :   0.5000-0.1429 0.2500  plane waves:    3524
 k-point ** :  -0.3750-0.1429 0.2500  plane waves:    3526
 k-point ** :  -0.2500-0.1429 0.2500  plane waves:    3536
 k-point ** :  -0.1250-0.1429 0.2500  plane waves:    3545
 k-point ** :  -0.0000 0.0000 0.3750  plane waves:    3529
 k-point ** :   0.1250 0.0000 0.3750  plane waves:    3526
 k-point ** :   0.2500 0.0000 0.3750  plane waves:    3526
 k-point ** :   0.3750 0.0000 0.3750  plane waves:    3504
 k-point ** :   0.5000 0.0000 0.3750  plane waves:    3525
 k-point ** :  -0.3750 0.0000 0.3750  plane waves:    3521
 k-point ** :  -0.2500 0.0000 0.3750  plane waves:    3530
 k-point ** :  -0.1250 0.0000 0.3750  plane waves:    3533
 k-point ** :   0.0000 0.1429 0.3750  plane waves:    3539
 k-point ** :   0.1250 0.1429 0.3750  plane waves:    3530
 k-point ** :   0.2500 0.1429 0.3750  plane waves:    3525
 k-point ** :   0.3750 0.1429 0.3750  plane waves:    3524
 k-point ** :   0.5000 0.1429 0.3750  plane waves:    3527
 k-point ** :  -0.3750 0.1429 0.3750  plane waves:    3526
 k-point ** :  -0.2500 0.1429 0.3750  plane waves:    3527
 k-point ** :  -0.1250 0.1429 0.3750  plane waves:    3528
 k-point ** :   0.0000 0.2857 0.3750  plane waves:    3520
 k-point ** :   0.1250 0.2857 0.3750  plane waves:    3529
 k-point ** :   0.2500 0.2857 0.3750  plane waves:    3532
 k-point ** :   0.3750 0.2857 0.3750  plane waves:    3530
 k-point ** :   0.5000 0.2857 0.3750  plane waves:    3528
 k-point ** :  -0.3750 0.2857 0.3750  plane waves:    3523
 k-point ** :  -0.2500 0.2857 0.3750  plane waves:    3525
 k-point ** :  -0.1250 0.2857 0.3750  plane waves:    3528
 k-point ** :   0.0000 0.4286 0.3750  plane waves:    3525
 k-point ** :   0.1250 0.4286 0.3750  plane waves:    3531
 k-point ** :   0.2500 0.4286 0.3750  plane waves:    3527
 k-point ** :   0.3750 0.4286 0.3750  plane waves:    3525
 k-point ** :   0.5000 0.4286 0.3750  plane waves:    3521
 k-point ** :  -0.3750 0.4286 0.3750  plane waves:    3534
 k-point ** :  -0.2500 0.4286 0.3750  plane waves:    3528
 k-point ** :  -0.1250 0.4286 0.3750  plane waves:    3532
 k-point ** :   0.0000-0.4286 0.3750  plane waves:    3530
 k-point ** :   0.1250-0.4286 0.3750  plane waves:    3531
 k-point ** :   0.2500-0.4286 0.3750  plane waves:    3529
[...]
 -0.000   0.000   0.000   0.001   0.012   0.000  -0.000  -0.007
 -0.000   0.000  -0.026   0.000   0.000   0.017  -0.000  -0.000
  0.000  -0.000   0.000  -0.000   0.000  -0.000   0.000  -0.000
 pseudopotential strength for first ion, spin component:           2
 -8.682  -4.018   0.000  -0.000   0.000  -0.000   0.000  -0.000
 -4.018  -0.359  -0.000   0.000  -0.000   0.000  -0.000   0.000
  0.000  -0.000 -15.663   0.001   0.001   7.370  -0.001  -0.001
 -0.000   0.000   0.001 -15.664  -0.001  -0.001   7.370   0.001
  0.000  -0.000   0.001  -0.001 -15.665  -0.001   0.001   7.371
 -0.000   0.000   7.370  -0.001  -0.001   4.942   0.000   0.001
  0.000  -0.000  -0.001   7.370   0.001   0.000   4.942  -0.001
 -0.000   0.000  -0.001   0.001   7.371   0.001  -0.001   4.941
  0.001  -0.000   0.000   0.000  -0.000  -0.000  -0.000   0.000
  0.001  -0.000  -0.000   0.000   0.000   0.000  -0.000  -0.000
  0.000   0.000   0.000  -0.000   0.000  -0.000   0.000  -0.000
 -0.001   0.000   0.000   0.000   0.000  -0.000  -0.000  -0.000
 -0.000   0.000   0.000   0.000  -0.000  -0.000  -0.000   0.000
 -0.001   0.000  -0.000  -0.000   0.000   0.000   0.000  -0.000
 -0.001   0.000   0.000  -0.000  -0.000  -0.000   0.000   0.000
 -0.000  -0.000  -0.000   0.000  -0.000   0.000  -0.000   0.000
  0.002  -0.000  -0.000  -0.000  -0.000   0.000   0.000   0.000
  0.001  -0.000  -0.000  -0.000   0.000   0.000   0.000  -0.000
 -0.000  -0.000  -0.000   0.001   0.000   0.000  -0.005  -0.000
  0.000  -0.000  -0.000   0.000   0.001   0.000  -0.000  -0.006
  0.000  -0.000  -0.000   0.000  -0.000   0.003   0.000  -0.000
  0.000  -0.000  -0.000   0.000   0.000   0.000  -0.004  -0.000
  0.000  -0.000  -0.000  -0.000  -0.000  -0.000  -0.000   0.003
  0.000  -0.000   0.001  -0.000  -0.000  -0.006   0.000   0.000
 -0.000   0.000  -0.000  -0.000  -0.000  -0.000   0.000  -0.000
 -0.000  -0.000  -0.000   0.000   0.000   0.000  -0.005  -0.000
  0.000   0.000  -0.000   0.000   0.000   0.000  -0.000  -0.006
  0.000  -0.000  -0.000   0.000  -0.000   0.003  -0.000  -0.000
  0.000  -0.000  -0.000   0.000   0.000   0.000  -0.004  -0.000
  0.000  -0.000  -0.000  -0.000  -0.000  -0.000  -0.000   0.003
  0.000  -0.000   0.000  -0.000  -0.000  -0.006   0.000   0.000
 -0.000   0.000  -0.000  -0.000  -0.000  -0.000   0.000  -0.000
 total augmentation occupancy for first ion, spin component:           1
  1.993  -0.037   0.000  -0.000   0.000  -0.000   0.000   0.000   0.000   0.000  -0.000  -0.000  -0.000   0.000   0.000  -0.000
 -0.037   0.605  -0.000  -0.000   0.000   0.000   0.000  -0.000  -0.000  -0.000  -0.000   0.000   0.000  -0.000  -0.000  -0.000
  0.000  -0.000   2.013   0.000   0.000  -0.019   0.000   0.000  -0.000  -0.000  -0.000  -0.000   0.000  -0.000  -0.000  -0.000
 -0.000  -0.000   0.000   2.013  -0.000   0.000  -0.019  -0.000  -0.000  -0.000   0.000  -0.000  -0.000  -0.000  -0.000   0.000
  0.000   0.000   0.000  -0.000   2.013   0.000  -0.000  -0.019  -0.000   0.000  -0.000   0.000   0.000  -0.000   0.000  -0.000
 -0.000   0.000  -0.019   0.000   0.000   0.020  -0.000  -0.000   0.000   0.000   0.000   0.000  -0.000   0.000  -0.000   0.000
  0.000   0.000   0.000  -0.019  -0.000  -0.000   0.020   0.000   0.000   0.000  -0.000   0.000   0.000   0.000   0.000  -0.000
  0.000  -0.000   0.000  -0.000  -0.019  -0.000   0.000   0.020  -0.000  -0.000   0.000   0.000  -0.000  -0.000  -0.000   0.000
  0.000  -0.000  -0.000  -0.000  -0.000   0.000   0.000  -0.000   0.226   0.001   0.003  -0.084   0.001   0.062   0.000   0.000
  0.000  -0.000  -0.000  -0.000   0.000   0.000   0.000  -0.000   0.001   0.286  -0.001   0.001  -0.082   0.000   0.084  -0.000
 -0.000  -0.000  -0.000   0.000  -0.000   0.000  -0.000   0.000   0.003  -0.001   0.169   0.002  -0.002   0.000  -0.000   0.040
 -0.000   0.000  -0.000  -0.000   0.000   0.000   0.000   0.000  -0.084   0.001   0.002   0.285   0.001  -0.031   0.000   0.000
 -0.000   0.000   0.000  -0.000   0.000  -0.000   0.000  -0.000   0.001  -0.082  -0.002   0.001   0.228   0.000  -0.031  -0.000
  0.000  -0.000  -0.000  -0.000  -0.000   0.000   0.000  -0.000   0.062   0.000   0.000  -0.031   0.000   0.018   0.000   0.000
  0.000  -0.000  -0.000  -0.000   0.000  -0.000   0.000  -0.000   0.000   0.084  -0.000   0.000  -0.031   0.000   0.026  -0.000
 -0.000  -0.000  -0.000   0.000  -0.000   0.000  -0.000   0.000   0.000  -0.000   0.040   0.000  -0.000   0.000  -0.000   0.010
 -0.000   0.000  -0.000  -0.000   0.000   0.000   0.000   0.000  -0.031   0.000   0.000   0.084   0.000  -0.011   0.000   0.000
 -0.000   0.000   0.000  -0.000   0.000   0.000   0.000  -0.000   0.000  -0.031  -0.000   0.000   0.062   0.000  -0.011  -0.000
 -0.000   0.000   0.000  -0.120  -0.000  -0.000   0.082   0.001   0.001   0.001  -0.000   0.001   0.003   0.000   0.000  -0.000
 -0.000  -0.000   0.000  -0.000  -0.147  -0.001   0.001   0.101  -0.000  -0.002   0.002  -0.001  -0.003  -0.000  -0.000   0.000
 -0.000  -0.001   0.066  -0.000  -0.000  -0.045   0.000   0.000  -0.001   0.001  -0.002  -0.001   0.001  -0.000   0.000  -0.000
 -0.000   0.000   0.000  -0.107  -0.000  -0.000   0.073   0.001   0.001   0.001  -0.000   0.001   0.002   0.000   0.000  -0.000
 -0.000  -0.001  -0.000   0.000   0.066   0.000  -0.001  -0.045  -0.001   0.000  -0.001  -0.001  -0.000  -0.000   0.000  -0.000
 -0.000  -0.001  -0.146   0.000   0.001   0.100  -0.000  -0.001   0.002   0.001   0.003   0.002   0.000   0.000   0.000   0.001
  0.000   0.001   0.000   0.000   0.000  -0.000   0.000  -0.000  -0.001   0.000  -0.001  -0.000   0.001  -0.000  -0.000  -0.000
  0.000  -0.000  -0.000   0.122   0.000   0.000  -0.075  -0.000  -0.000  -0.000   0.000  -0.000  -0.000  -0.000  -0.000   0.000
  0.000   0.000  -0.000   0.000   0.149   0.000  -0.000  -0.092   0.000   0.001  -0.000   0.000   0.001   0.000   0.000  -0.000
  0.000   0.001  -0.067   0.000  -0.000   0.041  -0.000  -0.000   0.000  -0.001   0.001   0.000  -0.001  -0.000  -0.000   0.000
  0.000  -0.000   0.000   0.109   0.000   0.000  -0.067  -0.000  -0.000  -0.000   0.000  -0.000  -0.000  -0.000  -0.000   0.000
  0.000   0.001  -0.000  -0.000  -0.067  -0.000   0.000   0.041   0.001   0.000   0.001   0.001   0.001   0.000   0.000   0.000
  0.000   0.000   0.149  -0.000  -0.000  -0.092   0.000   0.000  -0.000  -0.000  -0.000  -0.000  -0.000  -0.000  -0.000  -0.000
 -0.000  -0.001  -0.000  -0.000  -0.000   0.000  -0.000   0.000   0.001  -0.000   0.001   0.000  -0.000   0.000  -0.000   0.000
 total augmentation occupancy for first ion, spin component:           2
  0.042   0.160   0.000   0.000  -0.000  -0.000  -0.000   0.000  -0.000  -0.000   0.000   0.000   0.000  -0.000  -0.000   0.000
  0.160  -0.127  -0.000  -0.000   0.000   0.000  -0.000  -0.000   0.001   0.001   0.000  -0.002  -0.001   0.000   0.000  -0.000
  0.000  -0.000   0.008   0.000   0.000   0.044  -0.000  -0.000   0.001  -0.000   0.001   0.001   0.000   0.000  -0.000   0.000
  0.000  -0.000   0.000   0.008  -0.000  -0.000   0.044   0.000   0.001   0.001  -0.000   0.000   0.001   0.000   0.000  -0.000
 -0.000   0.000   0.000  -0.000   0.008  -0.000   0.000   0.044  -0.000  -0.000   0.001   0.000  -0.001  -0.000  -0.000   0.000
 -0.000   0.000   0.044  -0.000  -0.000  -0.003   0.000   0.000  -0.001   0.000  -0.001  -0.001  -0.000  -0.000   0.000  -0.000
 -0.000  -0.000  -0.000   0.044   0.000   0.000  -0.003  -0.000  -0.001  -0.001   0.000  -0.000  -0.001  -0.000  -0.000   0.000
  0.000  -0.000  -0.000   0.000   0.044   0.000  -0.000  -0.003   0.000   0.000  -0.001  -0.000   0.001   0.000   0.000  -0.000
 -0.000   0.001   0.001   0.001  -0.000  -0.001  -0.001   0.000  -0.031  -0.003  -0.006   0.009  -0.003  -0.009  -0.001  -0.001
 -0.000   0.001  -0.000   0.001  -0.000   0.000  -0.001   0.000  -0.003  -0.039   0.003  -0.001   0.006  -0.001  -0.011   0.000
  0.000   0.000   0.001  -0.000   0.001  -0.001   0.000  -0.001  -0.006   0.003  -0.028  -0.004   0.004  -0.001   0.000  -0.007
  0.000  -0.002   0.001   0.000   0.000  -0.001  -0.000  -0.000   0.009  -0.001  -0.004  -0.038  -0.003   0.003  -0.000  -0.001
  0.000  -0.001   0.000   0.001  -0.001  -0.000  -0.001   0.001  -0.003   0.006   0.004  -0.003  -0.035  -0.001   0.002   0.001
 -0.000   0.000   0.000   0.000  -0.000  -0.000  -0.000   0.000  -0.009  -0.001  -0.001   0.003  -0.001  -0.002  -0.000  -0.000
 -0.000   0.000  -0.000   0.000  -0.000   0.000  -0.000   0.000  -0.001  -0.011   0.000  -0.000   0.002  -0.000  -0.003   0.000
  0.000  -0.000   0.000  -0.000   0.000  -0.000   0.000  -0.000  -0.001   0.000  -0.007  -0.001   0.001  -0.000   0.000  -0.002
  0.000  -0.001   0.000   0.000   0.000  -0.000  -0.000  -0.000   0.003  -0.000  -0.001  -0.011  -0.001   0.001  -0.000  -0.000
  0.000  -0.000   0.000   0.000  -0.000  -0.000  -0.000   0.000  -0.001   0.002   0.001  -0.001  -0.009  -0.000   0.001   0.000
 -0.000  -0.000  -0.001   0.012   0.001   0.001  -0.024  -0.001   0.000   0.002   0.000   0.001   0.000  -0.000   0.000   0.000
  0.000   0.002  -0.001   0.001   0.015   0.001  -0.001  -0.030   0.002   0.003   0.002   0.003   0.001   0.000   0.001   0.000
  0.000   0.007  -0.006  -0.000   0.001   0.013  -0.001   0.000  -0.002  -0.005   0.005   0.002  -0.005  -0.000  -0.001   0.001
 -0.000  -0.000  -0.000   0.010   0.001   0.000  -0.021  -0.001   0.000   0.002   0.000   0.001   0.000  -0.000   0.000   0.000
  0.000   0.004   0.001   0.000  -0.007   0.000   0.001   0.013   0.005   0.004   0.003   0.005   0.008   0.001   0.001   0.001
  0.000   0.003   0.014  -0.001  -0.001  -0.029   0.000   0.001   0.001  -0.003   0.004   0.001  -0.002  -0.000  -0.001   0.000
 -0.000  -0.006   0.001  -0.000   0.000   0.001   0.000   0.000   0.006  -0.001   0.009   0.001  -0.003   0.001  -0.000   0.002
  0.000   0.000   0.000   0.002  -0.001  -0.000   0.010   0.001  -0.002  -0.004  -0.000  -0.002  -0.003  -0.000  -0.001  -0.000
  0.000  -0.002   0.000  -0.001   0.003  -0.001   0.000   0.013  -0.002  -0.001  -0.005  -0.004   0.001  -0.000  -0.000  -0.001
  0.000  -0.007  -0.002   0.000  -0.001  -0.006   0.001  -0.000   0.003   0.006  -0.003  -0.001   0.006   0.001   0.001  -0.001
  0.000   0.000   0.000   0.002  -0.001  -0.000   0.009   0.001  -0.001  -0.003  -0.000  -0.002  -0.002  -0.000  -0.000  -0.000
  0.000  -0.004  -0.001  -0.000  -0.001  -0.000  -0.001  -0.005  -0.006  -0.005  -0.002  -0.006  -0.011  -0.001  -0.001  -0.000
  0.000  -0.003   0.003   0.001   0.000   0.012  -0.000  -0.001  -0.003   0.004  -0.008  -0.003   0.002  -0.000   0.001  -0.001
 -0.000   0.007  -0.001   0.000  -0.000  -0.001  -0.000  -0.001  -0.007   0.001  -0.011  -0.002   0.004  -0.001   0.000  -0.002


------------------------ aborting loop because EDIFF is reached ----------------------------------------


 


 total charge     
 
# of ion       s       p       d       f       tot
--------------------------------------------------
    1        2.083   5.888   0.609   6.725  15.305
    2        2.083   5.888   0.609   6.725  15.305
    3        2.083   5.888   0.609   6.725  15.305
    4        2.083   5.888   0.609   6.725  15.305
    5        1.555   3.407   0.000   0.000   4.963
    6        1.555   3.407   0.000   0.000   4.963
    7        1.555   3.407   0.000   0.000   4.963
    8        1.555   3.407   0.000   0.000   4.963
--------------------------------------------------
tot         14.555  37.181   2.437  26.899  81.072

 


 magnetization (x)
 
# of ion       s       p       d       f       tot
--------------------------------------------------
    1        0.007   0.011  -0.088  -6.617  -6.687
    2        0.007   0.011  -0.088  -6.617  -6.687
    3       -0.007  -0.011   0.088   6.617   6.687
    4       -0.007  -0.011   0.088   6.617   6.687
    5       -0.000  -0.000   0.000   0.000  -0.000
    6       -0.000  -0.000   0.000   0.000  -0.000
    7        0.000   0.000   0.000   0.000   0.000
    8        0.000   0.000   0.000   0.000   0.000
--------------------------------------------------
tot          0.000  -0.000   0.000   0.000   0.000

 
    CHARGE:  cpu time    2.4161: real time    2.4218
    FORLOC:  cpu time    0.0045: real time    0.0045
    FORNL :  cpu time   16.6494: real time   16.6887
    STRESS:  cpu time   44.5307: real time   44.6357
    FORCOR:  cpu time    0.0960: real time    0.0962
    FORHAR:  cpu time    0.0119: real time    0.0119
    MIXING:  cpu time    0.0064: real time    0.0064
    OFIELD:  cpu time    0.0001: real time    0.0001

  FORCE on cell =-STRESS in cart. coord.  units (eV):
  Direction    XX          YY          ZZ          XY          YZ          ZX
  --------------------------------------------------------------------------------------
  Alpha Z   906.21130   906.21130   906.21130
  Ewald   -3235.50016 -3235.51143 -3235.50127    -0.34538     0.01672     0.50257
  Hartree   919.03961   918.82594   918.93928    -0.37582    -0.12370     0.54711
  E(xc)    -488.33433  -488.33889  -488.33656    -0.00436    -0.00290     0.00635
  Local     845.28843   845.62267   845.44280     0.82674     0.18597    -1.19783
  n-local  -452.75707  -452.83267  -452.80338    -0.05977    -0.05775     0.09699
  augment   192.91200   192.93555   192.92407     0.01716     0.01587    -0.02458
  Kinetic  1313.03096  1312.99158  1313.01084    -0.05691    -0.03360     0.07597
  Fock        0.00000     0.00000     0.00000     0.00000     0.00000     0.00000
  -------------------------------------------------------------------------------------
  Total      -0.10925    -0.09594    -0.11293     0.00167     0.00061     0.00659
  in kB      -1.33461    -1.17198    -1.37954     0.02038     0.00747     0.08053
  external pressure =       -1.30 kB  Pullay stress =        0.00 kB


 VOLUME and BASIS-vectors are now :
 -----------------------------------------------------------------------------
  energy-cutoff  :      520.00
  volume of cell :      131.15
      direct lattice vectors                 reciprocal lattice vectors
    -3.593091976 -2.074211501  2.933545000    -0.208745997 -0.040161339  0.056809533
     1.795785323 -5.184930711  2.933121105     0.139180846 -0.080373590  0.113643308
     0.000251646  4.148256495  2.933522868     0.069585788  0.120524224  0.170449360

  length of vectors
     5.081176002  6.221860720  5.080707473     0.220034424  0.196840096  0.220048301


 FORCES acting on ions
    electron-ion (+dipol)            ewald-force                    non-local-force                 convergence-correction
 -----------------------------------------------------------------------------------------------
   -.942E-02 -.912E-03 0.207E-01   0.981E-02 0.628E-03 -.214E-01   0.874E-04 0.485E-04 -.280E-03   -.384E-03 0.314E-03 0.632E-03
   0.942E-02 0.912E-03 -.207E-01   -.981E-02 -.628E-03 0.214E-01   -.874E-04 -.485E-04 0.280E-03   0.384E-03 -.314E-03 -.632E-03
   0.942E-02 0.912E-03 -.207E-01   -.981E-02 -.628E-03 0.214E-01   -.874E-04 -.485E-04 0.280E-03   0.384E-03 -.314E-03 -.632E-03
   -.942E-02 -.912E-03 0.207E-01   0.981E-02 0.628E-03 -.214E-01   0.874E-04 0.485E-04 -.280E-03   -.384E-03 0.314E-03 0.632E-03
   0.125E-01 -.230E-02 -.112E-01   -.130E-01 0.247E-02 0.118E-01   0.596E-03 -.133E-03 -.399E-03   0.115E-05 -.365E-04 -.703E-04
   -.125E-01 0.230E-02 0.112E-01   0.130E-01 -.247E-02 -.118E-01   -.596E-03 0.133E-03 0.399E-03   -.115E-05 0.365E-04 0.703E-04
   0.125E-01 -.230E-02 -.112E-01   -.130E-01 0.247E-02 0.118E-01   0.596E-03 -.133E-03 -.399E-03   0.115E-05 -.365E-04 -.703E-04
   -.125E-01 0.230E-02 0.112E-01   0.130E-01 -.247E-02 -.118E-01   -.596E-03 0.133E-03 0.399E-03   -.115E-05 0.365E-04 0.703E-04
 -----------------------------------------------------------------------------------------------
   -.570E-11 0.292E-11 0.268E-10   0.757E-14 -.817E-14 -.112E-14   -.217E-18 0.000E+00 0.542E-19   0.122E-12 -.724E-13 -.113E-12
 
 
 POSITION                                       TOTAL-FORCE (eV/Angst)
 -----------------------------------------------------------------------------------
     -1.79645      1.03702      2.93358         0.000100      0.000078     -0.000307
     -0.00029     -2.07395      2.93328        -0.000100     -0.000078      0.000307
     -1.79671     -1.03693      5.86681        -0.000100     -0.000078      0.000307
     -0.00003     -0.00001      0.00005         0.000100      0.000078     -0.000307
      1.79590     -3.11080      4.39988         0.000019     -0.000001      0.000099
     -1.79685     -3.11106      4.40011        -0.000019      0.000001     -0.000099
     -0.00052     -2.07378      7.33341         0.000019     -0.000001      0.000099
     -0.00018      0.00018      4.40010        -0.000019      0.000001     -0.000099
 -----------------------------------------------------------------------------------
    total drift:                               -0.000000      0.000000      0.000000


--------------------------------------------------------------------------------------------------------



  FREE ENERGIE OF THE ION-ELECTRON SYSTEM (eV)
  ---------------------------------------------------
  free  energy   TOTEN  =       -83.23174503 eV

  energy  without entropy=      -83.23174503  energy(sigma->0) =      -83.23174503
 


--------------------------------------------------------------------------------------------------------


    POTLOK:  cpu time    1.3310: real time    1.3341


--------------------------------------------------------------------------------------------------------


     LOOP+:  cpu time 2336.4799: real time 2342.3776
    4ORBIT:  cpu time    0.0000: real time    0.0000
 


 total charge     
 
# of ion       s       p       d       f       tot
--------------------------------------------------
    1        2.083   5.888   0.609   6.725  15.305
    2        2.083   5.888   0.609   6.725  15.305
    3        2.083   5.888   0.609   6.725  15.305
    4        2.083   5.888   0.609   6.725  15.305
    5        1.555   3.407   0.000   0.000   4.963
    6        1.555   3.407   0.000   0.000   4.963
    7        1.555   3.407   0.000   0.000   4.963
    8        1.555   3.407   0.000   0.000   4.963
--------------------------------------------------
tot         14.555  37.181   2.437  26.899  81.072

 


 magnetization (x)
 
# of ion       s       p       d       f       tot
--------------------------------------------------
    1        0.007   0.011  -0.088  -6.617  -6.687
    2        0.007   0.011  -0.088  -6.617  -6.687
    3       -0.007  -0.011   0.088   6.617   6.687
    4       -0.007  -0.011   0.088   6.617   6.687
    5       -0.000  -0.000   0.000   0.000  -0.000
    6       -0.000  -0.000   0.000   0.000  -0.000
    7        0.000   0.000   0.000   0.000   0.000
    8        0.000   0.000   0.000   0.000   0.000
--------------------------------------------------
tot          0.000  -0.000   0.000   0.000   0.000

 
 BZINTS: Fermi energy:  4.845439; 92.000000 electrons
         Band energy:-583.607221;  BLOECHL correction: -0.000111

 total amount of memory used by VASP MPI-rank0   235211. kBytes
=======================================================================

   base      :      30000. kBytes
   nonlr-proj:       4861. kBytes
   fftplans  :       3205. kBytes
   grid      :       7818. kBytes
   one-center:        196. kBytes
   wavefun   :     189131. kBytes
 
  
  
 General timing and accounting informations for this job:
 ========================================================
  
                  Total CPU time used (sec):     2351.817
                            User time (sec):     2346.394
                          System time (sec):        5.423
                         Elapsed time (sec):     2363.704
  
                   Maximum memory used (kb):      305676.
                   Average memory used (kb):           0.
  
                          Minor page faults:       222709
                          Major page faults:            0
                 Voluntary context switches:         2073
