       N       E                     dE             d eps       ncg     rms          rms(c)
DAV:   1     0.145628783877E+03    0.14563E+03   -0.86670E+03  1472   0.203E+03
DAV:   2     0.150171886923E+01   -0.14413E+03   -0.12769E+03  1380   0.251E+02
DAV:   3    -0.150360002934E+02   -0.16538E+02   -0.15988E+02  1508   0.955E+01
DAV:   4    -0.159683127084E+02   -0.93231E+00   -0.91982E+00  2032   0.208E+01
DAV:   5    -0.160315852080E+02   -0.63272E-01   -0.63155E-01  1944   0.421E+00    0.131E+01
DAV:   6    -0.201697468612E+02   -0.41382E+01   -0.45893E+01  1808   0.669E+01    0.175E+01
DAV:   7    -0.190745661455E+02    0.10952E+01   -0.28659E+00  1516   0.384E+01    0.652E+00
DAV:   8    -0.187568428570E+02    0.31772E+00   -0.14204E+00  2188   0.140E+01    0.252E+00
DAV:   9    -0.188354696214E+02   -0.78627E-01   -0.13776E+00  1732   0.963E+00    0.328E+00
DAV:  10    -0.187475761744E+02    0.87893E-01   -0.78376E-01  1648   0.731E+00    0.987E-01
DAV:  11    -0.187596965753E+02   -0.12120E-01   -0.18668E-02  1988   0.977E-01    0.455E-01
DAV:  12    -0.187590712273E+02    0.62535E-03   -0.35803E-03  1988   0.582E-01    0.462E-01
DAV:  13    -0.187575880508E+02    0.14832E-02   -0.36022E-03  1920   0.530E-01    0.249E-01
DAV:  14    -0.187573530787E+02    0.23497E-03   -0.11060E-03  2144   0.282E-01    0.156E-01
DAV:  15    -0.187573722434E+02   -0.19165E-04   -0.19160E-03  1664   0.382E-01    0.107E-02
DAV:  16    -0.187573738784E+02   -0.16350E-05   -0.87095E-05  1976   0.480E-02    0.696E-03
DAV:  17    -0.187573746360E+02   -0.75751E-06   -0.31243E-06  1924   0.778E-03    0.629E-03
DAV:  18    -0.187573879150E+02   -0.13279E-04   -0.29151E-06  2088   0.145E-02    0.928E-03
DAV:  19    -0.187573772960E+02    0.10619E-04   -0.14690E-06  1592   0.111E-02    0.431E-03
DAV:  20    -0.187573721387E+02    0.51573E-05   -0.53242E-07  1344   0.631E-03    0.192E-03
DAV:  21    -0.187573714278E+02    0.71093E-06   -0.42142E-08   796   0.187E-03    0.150E-03
DAV:  22    -0.187573727689E+02   -0.13412E-05   -0.42137E-08   740   0.233E-03    0.856E-04
DAV:  23    -0.187573730868E+02   -0.31781E-06   -0.82129E-09   748   0.817E-04    0.315E-04
DAV:  24    -0.187573734574E+02   -0.37066E-06   -0.48147E-09   744   0.608E-04    0.110E-04
DAV:  25    -0.187573736118E+02   -0.15440E-06   -0.16327E-09   736   0.354E-04    0.645E-05
DAV:  26    -0.187573736231E+02   -0.11330E-07   -0.73101E-10   736   0.275E-04
   1 F= -.18757374E+02 E0= -.18757374E+02  d E =0.000000E+00  mag=     6.9973
