unknown system                          
   1.00000000000000     
     2.478974    0.000000    0.000000
     1.239487    2.146854    0.000000
     1.239487    0.715618    2.024073
   Ni
     1
Direct
  0.000000  0.000000  0.000000
 
   36   36   36
 0.43821256893E+03 0.91758422904E+03 0.20059335197E+03 0.31438770879E+03 0.31863893920E+03
 0.23172554227E+03 0.14627935282E+03 0.87546402769E+02 0.51960461639E+02 0.31366236461E+02
 0.19576718018E+02 0.12753373587E+02 0.87427026392E+01 0.62486228470E+01 0.48247968351E+01
 0.39190845875E+01 0.33614748348E+01 0.30722537381E+01 0.29742460183E+01 0.30722537381E+01
 0.33614748348E+01 0.39190845875E+01 0.48247968351E+01 0.62486228470E+01 0.87427026392E+01
 0.12753373587E+02 0.19576718018E+02 0.31366236461E+02 0.51960461639E+02 0.87546402769E+02
 0.14627935282E+03 0.23172554227E+03 0.31863893920E+03 0.31438770879E+03 0.20059335197E+03
 0.91758422904E+03 0.91758448099E+03 0.23442721466E+03 0.27250638090E+03 0.33512729433E+03
 0.27133648009E+03 0.18030694929E+03 0.11021601513E+03 0.65657785425E+02 0.39353691137E+02
 0.24206920924E+02 0.15467878166E+02 0.10365241177E+02 0.71151017792E+01 0.54270789747E+01
 0.42909421470E+01 0.35859988947E+01 0.31762932215E+01 0.29894416523E+01 0.29890665221E+01
 0.31766751081E+01 0.35856023949E+01 0.42913633916E+01 0.54266163431E+01 0.71156150306E+01
 0.10364750162E+02 0.15468606407E+02 0.24205768450E+02 0.39353947179E+02 0.65655854189E+02
 0.11021530314E+03 0.18030602660E+03 0.27133331054E+03 0.33513116079E+03 0.27250627132E+03
 0.23442780264E+03 0.91758489421E+03 0.20059335321E+03 0.27250635515E+03 0.33598210884E+03
 0.29143011750E+03 0.20457024068E+03 0.12934479824E+03 0.78389675414E+02 0.47230201650E+02
 0.28941601120E+02 0.18309754857E+02 0.12078110320E+02 0.83631403371E+01 0.60517007723E+01
 0.46947608545E+01 0.38366973796E+01 0.33032391788E+01 0.30283316367E+01 0.29328382388E+01
 0.30283020030E+01 0.33033011371E+01 0.38365967035E+01 0.46949234430E+01 0.60513881726E+01
 0.83635109404E+01 0.12078416003E+02 0.18310204384E+02 0.28940312701E+02 0.47230213069E+02
 0.78388155117E+02 0.12934518330E+03 0.20457010693E+03 0.29142974002E+03 0.33598320954E+03
 0.27250602295E+03 0.20059265980E+03 0.23442787974E+03 0.31438766576E+03 0.33512730033E+03
 0.29143013334E+03 0.21331498196E+03 0.14036803860E+03 0.87547235241E+02 0.53672065353E+02
 0.33139543540E+02 0.20965378552E+02 0.13740074190E+02 0.94185515979E+01 0.66466313851E+01
 0.51135765044E+01 0.40946072893E+01 0.34525763926E+01 0.30807486010E+01 0.29082350922E+01
 0.29082390181E+01 0.30807402467E+01 0.34525946866E+01 0.40945624229E+01 0.51137002378E+01
 0.66465184081E+01 0.94184708504E+01 0.13739180458E+02 0.20965758807E+02 0.33139286530E+02
 0.53672245778E+02 0.87546036773E+02 0.14036701702E+03 0.21331444810E+03 0.29143147635E+03
 0.33513040391E+03 0.31438655013E+03 0.27250598005E+03 0.27250620267E+03 0.31863897961E+03
 0.27133652891E+03 0.20457027372E+03 0.14036805158E+03 0.90892050610E+02 0.57325326339E+02
 0.36064352694E+02 0.23049067893E+02 0.15152181529E+02 0.10353708794E+02 0.73767632347E+01
 0.55081988582E+01 0.43487598947E+01 0.36078848364E+01 0.31473736029E+01 0.29036435332E+01
 0.28219606575E+01 0.29036568118E+01 0.31473435793E+01 0.36079490677E+01 0.43486023006E+01
 0.55083365954E+01 0.73770992155E+01 0.10353968822E+02 0.15151754029E+02 0.23048583772E+02
 0.36064523661E+02 0.57325099996E+02 0.90894307483E+02 0.14036721696E+03 0.20456917862E+03
 0.27133697711E+03 0.31863666023E+03 0.33513040916E+03 0.33598320664E+03 0.33513117204E+03
 0.23172561843E+03 0.18030700781E+03 0.12934483367E+03 0.87547252058E+02 0.57325331854E+02
 0.37119636764E+02 0.24199380949E+02 0.16109180216E+02 0.11060638826E+02 0.78892445020E+01
 0.58389756414E+01 0.45820162936E+01 0.37532580538E+01 0.32229248677E+01 0.29114800587E+01
 0.27660079831E+01 0.27655940834E+01 0.29119068395E+01 0.32224585473E+01 0.37538316024E+01
 0.45814261823E+01 0.58392870440E+01 0.78883545123E+01 0.11060944567E+02 0.16108156952E+02
 0.24199045812E+02 0.37119188831E+02 0.57322419564E+02 0.87547100472E+02 0.12934310385E+03
 0.18030585008E+03 0.23172573460E+03 0.27133700638E+03 0.29143152700E+03 0.29142980649E+03
 0.27133338864E+03 0.14627942279E+03 0.11021606394E+03 0.78389704668E+02 0.53672080550E+02
 0.36064359351E+02 0.24199383078E+02 0.16445956102E+02 0.11444271487E+02 0.82254256694E+01
 0.60794225378E+01 0.47664780298E+01 0.38809532298E+01 0.32923480238E+01 0.29317917978E+01
 0.27276955520E+01 0.26677569001E+01 0.27276312374E+01 0.29319386753E+01 0.32920612348E+01
 0.38812615638E+01 0.47664377482E+01 0.60802306427E+01 0.82250639050E+01 0.11444504266E+02
 0.16446420878E+02 0.24199004361E+02 0.36066635958E+02 0.53670058446E+02 0.78389936813E+02
 0.11021683524E+03 0.14628013306E+03 0.18030587691E+03 0.20456923371E+03 0.21331452527E+03
 0.20457019505E+03 0.18030611195E+03 0.87546454232E+02 0.65657820470E+02 0.47230223084E+02
 0.33139555433E+02 0.23049073837E+02 0.16109182835E+02 0.11444272330E+02 0.83447352182E+01
 0.62047952969E+01 0.48889884563E+01 0.39726633849E+01 0.33525777308E+01 0.29511393681E+01
 0.27089483546E+01 0.25947942578E+01 0.25955066588E+01 0.27082036773E+01 0.29519790357E+01
 0.33517733874E+01 0.39731576397E+01 0.48878038569E+01 0.62055056591E+01 0.83436045846E+01
 0.11443818468E+02 0.16108666768E+02 0.23046321299E+02 0.33141608291E+02 0.47229688144E+02
 0.65655977410E+02 0.87547053465E+02 0.11021685335E+03 0.12934314431E+03 0.14036727813E+03
 0.14036709120E+03 0.12934525920E+03 0.11021537007E+03 0.51960496177E+02 0.39353714715E+02
 0.28941615926E+02 0.20965387239E+02 0.15152186308E+02 0.11060641252E+02 0.82254267940E+01
 0.62047956581E+01 0.49295847261E+01 0.40217754658E+01 0.33902815138E+01 0.29699141372E+01
 0.26976593526E+01 0.25485536325E+01 0.24983946821E+01 0.25486601196E+01 0.26974013340E+01
 0.29701654496E+01 0.33902987281E+01 0.40224911226E+01 0.49295186548E+01 0.62053640995E+01
 0.82262807588E+01 0.11059423819E+02 0.15156028315E+02 0.20961286687E+02 0.28941541987E+02
 0.39354283531E+02 0.51959150678E+02 0.65655988360E+02 0.78389962416E+02 0.87547141443E+02
 0.90894360311E+02 0.87546094553E+02 0.78388209970E+02 0.65655900175E+02 0.31366258754E+02
 0.24206936353E+02 0.18309764915E+02 0.13740080404E+02 0.10353712444E+02 0.78892466052E+01
 0.60794235647E+01 0.48889889955E+01 0.40217756687E+01 0.34053568147E+01 0.29794601649E+01
 0.26942351692E+01 0.25185671260E+01 0.24362186674E+01 0.24351760906E+01 0.25196756430E+01
 0.26932327829E+01 0.29801158406E+01 0.34040325518E+01 0.40222268879E+01 0.48882193249E+01
 0.60784842252E+01 0.78904358147E+01 0.10349315644E+02 0.13743043247E+02 0.18309801008E+02
 0.24205243993E+02 0.31369006716E+02 0.39354289868E+02 0.47229703355E+02 0.53670083734E+02
 0.57322453865E+02 0.57325139806E+02 0.53672286271E+02 0.47230249720E+02 0.39353977105E+02
 0.19576732362E+02 0.15467888305E+02 0.12078117113E+02 0.94185560247E+01 0.73767660324E+01
 0.58389772712E+01 0.47664790677E+01 0.39726639965E+01 0.33902818482E+01 0.29794603066E+01
 0.26919760414E+01 0.25060211786E+01 0.23992568833E+01 0.23656503761E+01 0.23991903795E+01
 0.25059307662E+01 0.26924575616E+01 0.29796118675E+01 0.33912024587E+01 0.39720112323E+01
 0.47691942383E+01 0.58362108886E+01 0.73826578755E+01 0.94142439220E+01 0.12078714698E+02
 0.15470113924E+02 0.19573842182E+02 0.24205247652E+02 0.28941550852E+02 0.33141623405E+02
 0.36066657219E+02 0.37119214741E+02 0.36064551581E+02 0.33139313527E+02 0.28940336368E+02
 0.24205787524E+02 0.12753382851E+02 0.10365247887E+02 0.83631451118E+01 0.66466342495E+01
 0.55082009580E+01 0.45820177304E+01 0.38809541912E+01 0.33525783693E+01 0.29699145501E+01
 0.26942354184E+01 0.25060212986E+01 0.23877342805E+01 0.23312533203E+01 0.23313003520E+01
 0.23878924847E+01 0.25054621453E+01 0.26941367586E+01 0.29688155769E+01 0.33533035005E+01
 0.38780750773E+01 0.45845828177E+01 0.55032639830E+01 0.66491651925E+01 0.83663584146E+01
 0.10358908319E+02 0.12758792721E+02 0.15470116039E+02 0.18309806171E+02 0.20961295626E+02
 0.23046334211E+02 0.24199020695E+02 0.24199064270E+02 0.23048602630E+02 0.20965776438E+02
 0.18310219620E+02 0.15468618669E+02 0.87427088744E+01 0.71151058069E+01 0.60517038965E+01
 0.51135788919E+01 0.43487616192E+01 0.37532593126E+01 0.32923489463E+01 0.29511400449E+01
 0.26976598528E+01 0.25185674817E+01 0.23992571162E+01 0.23312534368E+01 0.23093720249E+01
 0.23310921143E+01 0.23997783171E+01 0.25187928003E+01 0.26986820510E+01 0.29507562620E+01
 0.32947783044E+01 0.37517898133E+01 0.43518060794E+01 0.51138202219E+01 0.60455471714E+01
 0.71222478697E+01 0.87410503874E+01 0.10358909576E+02 0.12078717772E+02 0.13743048600E+02
 0.15156036180E+02 0.16108676997E+02 0.16446432887E+02 0.16108169803E+02 0.15151766678E+02
 0.13739192010E+02 0.12078425854E+02 0.10364758127E+02 0.62486267307E+01 0.54270821831E+01
 0.46947633610E+01 0.40946092026E+01 0.36078863219E+01 0.32229260147E+01 0.29317927012E+01
 0.27089490819E+01 0.25485542171E+01 0.24362191349E+01 0.23656507328E+01 0.23313005971E+01
 0.23310922402E+01 0.23654567662E+01 0.24355883262E+01 0.25478624404E+01 0.27087392331E+01
 0.29299576279E+01 0.32233635429E+01 0.36060416526E+01 0.40934318449E+01 0.47004633767E+01
 0.54232613342E+01 0.62452575724E+01 0.71222485323E+01 0.83663602729E+01 0.94142471568E+01
 0.10349320457E+02 0.11059430205E+02 0.11443826185E+02 0.11444512829E+02 0.11060953370E+02
 0.10353977285E+02 0.94184785300E+01 0.83635175881E+01 0.71156197172E+01 0.48247998987E+01
 0.42909446092E+01 0.38366993684E+01 0.34525780101E+01 0.31473749199E+01 0.29114811704E+01
 0.27276965052E+01 0.25947950789E+01 0.24983953930E+01 0.24351766940E+01 0.23991908755E+01
 0.23878928680E+01 0.23997785808E+01 0.24355884610E+01 0.24994106266E+01 0.25949201290E+01
 0.27297609324E+01 0.29110932286E+01 0.31493314550E+01 0.34531038802E+01 0.38326097301E+01
 0.42921611209E+01 0.48292001548E+01 0.54232617885E+01 0.60455482349E+01 0.66491669781E+01
 0.73826608983E+01 0.78904399158E+01 0.82262858236E+01 0.83436103792E+01 0.82250701013E+01
 0.78883607215E+01 0.73771050323E+01 0.66465230357E+01 0.60513923533E+01 0.54266200112E+01
 0.39190869222E+01 0.35860008894E+01 0.33032408751E+01 0.30807500623E+01 0.29036448293E+01
 0.27660091362E+01 0.26677579413E+01 0.25955076097E+01 0.25486609806E+01 0.25196764126E+01
 0.25059314321E+01 0.25054626927E+01 0.25187932154E+01 0.25478627164E+01 0.25949202642E+01
 0.26659459317E+01 0.27658288194E+01 0.29020651920E+01 0.30802141477E+01 0.33070409892E+01
 0.35851276496E+01 0.39158633373E+01 0.42921614145E+01 0.47004640852E+01 0.51138214538E+01
 0.55032658197E+01 0.58362133514E+01 0.60784872664E+01 0.62053676242E+01 0.62055095348E+01
 0.60802347061E+01 0.58392911326E+01 0.55083405421E+01 0.51137038767E+01 0.46949266589E+01
 0.42913661431E+01 0.33614767656E+01 0.31762949285E+01 0.30283331804E+01 0.29082365169E+01
 0.28219619850E+01 0.27655953521E+01 0.27276324535E+01 0.27082048305E+01 0.26974024136E+01
 0.26932337658E+01 0.26924584271E+01 0.26941374883E+01 0.26986826309E+01 0.27087396538E+01
 0.27297611959E+01 0.27658289389E+01 0.28237616849E+01 0.29082471076E+01 0.30251016476E+01
 0.31765831870E+01 0.33645214842E+01 0.35851278275E+01 0.38326101748E+01 0.40934326434E+01
 0.43518073016E+01 0.45845844989E+01 0.47691963793E+01 0.48882218874E+01 0.49295215533E+01
 0.48878069674E+01 0.47664409331E+01 0.45814292981E+01 0.43486052361E+01 0.40945651212E+01
 0.38365991374E+01 0.35856045710E+01 0.30722554128E+01 0.29894432521E+01 0.29328397866E+01
 0.29082405355E+01 0.29036583218E+01 0.29119083306E+01 0.29319401405E+01 0.29519804621E+01
 0.29701668058E+01 0.29801170950E+01 0.29796129837E+01 0.29688165227E+01 0.29507570170E+01
 0.29299581885E+01 0.29110936038E+01 0.29020654040E+01 0.29082471912E+01 0.29362216293E+01
 0.29890642731E+01 0.30697306304E+01 0.31765832826E+01 0.33070412481E+01 0.34531043681E+01
 0.36060424261E+01 0.37517909132E+01 0.38780765221E+01 0.39720130049E+01 0.40222289370E+01
 0.40224933750E+01 0.39731600125E+01 0.38812639679E+01 0.37538339673E+01 0.36079513337E+01
 0.34525968026E+01 0.33033030920E+01 0.31766769076E+01 0.29742476467E+01 0.29890681549E+01
 0.30283036664E+01 0.30807419624E+01 0.31473453486E+01 0.32224603740E+01 0.32920630889E+01
 0.33517752154E+01 0.33903004751E+01 0.34040341555E+01 0.33912038682E+01 0.33533046810E+01
 0.32947792377E+01 0.32233642277E+01 0.31493319112E+01 0.30802144117E+01 0.30251017671E+01
 0.29890643033E+01 0.29769485987E+01 0.29890643033E+01 0.30251017671E+01 0.30802144117E+01
 0.31493319112E+01 0.32233642277E+01 0.32947792377E+01 0.33533046810E+01 0.33912038682E+01
 0.34040341555E+01 0.33903004751E+01 0.33517752154E+01 0.32920630889E+01 0.32224603740E+01
 0.31473453486E+01 0.30807419624E+01 0.30283036664E+01 0.29890681549E+01 0.30722554128E+01
 0.31766769076E+01 0.33033030920E+01 0.34525968026E+01 0.36079513337E+01 0.37538339673E+01
 0.38812639679E+01 0.39731600125E+01 0.40224933750E+01 0.40222289370E+01 0.39720130049E+01
 0.38780765221E+01 0.37517909132E+01 0.36060424261E+01 0.34531043681E+01 0.33070412481E+01
 0.31765832826E+01 0.30697306304E+01 0.29890642731E+01 0.29362216293E+01 0.29082471912E+01
 0.29020654040E+01 0.29110936038E+01 0.29299581885E+01 0.29507570170E+01 0.29688165227E+01
 0.29796129837E+01 0.29801170950E+01 0.29701668058E+01 0.29519804621E+01 0.29319401405E+01
 0.29119083306E+01 0.29036583218E+01 0.29082405355E+01 0.29328397866E+01 0.29894432521E+01
 0.33614767656E+01 0.35856045710E+01 0.38365991374E+01 0.40945651212E+01 0.43486052361E+01
 0.45814292981E+01 0.47664409331E+01 0.48878069674E+01 0.49295215533E+01 0.48882218874E+01
 0.47691963793E+01 0.45845844989E+01 0.43518073016E+01 0.40934326434E+01 0.38326101748E+01
 0.35851278275E+01 0.33645214842E+01 0.31765831870E+01 0.30251016476E+01 0.29082471076E+01
 0.28237616849E+01 0.27658289389E+01 0.27297611959E+01 0.27087396538E+01 0.26986826309E+01
 0.26941374883E+01 0.26924584271E+01 0.26932337658E+01 0.26974024136E+01 0.27082048305E+01
 0.27276324535E+01 0.27655953521E+01 0.28219619850E+01 0.29082365169E+01 0.30283331804E+01
 0.31762949285E+01 0.39190869222E+01 0.42913661431E+01 0.46949266589E+01 0.51137038767E+01
 0.55083405421E+01 0.58392911326E+01 0.60802347061E+01 0.62055095348E+01 0.62053676242E+01
 0.60784872664E+01 0.58362133514E+01 0.55032658197E+01 0.51138214538E+01 0.47004640852E+01
 0.42921614145E+01 0.39158633373E+01 0.35851276496E+01 0.33070409892E+01 0.30802141477E+01
 0.29020651920E+01 0.27658288194E+01 0.26659459317E+01 0.25949202642E+01 0.25478627164E+01
 0.25187932154E+01 0.25054626927E+01 0.25059314321E+01 0.25196764126E+01 0.25486609806E+01
 0.25955076097E+01 0.26677579413E+01 0.27660091362E+01 0.29036448293E+01 0.30807500623E+01
 0.33032408751E+01 0.35860008894E+01 0.48247998987E+01 0.54266200112E+01 0.60513923533E+01
 0.66465230357E+01 0.73771050323E+01 0.78883607215E+01 0.82250701013E+01 0.83436103792E+01
 0.82262858236E+01 0.78904399158E+01 0.73826608983E+01 0.66491669781E+01 0.60455482349E+01
 0.54232617885E+01 0.48292001548E+01 0.42921611209E+01 0.38326097301E+01 0.34531038802E+01
 0.31493314550E+01 0.29110932286E+01 0.27297609324E+01 0.25949201290E+01 0.24994106266E+01
 0.24355884610E+01 0.23997785808E+01 0.23878928680E+01 0.23991908755E+01 0.24351766940E+01
 0.24983953930E+01 0.25947950789E+01 0.27276965052E+01 0.29114811704E+01 0.31473749199E+01
 0.34525780101E+01 0.38366993684E+01 0.42909446092E+01 0.62486267307E+01 0.71156197172E+01
 0.83635175881E+01 0.94184785300E+01 0.10353977285E+02 0.11060953370E+02 0.11444512829E+02
 0.11443826185E+02 0.11059430205E+02 0.10349320457E+02 0.94142471568E+01 0.83663602729E+01
 0.71222485323E+01 0.62452575724E+01 0.54232613342E+01 0.47004633767E+01 0.40934318449E+01
 0.36060416526E+01 0.32233635429E+01 0.29299576279E+01 0.27087392331E+01 0.25478624404E+01
 0.24355883262E+01 0.23654567662E+01 0.23310922402E+01 0.23313005971E+01 0.23656507328E+01
 0.24362191349E+01 0.25485542171E+01 0.27089490819E+01 0.29317927012E+01 0.32229260147E+01
 0.36078863219E+01 0.40946092026E+01 0.46947633610E+01 0.54270821831E+01 0.87427088744E+01
 0.10364758127E+02 0.12078425854E+02 0.13739192010E+02 0.15151766678E+02 0.16108169803E+02
 0.16446432887E+02 0.16108676997E+02 0.15156036180E+02 0.13743048600E+02 0.12078717772E+02
 0.10358909576E+02 0.87410503874E+01 0.71222478697E+01 0.60455471714E+01 0.51138202219E+01
 0.43518060794E+01 0.37517898133E+01 0.32947783044E+01 0.29507562620E+01 0.26986820510E+01
 0.25187928003E+01 0.23997783171E+01 0.23310921143E+01 0.23093720249E+01 0.23312534368E+01
 0.23992571162E+01 0.25185674817E+01 0.26976598528E+01 0.29511400449E+01 0.32923489463E+01
 0.37532593126E+01 0.43487616192E+01 0.51135788919E+01 0.60517038965E+01 0.71151058069E+01
 0.12753382851E+02 0.15468618669E+02 0.18310219620E+02 0.20965776438E+02 0.23048602630E+02
 0.24199064270E+02 0.24199020695E+02 0.23046334211E+02 0.20961295626E+02 0.18309806171E+02
 0.15470116039E+02 0.12758792721E+02 0.10358908319E+02 0.83663584146E+01 0.66491651925E+01
 0.55032639830E+01 0.45845828177E+01 0.38780750773E+01 0.33533035005E+01 0.29688155769E+01
 0.26941367586E+01 0.25054621453E+01 0.23878924847E+01 0.23313003520E+01 0.23312533203E+01
 0.23877342805E+01 0.25060212986E+01 0.26942354184E+01 0.29699145501E+01 0.33525783693E+01
 0.38809541912E+01 0.45820177304E+01 0.55082009580E+01 0.66466342495E+01 0.83631451118E+01
 0.10365247887E+02 0.19576732362E+02 0.24205787524E+02 0.28940336368E+02 0.33139313527E+02
 0.36064551581E+02 0.37119214741E+02 0.36066657219E+02 0.33141623405E+02 0.28941550852E+02
 0.24205247652E+02 0.19573842182E+02 0.15470113924E+02 0.12078714698E+02 0.94142439220E+01
 0.73826578755E+01 0.58362108886E+01 0.47691942383E+01 0.39720112323E+01 0.33912024587E+01
 0.29796118675E+01 0.26924575616E+01 0.25059307662E+01 0.23991903795E+01 0.23656503761E+01
 0.23992568833E+01 0.25060211786E+01 0.26919760414E+01 0.29794603066E+01 0.33902818482E+01
 0.39726639965E+01 0.47664790677E+01 0.58389772712E+01 0.73767660324E+01 0.94185560247E+01
 0.12078117113E+02 0.15467888305E+02 0.31366258754E+02 0.39353977105E+02 0.47230249720E+02
 0.53672286271E+02 0.57325139806E+02 0.57322453865E+02 0.53670083734E+02 0.47229703355E+02
 0.39354289868E+02 0.31369006716E+02 0.24205243993E+02 0.18309801008E+02 0.13743043247E+02
 0.10349315644E+02 0.78904358147E+01 0.60784842252E+01 0.48882193249E+01 0.40222268879E+01
 0.34040325518E+01 0.29801158406E+01 0.26932327829E+01 0.25196756430E+01 0.24351760906E+01
 0.24362186674E+01 0.25185671260E+01 0.26942351692E+01 0.29794601649E+01 0.34053568147E+01
 0.40217756687E+01 0.48889889955E+01 0.60794235647E+01 0.78892466052E+01 0.10353712444E+02
 0.13740080404E+02 0.18309764915E+02 0.24206936353E+02 0.51960496177E+02 0.65655900175E+02
 0.78388209970E+02 0.87546094553E+02 0.90894360311E+02 0.87547141443E+02 0.78389962416E+02
 0.65655988360E+02 0.51959150678E+02 0.39354283531E+02 0.28941541987E+02 0.20961286687E+02
 0.15156028315E+02 0.11059423819E+02 0.82262807588E+01 0.62053640995E+01 0.49295186548E+01
 0.40224911226E+01 0.33902987281E+01 0.29701654496E+01 0.26974013340E+01 0.25486601196E+01
 0.24983946821E+01 0.25485536325E+01 0.26976593526E+01 0.29699141372E+01 0.33902815138E+01
 0.40217754658E+01 0.49295847261E+01 0.62047956581E+01 0.82254267940E+01 0.11060641252E+02
 0.15152186308E+02 0.20965387239E+02 0.28941615926E+02 0.39353714715E+02 0.87546454232E+02
 0.11021537007E+03 0.12934525920E+03 0.14036709120E+03 0.14036727813E+03 0.12934314431E+03
 0.11021685335E+03 0.87547053465E+02 0.65655977410E+02 0.47229688144E+02 0.33141608291E+02
 0.23046321299E+02 0.16108666768E+02 0.11443818468E+02 0.83436045846E+01 0.62055056591E+01
 0.48878038569E+01 0.39731576397E+01 0.33517733874E+01 0.29519790357E+01 0.27082036773E+01
 0.25955066588E+01 0.25947942578E+01 0.27089483546E+01 0.29511393681E+01 0.33525777308E+01
 0.39726633849E+01 0.48889884563E+01 0.62047952969E+01 0.83447352182E+01 0.11444272330E+02
 0.16109182835E+02 0.23049073837E+02 0.33139555433E+02 0.47230223084E+02 0.65657820470E+02
 0.14627942279E+03 0.18030611195E+03 0.20457019505E+03 0.21331452527E+03 0.20456923371E+03
 0.18030587691E+03 0.14628013306E+03 0.11021683524E+03 0.78389936813E+02 0.53670058446E+02
 0.36066635958E+02 0.24199004361E+02 0.16446420878E+02 0.11444504266E+02 0.82250639050E+01
 0.60802306427E+01 0.47664377482E+01 0.38812615638E+01 0.32920612348E+01 0.29319386753E+01
 0.27276312374E+01 0.26677569001E+01 0.27276955520E+01 0.29317917978E+01 0.32923480238E+01
 0.38809532298E+01 0.47664780298E+01 0.60794225378E+01 0.82254256694E+01 0.11444271487E+02
 0.16445956102E+02 0.24199383078E+02 0.36064359351E+02 0.53672080550E+02 0.78389704668E+02
 0.11021606394E+03 0.23172561843E+03 0.27133338864E+03 0.29142980649E+03 0.29143152700E+03
 0.27133700638E+03 0.23172573460E+03 0.18030585008E+03 0.12934310385E+03 0.87547100472E+02
 0.57322419564E+02 0.37119188831E+02 0.24199045812E+02 0.16108156952E+02 0.11060944567E+02
 0.78883545123E+01 0.58392870440E+01 0.45814261823E+01 0.37538316024E+01 0.32224585473E+01
 0.29119068395E+01 0.27655940834E+01 0.27660079831E+01 0.29114800587E+01 0.32229248677E+01
 0.37532580538E+01 0.45820162936E+01 0.58389756414E+01 0.78892445020E+01 0.11060638826E+02
 0.16109180216E+02 0.24199380949E+02 0.37119636764E+02 0.57325331854E+02 0.87547252058E+02
 0.12934483367E+03 0.18030700781E+03 0.31863897961E+03 0.33513117204E+03 0.33598320664E+03
 0.33513040916E+03 0.31863666023E+03 0.27133697711E+03 0.20456917862E+03 0.14036721696E+03
 0.90894307483E+02 0.57325099996E+02 0.36064523661E+02 0.23048583772E+02 0.15151754029E+02
 0.10353968822E+02 0.73770992155E+01 0.55083365954E+01 0.43486023006E+01 0.36079490677E+01
 0.31473435793E+01 0.29036568118E+01 0.28219606575E+01 0.29036435332E+01 0.31473736029E+01
 0.36078848364E+01 0.43487598947E+01 0.55081988582E+01 0.73767632347E+01 0.10353708794E+02
 0.15152181529E+02 0.23049067893E+02 0.36064352694E+02 0.57325326339E+02 0.90892050610E+02
 0.14036805158E+03 0.20457027372E+03 0.27133652891E+03 0.31438766576E+03 0.27250620267E+03
 0.27250598005E+03 0.31438655013E+03 0.33513040391E+03 0.29143147635E+03 0.21331444810E+03
 0.14036701702E+03 0.87546036773E+02 0.53672245778E+02 0.33139286530E+02 0.20965758807E+02
 0.13739180458E+02 0.94184708504E+01 0.66465184081E+01 0.51137002378E+01 0.40945624229E+01
 0.34525946866E+01 0.30807402467E+01 0.29082390181E+01 0.29082350922E+01 0.30807486010E+01
 0.34525763926E+01 0.40946072893E+01 0.51135765044E+01 0.66466313851E+01 0.94185515979E+01
 0.13740074190E+02 0.20965378552E+02 0.33139543540E+02 0.53672065353E+02 0.87547235241E+02
 0.14036803860E+03 0.21331498196E+03 0.29143013334E+03 0.33512730033E+03 0.20059335321E+03
 0.23442787974E+03 0.20059265980E+03 0.27250602295E+03 0.33598320954E+03 0.29142974002E+03
 0.20457010693E+03 0.12934518330E+03 0.78388155117E+02 0.47230213069E+02 0.28940312701E+02
 0.18310204384E+02 0.12078416003E+02 0.83635109404E+01 0.60513881726E+01 0.46949234430E+01
 0.38365967035E+01 0.33033011371E+01 0.30283020030E+01 0.29328382388E+01 0.30283316367E+01
 0.33032391788E+01 0.38366973796E+01 0.46947608545E+01 0.60517007723E+01 0.83631403371E+01
 0.12078110320E+02 0.18309754857E+02 0.28941601120E+02 0.47230201650E+02 0.78389675414E+02
 0.12934479824E+03 0.20457024068E+03 0.29143011750E+03 0.33598210884E+03 0.27250635515E+03
 0.91758448099E+03 0.91758489421E+03 0.23442780264E+03 0.27250627132E+03 0.33513116079E+03
 0.27133331054E+03 0.18030602660E+03 0.11021530314E+03 0.65655854189E+02 0.39353947179E+02
 0.24205768450E+02 0.15468606407E+02 0.10364750162E+02 0.71156150306E+01 0.54266163431E+01
 0.42913633916E+01 0.35856023949E+01 0.31766751081E+01 0.29890665221E+01 0.29894416523E+01
 0.31762932215E+01 0.35859988947E+01 0.42909421470E+01 0.54270789747E+01 0.71151017792E+01
 0.10365241177E+02 0.15467878166E+02 0.24206920924E+02 0.39353691137E+02 0.65657785425E+02
 0.11021601513E+03 0.18030694929E+03 0.27133648009E+03 0.33512729433E+03 0.27250638090E+03
 0.23442721466E+03 0.91758466828E+03 0.23442723377E+03 0.27250637453E+03 0.33512729489E+03
 0.27133648251E+03 0.18030695110E+03 0.11021601616E+03 0.65657785963E+02 0.39353691409E+02
 0.24206921063E+02 0.15467878239E+02 0.10365241222E+02 0.71151018018E+01 0.54270789891E+01
 0.42909421580E+01 0.35859989021E+01 0.31762932282E+01 0.29894416577E+01 0.29890665282E+01
 0.31766751139E+01 0.35856024032E+01 0.42913634015E+01 0.54266163591E+01 0.71156150510E+01
 0.10364750205E+02 0.15468606487E+02 0.24205768594E+02 0.39353947453E+02 0.65655854727E+02
 0.11021530417E+03 0.18030602841E+03 0.27133331296E+03 0.33513116135E+03 0.27250626495E+03
 0.23442782176E+03 0.91758508150E+03 0.23442727662E+03 0.24380895038E+03 0.33336657510E+03
 0.30111225982E+03 0.21331551158E+03 0.13472305845E+03 0.81302366675E+02 0.48739857383E+02
 0.29720946126E+02 0.18718703657E+02 0.12298700146E+02 0.84876109913E+01 0.61171797990E+01
 0.47380293294E+01 0.38648903503E+01 0.33231427213E+01 0.30439848064E+01 0.29472810032E+01
 0.30439584627E+01 0.33231967049E+01 0.38648067405E+01 0.47381323617E+01 0.61171526392E+01
 0.84876420466E+01 0.12297563041E+02 0.18719511461E+02 0.29721410543E+02 0.48742902383E+02
 0.81302398878E+02 0.13472687620E+03 0.21331498019E+03 0.30111259578E+03 0.33336719304E+03
 0.24380701696E+03 0.23442728980E+03 0.40414257395E+03 0.27250632877E+03 0.33336656965E+03
 0.31027325383E+03 0.23172506394E+03 0.15247550263E+03 0.94404054963E+02 0.57324534460E+02
 0.35054847318E+02 0.21974128348E+02 0.14283599544E+02 0.97196553588E+01 0.67985895401E+01
 0.52160982662E+01 0.41597820586E+01 0.34974457584E+01 0.31137213202E+01 0.29364821657E+01
 0.29364573867E+01 0.31137420270E+01 0.34974340643E+01 0.41597829739E+01 0.52160873232E+01
 0.67985523651E+01 0.97199157450E+01 0.14283621522E+02 0.21974351085E+02 0.35053974074E+02
 0.57325420582E+02 0.94403346261E+02 0.15247633659E+03 0.23172653737E+03 0.31027005719E+03
 0.33336596174E+03 0.27250665748E+03 0.21529254449E+03 0.21529254665E+03 0.33512730312E+03
 0.30111228818E+03 0.23172508120E+03 0.15896898901E+03 0.10193544827E+03 0.63433002162E+02
 0.39353011409E+02 0.24810269901E+02 0.16110625354E+02 0.10885249731E+02 0.76842106647E+01
 0.56837903243E+01 0.44597778176E+01 0.36837717164E+01 0.31992363205E+01 0.29468250300E+01
 0.28597218437E+01 0.29468424365E+01 0.31992017954E+01 0.36838141000E+01 0.44597869823E+01
 0.56837776714E+01 0.76835938058E+01 0.10885939219E+02 0.16110546350E+02 0.24811617453E+02
 0.39352700811E+02 0.63435357264E+02 0.10193478441E+03 0.15896927406E+03 0.23172546650E+03
 0.30111052687E+03 0.33512779206E+03 0.32645543484E+03 0.31438618329E+03 0.32645380080E+03
 0.27133654324E+03 0.21331556016E+03 0.15247552978E+03 0.10193545800E+03 0.65653059080E+02
 0.41772371125E+02 0.26762220616E+02 0.17530880381E+02 0.11857278525E+02 0.83545508892E+01
 0.60943598724E+01 0.47488404367E+01 0.38636055828E+01 0.32977176119E+01 0.29685236068E+01
 0.28141686060E+01 0.28141642221E+01 0.29685320778E+01 0.32977091212E+01 0.38635691570E+01
 0.47488803253E+01 0.60946488153E+01 0.83544113494E+01 0.11857747813E+02 0.17530639416E+02
 0.26763121184E+02 0.41770727221E+02 0.65653873773E+02 0.10193576094E+03 0.15247483130E+03
 0.21331577818E+03 0.27133316205E+03 0.31027261443E+03 0.32587741478E+03 0.32587569560E+03
 0.31027105295E+03 0.18030702018E+03 0.13472310564E+03 0.94404081497E+02 0.63433014269E+02
 0.41772375032E+02 0.27460147728E+02 0.18307771439E+02 0.12509892052E+02 0.88544924596E+01
 0.64191368971E+01 0.49954031354E+01 0.40282617435E+01 0.33923324704E+01 0.30029857534E+01
 0.27857613314E+01 0.27202113118E+01 0.27857295244E+01 0.30030424716E+01 0.33922935192E+01
 0.40283593149E+01 0.49948194878E+01 0.64194554520E+01 0.88543778932E+01 0.12511207747E+02
 0.18306882277E+02 0.27462115816E+02 0.41772562742E+02 0.63433851035E+02 0.94405456697E+02
 0.13472568696E+03 0.18030709428E+03 0.22237278622E+03 0.25119716344E+03 0.26121426746E+03
 0.25119610301E+03 0.22237191318E+03 0.11021607193E+03 0.81302403377E+02 0.57324555704E+02
 0.39353022272E+02 0.26762225346E+02 0.18307772973E+02 0.12740944665E+02 0.91232910387E+01
 0.66268834355E+01 0.51760180042E+01 0.41587060716E+01 0.34767828345E+01 0.30382592254E+01
 0.27746214398E+01 0.26515804107E+01 0.26516481305E+01 0.27745560892E+01 0.30382852100E+01
 0.34767089588E+01 0.41592436751E+01 0.51756143023E+01 0.66274018949E+01 0.91224807101E+01
 0.12741986935E+02 0.18307123754E+02 0.26762470602E+02 0.39354649142E+02 0.57323110029E+02
 0.81302577845E+02 0.11021504855E+03 0.14036428880E+03 0.16576190523E+03 0.18030453688E+03
 0.18030560242E+03 0.16576498114E+03 0.14036612981E+03 0.65657825138E+02 0.48739883199E+02
 0.35054862802E+02 0.24810278422E+02 0.17530884674E+02 0.12509893950E+02 0.91232916689E+01
 0.66977866170E+01 0.52717990068E+01 0.42437761930E+01 0.35398050291E+01 0.30697325717E+01
 0.27718224157E+01 0.26063162410E+01 0.25535215626E+01 0.26063774291E+01 0.27717397014E+01
 0.30699326331E+01 0.35390948271E+01 0.42443027290E+01 0.52709444321E+01 0.66993199264E+01
 0.91224058741E+01 0.12511342045E+02 0.17530520053E+02 0.24808676088E+02 0.35057843888E+02
 0.48740044835E+02 0.65657410856E+02 0.84352134403E+02 0.10193643141E+03 0.11466315512E+03
 0.11932560419E+03 0.11465881724E+03 0.10193515317E+03 0.84351427810E+02 0.39353717344E+02
 0.29720963446E+02 0.21974139137E+02 0.16110631710E+02 0.11857282024E+02 0.88544942954E+01
 0.66268841920E+01 0.52717993101E+01 0.42734844142E+01 0.35724501762E+01 0.30911017542E+01
 0.27730715001E+01 0.25781182067E+01 0.24864003401E+01 0.24857153839E+01 0.25787679056E+01
 0.27723381113E+01 0.30923087628E+01 0.35715181904E+01 0.42746746071E+01 0.52699985804E+01
 0.66283755848E+01 0.88536688675E+01 0.11857774613E+02 0.16114429523E+02 0.21971137616E+02
 0.29722253840E+02 0.39353637965E+02 0.50316215565E+02 0.61305699396E+02 0.70405549820E+02
 0.75602970570E+02 0.75602968218E+02 0.70406126063E+02 0.61308733307E+02 0.50316832619E+02
 0.24206937831E+02 0.18718715156E+02 0.14283606998E+02 0.10885254332E+02 0.83545536778E+01
 0.64191383342E+01 0.51760188628E+01 0.42437766350E+01 0.35724503479E+01 0.30993874656E+01