unknown system                          
   1.00000000000000     
     2.478974    0.000000    0.000000
     1.239487    2.146854    0.000000
     1.239487    0.715618    2.024073
   Ni
     1
Direct
  0.000000  0.000000  0.000000
 
   36   36   36
 0.14130611062E+07 0.10792558551E+05 0.21330489846E+04 0.29426422777E+03 0.86710366643E+02
 0.48757702852E+02 0.27111156032E+02 0.13760694054E+02 0.65764931552E+01 0.30364858936E+01
 0.13752660808E+01 0.61668097657E+00 0.27485583915E+00 0.12247552360E+00 0.54503016587E-01
 0.24483085914E-01 0.11229836063E-01 0.58356476617E-02 0.43072717356E-02 0.58356476616E-02
 0.11229836063E-01 0.24483085914E-01 0.54503016586E-01 0.12247552360E+00 0.27485583915E+00
 0.61668097657E+00 0.13752660808E+01 0.30364858936E+01 0.65764931552E+01 0.13760694054E+02
 0.27111156032E+02 0.48757702852E+02 0.86710366643E+02 0.29426422777E+03 0.21330489846E+04
 0.10792558551E+05 0.10792560724E+05 0.35503967193E+04 0.57763765462E+03 0.12303065983E+03
 0.60960209381E+02 0.35370571566E+02 0.18752320370E+02 0.92201245652E+01 0.43327630322E+01
 0.19841105270E+01 0.89554523841E+00 0.40114696696E+00 0.17915911334E+00 0.79818699597E-01
 0.35750675271E-01 0.16150203319E-01 0.77559289891E-02 0.46053277853E-02 0.46045515570E-02
 0.77565960592E-02 0.16149745697E-01 0.35750822329E-01 0.79819004437E-01 0.17915810834E+00
 0.40114885743E+00 0.89554142389E+00 0.19841214760E+01 0.43327586642E+01 0.92201530677E+01
 0.18752304076E+02 0.35370624739E+02 0.60960226548E+02 0.12303066736E+03 0.57763772945E+03
 0.35503966259E+04 0.10792560664E+05 0.21330503305E+04 0.57763786480E+03 0.14504857181E+03
 0.68989724890E+02 0.41506746491E+02 0.23131683938E+02 0.11821478390E+02 0.57103528375E+01
 0.26669104840E+01 0.12208734790E+01 0.55280468203E+00 0.24860173319E+00 0.11155633697E+00
 0.50026175726E-01 0.22567525592E-01 0.10444173939E-01 0.54227620574E-02 0.40506791108E-02
 0.54228261332E-02 0.10444054785E-01 0.22567705340E-01 0.50025860570E-01 0.11155707052E+00
 0.24860083818E+00 0.55280079375E+00 0.12208736799E+01 0.26669301254E+01 0.57103602937E+01
 0.11821507550E+02 0.23131674408E+02 0.41506778310E+02 0.68989715204E+02 0.14504856249E+03
 0.57763787301E+03 0.21330503296E+04 0.35503984272E+04 0.29426447929E+03 0.12303070726E+03
 0.68989732177E+02 0.43786044630E+02 0.25711496630E+02 0.13760638872E+02 0.68967792126E+01
 0.33143085069E+01 0.15513896340E+01 0.71456064340E+00 0.32579660689E+00 0.14786030112E+00
 0.66806447106E-01 0.30287870056E-01 0.13846050642E-01 0.67181168684E-02 0.40258492556E-02
 0.40291118519E-02 0.67149014427E-02 0.13849159271E-01 0.30284976960E-01 0.66808849870E-01
 0.14785831164E+00 0.32580040271E+00 0.71456353336E+00 0.15513846937E+01 0.33143004526E+01
 0.68967665411E+01 0.13760654996E+02 0.25711509452E+02 0.43786085398E+02 0.68989752370E+02
 0.12303070996E+03 0.29426443103E+03 0.57763822331E+03 0.57763828994E+03 0.86710407047E+02
 0.60960226632E+02 0.41506755031E+02 0.25711499689E+02 0.14481732184E+02 0.75902747731E+01
 0.37856594459E+01 0.18266148102E+01 0.86216303723E+00 0.40113463862E+00 0.18504868905E+00
 0.84714227227E-01 0.38826675690E-01 0.17738272668E-01 0.84194949288E-02 0.43653381024E-02
 0.33708937763E-02 0.43652059563E-02 0.84197685086E-02 0.17737795400E-01 0.38827582309E-01
 0.84713184204E-01 0.18504662724E+00 0.40113164733E+00 0.86217532578E+00 0.18266182526E+01
 0.37856727578E+01 0.75902590321E+01 0.14481697745E+02 0.25711497183E+02 0.41506690368E+02
 0.60960231840E+02 0.86710459881E+02 0.12303075146E+03 0.14504866304E+03 0.12303075628E+03
 0.48757724022E+02 0.35370586079E+02 0.23131692162E+02 0.13760642473E+02 0.75902758290E+01
 0.39589379994E+01 0.19841458043E+01 0.96673071148E+00 0.46205837382E+00 0.21779088129E+00
 0.10167264351E+00 0.47233471670E-01 0.21869427579E-01 0.10250591002E-01 0.50571118405E-02
 0.30941762391E-02 0.30969652235E-02 0.50541729986E-02 0.10253895442E-01 0.21865366480E-01
 0.47238178371E-01 0.10166993600E+00 0.21779929549E+00 0.46204577021E+00 0.96674266656E+00
 0.19841208356E+01 0.39589529788E+01 0.75902851618E+01 0.13760648948E+02 0.23131766162E+02
 0.35370611376E+02 0.48757724052E+02 0.60960242191E+02 0.68989775690E+02 0.68989745811E+02
 0.60960254151E+02 0.27111172649E+02 0.18752331356E+02 0.11821484495E+02 0.68967820608E+01
 0.37856605304E+01 0.19841460953E+01 0.10046821224E+01 0.49618510710E+00 0.24047433561E+00
 0.11502241923E+00 0.54487115389E-01 0.25654930273E-01 0.12097855004E-01 0.58366945002E-02
 0.31565030416E-02 0.24048998071E-02 0.31575113623E-02 0.58345683235E-02 0.12101398533E-01
 0.25650193310E-01 0.54490581951E-01 0.11501146164E+00 0.24049030665E+00 0.49617458137E+00
 0.10047108362E+01 0.19841255802E+01 0.37856560328E+01 0.68967935073E+01 0.11821423144E+02
 0.18752351298E+02 0.27111202011E+02 0.35370618027E+02 0.41506704599E+02 0.43786105709E+02
 0.41506801081E+02 0.35370645904E+02 0.13760705083E+02 0.92201315413E+01 0.57103566892E+01
 0.33143103793E+01 0.18266156064E+01 0.96673099769E+00 0.49618518128E+00 0.24862234464E+00
 0.12239601874E+00 0.59421971294E-01 0.28575568140E-01 0.13676348901E-01 0.65988403494E-02
 0.33569948458E-02 0.21078106615E-02 0.21006434109E-02 0.33645220618E-02 0.65904553866E-02
 0.13685495873E-01 0.28567809140E-01 0.59437695784E-01 0.12237536252E+00 0.24864135443E+00
 0.49615607272E+00 0.96675676216E+00 0.18266251248E+01 0.33142831546E+01 0.57104320160E+01
 0.92201198020E+01 0.13760668900E+02 0.18752355379E+02 0.23131775560E+02 0.25711511607E+02
 0.25711526935E+02 0.23131692030E+02 0.18752319143E+02 0.65764995637E+01 0.43327670045E+01
 0.26669126906E+01 0.15513907418E+01 0.86216354035E+00 0.46205857897E+00 0.24047440735E+00
 0.12239603702E+00 0.61170126275E-01 0.30184769232E-01 0.14742548532E-01 0.72000523776E-02
 0.35913823094E-02 0.20103069680E-02 0.15596669577E-02 0.20083838151E-02 0.35954690673E-02
 0.71941673707E-02 0.14748021032E-01 0.30170137287E-01 0.61188958645E-01 0.12237761616E+00
 0.24050191011E+00 0.46204482705E+00 0.86214234029E+00 0.15514401722E+01 0.26668353739E+01
 0.43328121364E+01 0.65765489009E+01 0.92201219820E+01 0.11821428487E+02 0.13760657726E+02
 0.14481709162E+02 0.13760667375E+02 0.11821518997E+02 0.92201622239E+01 0.30364893315E+01
 0.19841126443E+01 0.12208746681E+01 0.71456125721E+00 0.40113493233E+00 0.21779101005E+00
 0.11502247088E+00 0.59421989110E-01 0.30184773850E-01 0.15111500027E-01 0.75301511300E-02
 0.37658660953E-02 0.20100696838E-02 0.12912412671E-02 0.13089749875E-02 0.19918161404E-02
 0.37843509356E-02 0.75134764971E-02 0.15136329126E-01 0.30158645085E-01 0.59446014522E-01
 0.11499417686E+00 0.21780270216E+00 0.40117142798E+00 0.71450594499E+00 0.12209743295E+01
 0.19840713330E+01 0.30364233407E+01 0.43328132084E+01 0.57104347549E+01 0.68967982542E+01
 0.75902917306E+01 0.75902666569E+01 0.68967741362E+01 0.57103668843E+01 0.43327637084E+01
 0.13752678451E+01 0.89554632155E+00 0.55280529914E+00 0.32579693336E+00 0.18504885041E+00
 0.10167271852E+00 0.54487147661E-01 0.28575580937E-01 0.14742552960E-01 0.75301522758E-02
 0.38420550026E-02 0.20154282397E-02 0.11885437786E-02 0.95175073365E-03 0.11894802412E-02
 0.20143412609E-02 0.38409507208E-02 0.75234764830E-02 0.14747786360E-01 0.28574110507E-01
 0.54487178697E-01 0.10169206676E+00 0.18497428418E+00 0.32588751617E+00 0.55268937608E+00
 0.89557375119E+00 0.13753694264E+01 0.19840718357E+01 0.26668366978E+01 0.33142855422E+01
 0.37856595038E+01 0.39589572551E+01 0.37856773132E+01 0.33143047125E+01 0.26669336558E+01
 0.19841240961E+01 0.61668185131E+00 0.40114750896E+00 0.24860204409E+00 0.14786046974E+00
 0.84714313468E-01 0.47233513287E-01 0.25654949475E-01 0.13676357228E-01 0.72000558116E-02
 0.37658674250E-02 0.20154286629E-02 0.11561571873E-02 0.81450227203E-03 0.80944729979E-03
 0.11604778214E-02 0.20140469779E-02 0.37747815664E-02 0.71947667869E-02 0.13677823360E-01
 0.25657601934E-01 0.47214053149E-01 0.84784896694E-01 0.14779235650E+00 0.24866102855E+00
 0.40119805085E+00 0.61652355807E+00 0.89557398113E+00 0.12209749472E+01 0.15514413200E+01
 0.18266268613E+01 0.19841278295E+01 0.19841233761E+01 0.18266207854E+01 0.15513869496E+01
 0.12208754867E+01 0.89554273679E+00 0.27485626685E+00 0.17915937866E+00 0.11155649228E+00
 0.66806532405E-01 0.38826720347E-01 0.21869450057E-01 0.12097865781E-01 0.65988454764E-02
 0.35913847523E-02 0.20100709433E-02 0.11885445047E-02 0.81450265295E-03 0.69945332302E-03
 0.81474989616E-03 0.11857919216E-02 0.20042985234E-02 0.35925886850E-02 0.65996727227E-02
 0.12092630247E-01 0.21885533729E-01 0.38765978392E-01 0.66847416111E-01 0.11153792241E+00
 0.17908732530E+00 0.27497234264E+00 0.40119815460E+00 0.55268965868E+00 0.71450648230E+00
 0.86214317929E+00 0.96675789525E+00 0.10047121810E+01 0.96674408567E+00 0.86217666765E+00
 0.71456468439E+00 0.55280169360E+00 0.40114950331E+00 0.12247573101E+00 0.79818828647E-01
 0.50026251442E-01 0.30287912944E-01 0.17738295983E-01 0.10250603283E-01 0.58367010996E-02
 0.33569985035E-02 0.20103092521E-02 0.12912428912E-02 0.95175198942E-03 0.80944826557E-03
 0.81475048326E-03 0.94953983980E-03 0.13023488358E-02 0.20053533273E-02 0.33614462271E-02
 0.58375799646E-02 0.10243770403E-01 0.17787635898E-01 0.30266395550E-01 0.50029858596E-01
 0.79874721179E-01 0.12241127775E+00 0.17908737171E+00 0.24866115632E+00 0.32588776361E+00
 0.40117182507E+00 0.46204537937E+00 0.49615675617E+00 0.49617533898E+00 0.46204652803E+00
 0.40113233832E+00 0.32580097662E+00 0.24860127666E+00 0.17915842000E+00 0.54503115409E-01
 0.35750737616E-01 0.22567563373E-01 0.13846072327E-01 0.84195072244E-02 0.50571190509E-02
 0.31565075175E-02 0.21078139284E-02 0.15596696847E-02 0.13089774831E-02 0.11894825690E-02
 0.11604798716E-02 0.11857935209E-02 0.13023497742E-02 0.15590197996E-02 0.21069307126E-02
 0.31510150292E-02 0.50639679139E-02 0.83698957588E-02 0.13863116069E-01 0.22561956086E-01
 0.35717357634E-01 0.54541084878E-01 0.79874741862E-01 0.11153797984E+00 0.14779246931E+00
 0.18497446886E+00 0.21780296668E+00 0.24050224860E+00 0.24864174535E+00 0.24049071674E+00
 0.21779968846E+00 0.18504697312E+00 0.14785859317E+00 0.11155728340E+00 0.79819154194E-01
 0.24483133980E-01 0.16150233800E-01 0.10444192584E-01 0.67181287149E-02 0.43653460208E-02
 0.30941820617E-02 0.24049048306E-02 0.21006481350E-02 0.20083885055E-02 0.19918207731E-02
 0.20143456654E-02 0.20140509530E-02 0.20043018277E-02 0.20053557240E-02 0.21069319984E-02
 0.24066391639E-02 0.30955459128E-02 0.44086863570E-02 0.67113605504E-02 0.10445200655E-01
 0.16174795405E-01 0.24449333554E-01 0.35717366819E-01 0.50029884302E-01 0.66847467197E-01
 0.84784981773E-01 0.10169219157E+00 0.11499434151E+00 0.12237781332E+00 0.12237557814E+00
 0.11501167807E+00 0.10167013615E+00 0.84713355567E-01 0.66808986121E-01 0.50025961908E-01
 0.35750893845E-01 0.11229859246E-01 0.77559448313E-02 0.54227733707E-02 0.40258576419E-02
 0.33709009308E-02 0.30969723106E-02 0.31575188254E-02 0.33645301584E-02 0.35954776173E-02
 0.37843595836E-02 0.38409589961E-02 0.37747889621E-02 0.35925948059E-02 0.33614508384E-02
 0.31510180346E-02 0.30955473437E-02 0.33242036012E-02 0.40317534996E-02 0.54176361801E-02
 0.77456181376E-02 0.11255810273E-01 0.16174799436E-01 0.22561967517E-01 0.30266418557E-01
 0.38766017324E-01 0.47214111431E-01 0.54487257483E-01 0.59446111650E-01 0.61189068591E-01
 0.59437810557E-01 0.54490692845E-01 0.47238278023E-01 0.38827665900E-01 0.30285042967E-01
 0.22567754603E-01 0.16149780222E-01 0.58356609479E-02 0.46053380807E-02 0.40506880495E-02
 0.40291213131E-02 0.43652167971E-02 0.50541855766E-02 0.58345827962E-02 0.65904712992E-02
 0.71941840171E-02 0.75134929169E-02 0.75234916805E-02 0.71947799581E-02 0.65996833275E-02
 0.58375878014E-02 0.50639731120E-02 0.44086892831E-02 0.40317546626E-02 0.40518935342E-02
 0.46110532470E-02 0.58072662845E-02 0.77456198060E-02 0.10445205605E-01 0.13863126293E-01
 0.17787653544E-01 0.21885560673E-01 0.25657639192E-01 0.28574157728E-01 0.30158700335E-01
 0.30170197145E-01 0.28567869395E-01 0.25650249876E-01 0.21865416098E-01 0.17737836354E-01
 0.13849191080E-01 0.10444078351E-01 0.77566135586E-02 0.43072814906E-02 0.46045623148E-02
 0.54228393086E-02 0.67149176421E-02 0.84197885765E-02 0.10253919793E-01 0.12101426643E-01
 0.13685526635E-01 0.14748052637E-01 0.15136359507E-01 0.14747813598E-01 0.13677846003E-01
 0.12092647637E-01 0.10243782644E-01 0.83699035194E-02 0.67113648163E-02 0.54176380260E-02
 0.46110536997E-02 0.43311647545E-02 0.46110536997E-02 0.54176380260E-02 0.67113648163E-02
 0.83699035194E-02 0.10243782644E-01 0.12092647637E-01 0.13677846003E-01 0.14747813598E-01
 0.15136359507E-01 0.14748052637E-01 0.13685526635E-01 0.12101426643E-01 0.10253919793E-01
 0.84197885765E-02 0.67149176421E-02 0.54228393086E-02 0.46045623146E-02 0.58356609481E-02
 0.77566135588E-02 0.10444078351E-01 0.13849191080E-01 0.17737836354E-01 0.21865416098E-01
 0.25650249876E-01 0.28567869395E-01 0.30170197145E-01 0.30158700335E-01 0.28574157728E-01
 0.25657639193E-01 0.21885560673E-01 0.17787653544E-01 0.13863126293E-01 0.10445205605E-01
 0.77456198060E-02 0.58072662845E-02 0.46110532470E-02 0.40518935342E-02 0.40317546626E-02
 0.44086892831E-02 0.50639731120E-02 0.58375878014E-02 0.65996833275E-02 0.71947799581E-02
 0.75234916805E-02 0.75134929169E-02 0.71941840171E-02 0.65904712991E-02 0.58345827962E-02
 0.50541855766E-02 0.43652167971E-02 0.40291213131E-02 0.40506880496E-02 0.46053380806E-02
 0.11229859246E-01 0.16149780222E-01 0.22567754603E-01 0.30285042967E-01 0.38827665900E-01
 0.47238278023E-01 0.54490692845E-01 0.59437810557E-01 0.61189068591E-01 0.59446111650E-01
 0.54487257483E-01 0.47214111431E-01 0.38766017324E-01 0.30266418557E-01 0.22561967517E-01
 0.16174799436E-01 0.11255810273E-01 0.77456181376E-02 0.54176361801E-02 0.40317534996E-02
 0.33242036012E-02 0.30955473437E-02 0.31510180346E-02 0.33614508384E-02 0.35925948059E-02
 0.37747889621E-02 0.38409589961E-02 0.37843595836E-02 0.35954776173E-02 0.33645301584E-02
 0.31575188254E-02 0.30969723106E-02 0.33709009308E-02 0.40258576418E-02 0.54227733707E-02
 0.77559448311E-02 0.24483133980E-01 0.35750893845E-01 0.50025961908E-01 0.66808986121E-01
 0.84713355567E-01 0.10167013615E+00 0.11501167807E+00 0.12237557814E+00 0.12237781332E+00
 0.11499434151E+00 0.10169219157E+00 0.84784981773E-01 0.66847467197E-01 0.50029884302E-01
 0.35717366819E-01 0.24449333554E-01 0.16174795405E-01 0.10445200655E-01 0.67113605504E-02
 0.44086863569E-02 0.30955459128E-02 0.24066391639E-02 0.21069319984E-02 0.20053557240E-02
 0.20043018277E-02 0.20140509530E-02 0.20143456654E-02 0.19918207731E-02 0.20083885055E-02
 0.21006481350E-02 0.24049048306E-02 0.30941820617E-02 0.43653460208E-02 0.67181287149E-02
 0.10444192584E-01 0.16150233800E-01 0.54503115408E-01 0.79819154194E-01 0.11155728340E+00
 0.14785859317E+00 0.18504697312E+00 0.21779968846E+00 0.24049071674E+00 0.24864174535E+00
 0.24050224860E+00 0.21780296668E+00 0.18497446886E+00 0.14779246931E+00 0.11153797984E+00
 0.79874741862E-01 0.54541084878E-01 0.35717357634E-01 0.22561956086E-01 0.13863116069E-01
 0.83698957588E-02 0.50639679138E-02 0.31510150292E-02 0.21069307126E-02 0.15590197996E-02
 0.13023497741E-02 0.11857935209E-02 0.11604798715E-02 0.11894825690E-02 0.13089774831E-02
 0.15596696847E-02 0.21078139284E-02 0.31565075175E-02 0.50571190509E-02 0.84195072244E-02
 0.13846072327E-01 0.22567563373E-01 0.35750737616E-01 0.12247573101E+00 0.17915842000E+00
 0.24860127666E+00 0.32580097662E+00 0.40113233832E+00 0.46204652803E+00 0.49617533898E+00
 0.49615675617E+00 0.46204537937E+00 0.40117182507E+00 0.32588776361E+00 0.24866115632E+00
 0.17908737171E+00 0.12241127775E+00 0.79874721179E-01 0.50029858596E-01 0.30266395550E-01
 0.17787635898E-01 0.10243770403E-01 0.58375799646E-02 0.33614462271E-02 0.20053533273E-02
 0.13023488358E-02 0.94953983976E-03 0.81475048326E-03 0.80944826557E-03 0.95175198944E-03
 0.12912428912E-02 0.20103092521E-02 0.33569985035E-02 0.58367010996E-02 0.10250603283E-01
 0.17738295983E-01 0.30287912944E-01 0.50026251442E-01 0.79818828646E-01 0.27485626685E+00
 0.40114950331E+00 0.55280169360E+00 0.71456468439E+00 0.86217666765E+00 0.96674408567E+00
 0.10047121810E+01 0.96675789525E+00 0.86214317929E+00 0.71450648230E+00 0.55268965868E+00
 0.40119815460E+00 0.27497234264E+00 0.17908732530E+00 0.11153792241E+00 0.66847416111E-01
 0.38765978392E-01 0.21885533729E-01 0.12092630247E-01 0.65996727228E-02 0.35925886850E-02
 0.20042985234E-02 0.11857919217E-02 0.81474989615E-03 0.69945332302E-03 0.81450265297E-03
 0.11885445047E-02 0.20100709433E-02 0.35913847523E-02 0.65988454764E-02 0.12097865781E-01
 0.21869450057E-01 0.38826720347E-01 0.66806532405E-01 0.11155649228E+00 0.17915937866E+00
 0.61668185131E+00 0.89554273679E+00 0.12208754867E+01 0.15513869496E+01 0.18266207854E+01
 0.19841233761E+01 0.19841278295E+01 0.18266268613E+01 0.15514413200E+01 0.12209749472E+01
 0.89557398113E+00 0.61652355807E+00 0.40119805085E+00 0.24866102855E+00 0.14779235650E+00
 0.84784896694E-01 0.47214053149E-01 0.25657601934E-01 0.13677823360E-01 0.71947667870E-02
 0.37747815664E-02 0.20140469779E-02 0.11604778214E-02 0.80944729979E-03 0.81450227203E-03
 0.11561571873E-02 0.20154286629E-02 0.37658674250E-02 0.72000558116E-02 0.13676357228E-01
 0.25654949475E-01 0.47233513287E-01 0.84714313468E-01 0.14786046974E+00 0.24860204409E+00
 0.40114750896E+00 0.13752678451E+01 0.19841240961E+01 0.26669336558E+01 0.33143047125E+01
 0.37856773132E+01 0.39589572551E+01 0.37856595038E+01 0.33142855422E+01 0.26668366978E+01
 0.19840718357E+01 0.13753694264E+01 0.89557375119E+00 0.55268937608E+00 0.32588751617E+00
 0.18497428418E+00 0.10169206676E+00 0.54487178697E-01 0.28574110507E-01 0.14747786360E-01
 0.75234764830E-02 0.38409507208E-02 0.20143412609E-02 0.11894802412E-02 0.95175073365E-03
 0.11885437786E-02 0.20154282397E-02 0.38420550026E-02 0.75301522758E-02 0.14742552960E-01
 0.28575580937E-01 0.54487147661E-01 0.10167271852E+00 0.18504885041E+00 0.32579693336E+00
 0.55280529914E+00 0.89554632155E+00 0.30364893315E+01 0.43327637084E+01 0.57103668843E+01
 0.68967741362E+01 0.75902666569E+01 0.75902917306E+01 0.68967982542E+01 0.57104347549E+01
 0.43328132084E+01 0.30364233407E+01 0.19840713330E+01 0.12209743295E+01 0.71450594499E+00
 0.40117142798E+00 0.21780270216E+00 0.11499417686E+00 0.59446014522E-01 0.30158645085E-01
 0.15136329126E-01 0.75134764972E-02 0.37843509356E-02 0.19918161404E-02 0.13089749875E-02
 0.12912412671E-02 0.20100696838E-02 0.37658660953E-02 0.75301511300E-02 0.15111500027E-01
 0.30184773850E-01 0.59421989110E-01 0.11502247088E+00 0.21779101005E+00 0.40113493233E+00
 0.71456125721E+00 0.12208746681E+01 0.19841126443E+01 0.65764995637E+01 0.92201622239E+01
 0.11821518997E+02 0.13760667375E+02 0.14481709162E+02 0.13760657726E+02 0.11821428487E+02
 0.92201219820E+01 0.65765489009E+01 0.43328121364E+01 0.26668353739E+01 0.15514401722E+01
 0.86214234029E+00 0.46204482705E+00 0.24050191011E+00 0.12237761616E+00 0.61188958645E-01
 0.30170137287E-01 0.14748021032E-01 0.71941673707E-02 0.35954690673E-02 0.20083838151E-02
 0.15596669577E-02 0.20103069680E-02 0.35913823094E-02 0.72000523776E-02 0.14742548532E-01
 0.30184769232E-01 0.61170126275E-01 0.12239603702E+00 0.24047440735E+00 0.46205857897E+00
 0.86216354035E+00 0.15513907418E+01 0.26669126906E+01 0.43327670045E+01 0.13760705083E+02
 0.18752319143E+02 0.23131692030E+02 0.25711526935E+02 0.25711511607E+02 0.23131775560E+02
 0.18752355379E+02 0.13760668900E+02 0.92201198020E+01 0.57104320160E+01 0.33142831546E+01
 0.18266251248E+01 0.96675676216E+00 0.49615607272E+00 0.24864135443E+00 0.12237536252E+00
 0.59437695784E-01 0.28567809140E-01 0.13685495873E-01 0.65904553866E-02 0.33645220618E-02
 0.21006434109E-02 0.21078106615E-02 0.33569948457E-02 0.65988403494E-02 0.13676348901E-01
 0.28575568140E-01 0.59421971294E-01 0.12239601874E+00 0.24862234464E+00 0.49618518128E+00
 0.96673099769E+00 0.18266156064E+01 0.33143103793E+01 0.57103566892E+01 0.92201315413E+01
 0.27111172649E+02 0.35370645904E+02 0.41506801081E+02 0.43786105709E+02 0.41506704599E+02
 0.35370618027E+02 0.27111202011E+02 0.18752351298E+02 0.11821423144E+02 0.68967935073E+01
 0.37856560328E+01 0.19841255802E+01 0.10047108362E+01 0.49617458137E+00 0.24049030665E+00
 0.11501146164E+00 0.54490581951E-01 0.25650193310E-01 0.12101398533E-01 0.58345683236E-02
 0.31575113623E-02 0.24048998071E-02 0.31565030416E-02 0.58366945001E-02 0.12097855004E-01
 0.25654930273E-01 0.54487115389E-01 0.11502241923E+00 0.24047433561E+00 0.49618510710E+00
 0.10046821224E+01 0.19841460953E+01 0.37856605304E+01 0.68967820608E+01 0.11821484495E+02
 0.18752331356E+02 0.48757724022E+02 0.60960254151E+02 0.68989745811E+02 0.68989775690E+02
 0.60960242191E+02 0.48757724052E+02 0.35370611376E+02 0.23131766162E+02 0.13760648948E+02
 0.75902851618E+01 0.39589529788E+01 0.19841208356E+01 0.96674266656E+00 0.46204577021E+00
 0.21779929549E+00 0.10166993600E+00 0.47238178371E-01 0.21865366480E-01 0.10253895442E-01
 0.50541729986E-02 0.30969652235E-02 0.30941762391E-02 0.50571118405E-02 0.10250591002E-01
 0.21869427579E-01 0.47233471670E-01 0.10167264351E+00 0.21779088129E+00 0.46205837382E+00
 0.96673071148E+00 0.19841458043E+01 0.39589379994E+01 0.75902758290E+01 0.13760642473E+02
 0.23131692162E+02 0.35370586079E+02 0.86710407047E+02 0.12303075628E+03 0.14504866304E+03
 0.12303075146E+03 0.86710459881E+02 0.60960231840E+02 0.41506690368E+02 0.25711497183E+02
 0.14481697745E+02 0.75902590321E+01 0.37856727578E+01 0.18266182526E+01 0.86217532578E+00
 0.40113164733E+00 0.18504662724E+00 0.84713184204E-01 0.38827582309E-01 0.17737795400E-01
 0.84197685086E-02 0.43652059563E-02 0.33708937763E-02 0.43653381024E-02 0.84194949288E-02
 0.17738272668E-01 0.38826675690E-01 0.84714227227E-01 0.18504868905E+00 0.40113463862E+00
 0.86216303723E+00 0.18266148102E+01 0.37856594459E+01 0.75902747731E+01 0.14481732184E+02
 0.25711499689E+02 0.41506755031E+02 0.60960226632E+02 0.29426447929E+03 0.57763828994E+03
 0.57763822331E+03 0.29426443103E+03 0.12303070996E+03 0.68989752370E+02 0.43786085398E+02
 0.25711509452E+02 0.13760654996E+02 0.68967665411E+01 0.33143004526E+01 0.15513846937E+01
 0.71456353336E+00 0.32580040271E+00 0.14785831164E+00 0.66808849870E-01 0.30284976960E-01
 0.13849159271E-01 0.67149014427E-02 0.40291118519E-02 0.40258492556E-02 0.67181168684E-02
 0.13846050642E-01 0.30287870056E-01 0.66806447106E-01 0.14786030112E+00 0.32579660689E+00
 0.71456064340E+00 0.15513896340E+01 0.33143085069E+01 0.68967792126E+01 0.13760638872E+02
 0.25711496630E+02 0.43786044630E+02 0.68989732177E+02 0.12303070726E+03 0.21330503305E+04
 0.35503984272E+04 0.21330503296E+04 0.57763787301E+03 0.14504856249E+03 0.68989715204E+02
 0.41506778310E+02 0.23131674408E+02 0.11821507550E+02 0.57103602937E+01 0.26669301254E+01
 0.12208736799E+01 0.55280079375E+00 0.24860083818E+00 0.11155707052E+00 0.50025860570E-01
 0.22567705340E-01 0.10444054785E-01 0.54228261332E-02 0.40506791107E-02 0.54227620574E-02
 0.10444173939E-01 0.22567525592E-01 0.50026175726E-01 0.11155633697E+00 0.24860173319E+00
 0.55280468203E+00 0.12208734790E+01 0.26669104840E+01 0.57103528375E+01 0.11821478390E+02
 0.23131683938E+02 0.41506746491E+02 0.68989724890E+02 0.14504857181E+03 0.57763786480E+03
 0.10792560724E+05 0.10792560664E+05 0.35503966259E+04 0.57763772945E+03 0.12303066736E+03
 0.60960226548E+02 0.35370624739E+02 0.18752304076E+02 0.92201530677E+01 0.43327586642E+01
 0.19841214760E+01 0.89554142389E+00 0.40114885743E+00 0.17915810834E+00 0.79819004438E-01
 0.35750822329E-01 0.16149745697E-01 0.77565960593E-02 0.46045515570E-02 0.46053277853E-02
 0.77559289891E-02 0.16150203319E-01 0.35750675271E-01 0.79818699597E-01 0.17915911334E+00
 0.40114696696E+00 0.89554523841E+00 0.19841105270E+01 0.43327630322E+01 0.92201245652E+01
 0.18752320370E+02 0.35370571566E+02 0.60960209381E+02 0.12303065983E+03 0.57763765462E+03
 0.35503967193E+04 0.10792562339E+05 0.35503971656E+04 0.57763770670E+03 0.12303066424E+03
 0.60960210236E+02 0.35370572016E+02 0.18752320603E+02 0.92201246733E+01 0.43327630791E+01
 0.19841105468E+01 0.89554524657E+00 0.40114697030E+00 0.17915911473E+00 0.79818700171E-01
 0.35750675506E-01 0.16150203420E-01 0.77559290331E-02 0.46053278127E-02 0.46045515782E-02
 0.77565961079E-02 0.16149745793E-01 0.35750822570E-01 0.79819005004E-01 0.17915810973E+00
 0.40114886079E+00 0.89554143200E+00 0.19841214957E+01 0.43327587112E+01 0.92201531758E+01
 0.18752304309E+02 0.35370625189E+02 0.60960227403E+02 0.12303067176E+03 0.57763778153E+03
 0.35503970723E+04 0.10792562280E+05 0.35503981663E+04 0.85960083865E+03 0.17671178203E+03
 0.73876919150E+02 0.43786091864E+02 0.24386171216E+02 0.12432651989E+02 0.59841442027E+01
 0.27843270712E+01 0.12700760768E+01 0.57324029230E+00 0.25702819530E+00 0.11507630744E+00
 0.51469923871E-01 0.23189231492E-01 0.10697659229E-01 0.55581820698E-02 0.41332012301E-02
 0.55578211825E-02 0.10698416488E-01 0.23188017233E-01 0.51471693371E-01 0.11507373782E+00
 0.25703115267E+00 0.57324294449E+00 0.12700734674E+01 0.27843031813E+01 0.59841168379E+01
 0.12432640149E+02 0.24386116389E+02 0.43786105217E+02 0.73876844481E+02 0.17671179357E+03
 0.85960086049E+03 0.35503981505E+04 0.61032829857E+04 0.57763808036E+03 0.17671182685E+03
 0.79656665664E+02 0.48757625918E+02 0.28589560160E+02 0.15243795537E+02 0.75902662482E+01
 0.36208228616E+01 0.16827863331E+01 0.76999216452E+00 0.34901212158E+00 0.15758082731E+00
 0.70859952160E-01 0.32004849641E-01 0.14569041957E-01 0.70481628599E-02 0.42088052028E-02
 0.42120789294E-02 0.70448656643E-02 0.14572392895E-01 0.32001392405E-01 0.70863624674E-01
 0.15757710318E+00 0.34901484405E+00 0.76998759625E+00 0.16827912553E+01 0.36208299095E+01
 0.75902600808E+01 0.15243813289E+02 0.28589519082E+02 0.48757629811E+02 0.79656654597E+02
 0.17671177882E+03 0.57763815815E+03 0.13290697818E+04 0.13290697100E+04 0.12303072945E+03
 0.73876934995E+02 0.48757630717E+02 0.30150238426E+02 0.16900829398E+02 0.87793278209E+01
 0.43327613362E+01 0.20685433315E+01 0.96676051829E+00 0.44591888449E+00 0.20399739840E+00
 0.92770481280E-01 0.42232512103E-01 0.19201792111E-01 0.90503383951E-02 0.46836267523E-02
 0.35898108867E-02 0.46838772834E-02 0.90497985009E-02 0.19202698432E-01 0.42231099554E-01
 0.92772050109E-01 0.20399904572E+00 0.44591623256E+00 0.96674970136E+00 0.20685346320E+01
 0.43327561858E+01 0.87792926732E+01 0.16900840582E+02 0.30150187474E+02 0.48757646790E+02
 0.73876962617E+02 0.12303071616E+03 0.22349085078E+03 0.29426452699E+03 0.22349086927E+03
 0.60960231705E+02 0.43786104653E+02 0.28589566659E+02 0.16900831552E+02 0.92201482193E+01
 0.47459314296E+01 0.23466700513E+01 0.11287888572E+01 0.53313459857E+00 0.24862513395E+00
 0.11502216116E+00 0.52963209298E-01 0.24345269479E-01 0.11327835701E-01 0.55498494192E-02
 0.33803455763E-02 0.33750116147E-02 0.55552408396E-02 0.11322321006E-01 0.24351028341E-01
 0.52957450452E-01 0.11502569173E+00 0.24862167287E+00 0.53314083902E+00 0.11287926756E+01
 0.23466731537E+01 0.47459727534E+01 0.92201434001E+01 0.16900868403E+02 0.28589536756E+02
 0.43786085798E+02 0.60960270970E+02 0.79656638933E+02 0.95617946452E+02 0.95617915298E+02
 0.79656622282E+02 0.35370589149E+02 0.24386182250E+02 0.15243801319E+02 0.87793302078E+01
 0.47459321036E+01 0.24483967068E+01 0.12209021517E+01 0.59449832253E+00 0.28432545422E+00
 0.13447821365E+00 0.62977826356E-01 0.29417913898E-01 0.13714700121E-01 0.65966484892E-02
 0.35030950156E-02 0.26988757352E-02 0.35028380650E-02 0.65971906974E-02 0.13713795025E-01
 0.29418801090E-01 0.62979428281E-01 0.13447753654E+00 0.28431943293E+00 0.59448279908E+00
 0.12209058473E+01 0.24483633706E+01 0.47459387872E+01 0.87793005983E+01 0.15243802751E+02
 0.24386193137E+02 0.35370577416E+02 0.46198970471E+02 0.54397426688E+02 0.57538633334E+02
 0.54397427310E+02 0.46199038413E+02 0.18752333159E+02 0.12432659716E+02 0.75902703147E+01
 0.43327631646E+01 0.23466707310E+01 0.12209023319E+01 0.61659817390E+00 0.30429514457E+00
 0.14781103050E+00 0.70853794452E-01 0.33712478578E-01 0.15958409220E-01 0.76260961179E-02
 0.38445093458E-02 0.23873024630E-02 0.23918635816E-02 0.38399592944E-02 0.76306276765E-02
 0.15954440327E-01 0.33713243544E-01 0.70853263938E-01 0.14781575088E+00 0.30430638275E+00
 0.61659223428E+00 0.12209377821E+01 0.23466536701E+01 0.43327887695E+01 0.75902674816E+01
 0.12432592649E+02 0.18752337015E+02 0.25711509347E+02 0.31797561376E+02 0.35370636755E+02
 0.35370649477E+02 0.31797525088E+02 0.25711463913E+02 0.92201324729E+01 0.59841488915E+01
 0.36208253555E+01 0.20685445148E+01 0.11287893522E+01 0.59449849904E+00 0.30429519003E+00
 0.15261211350E+00 0.75169720127E-01 0.36646413640E-01 0.17656130912E-01 0.85531963664E-02
 0.41957134303E-02 0.23449577463E-02 0.17808238893E-02 0.23443595377E-02 0.41969373964E-02
 0.85507281734E-02 0.17662495607E-01 0.36639405175E-01 0.75174704560E-01 0.15258773416E+00
 0.30430891413E+00 0.59444618499E+00 0.11288227844E+01 0.20685182842E+01 0.36208073092E+01
 0.59842081802E+01 0.92201045106E+01 0.13078358457E+02 0.16900873869E+02 0.19758034754E+02
 0.20820961326E+02 0.19758019712E+02 0.16900849981E+02 0.13078391740E+02 0.43327674508E+01
 0.27843296822E+01 0.16827877451E+01 0.96676121373E+00 0.53313491122E+00 0.28432558068E+00
 0.14781107465E+00 0.75169731377E-01 0.37659853417E-01 0.18610968799E-01 0.91576763150E-02
 0.45230565374E-02 0.23698582920E-02 0.15149880493E-02 0.15188287545E-02 0.23657776950E-02
 0.45282357087E-02 0.91485784018E-02 0.18620530490E-01 0.37651507870E-01 0.75198616295E-01
 0.14779059096E+00 0.28437683633E+00 0.53309698611E+00 0.96676760637E+00 0.16828096706E+01
 0.27842396552E+01 0.43328066374E+01 0.62726030273E+01 0.83615699953E+01 0.10176557097E+02
 0.11242969968E+02 0.11242973727E+02 0.10176633529E+02 0.83615695182E+01 0.62725637855E+01
 0.19841128493E+01 0.12700774542E+01 0.76999292157E+00 0.44591927049E+00 0.24862531576E+00
 0.13447829332E+00 0.70853826161E-01 0.36646424596E-01 0.18610971654E-01 0.93781887209E-02