unknown system                          
   1.00000000000000     
     2.478974    0.000000    0.000000
     1.239487    2.146854    0.000000
     1.239487    0.715618    2.024073
   Ni
     1
Direct
  0.000000  0.000000  0.000000
 
   36   36   36
 0.55181818849E+03 0.92765230178E+03 0.18944397797E+03 0.30492500182E+03 0.31239620026E+03
 0.22712377033E+03 0.14264746044E+03 0.84739011753E+02 0.49931125063E+02 0.30035863533E+02
 0.18787648938E+02 0.12349761636E+02 0.85783833903E+01 0.62496530529E+01 0.49487114934E+01
 0.41240607703E+01 0.36394480554E+01 0.33907720071E+01 0.33148650323E+01 0.33907720071E+01
 0.36394480554E+01 0.41240607703E+01 0.49487114934E+01 0.62496530529E+01 0.85783833903E+01
 0.12349761636E+02 0.18787648938E+02 0.30035863533E+02 0.49931125063E+02 0.84739011753E+02
 0.14264746044E+03 0.22712377033E+03 0.31239620026E+03 0.30492500182E+03 0.18944397797E+03
 0.92765230178E+03 0.92763744766E+03 0.22542854396E+03 0.26167880168E+03 0.32782312670E+03
 0.26617588905E+03 0.17628804545E+03 0.10704775038E+03 0.63281707993E+02 0.37719358777E+02
 0.23185803753E+02 0.14904889798E+02 0.10096611581E+02 0.70645823364E+01 0.54911757298E+01
 0.44607183545E+01 0.38301020817E+01 0.34788045441E+01 0.33238727045E+01 0.33238727045E+01
 0.34788045441E+01 0.38301020817E+01 0.44607183545E+01 0.54911757298E+01 0.70645823364E+01
 0.10096611581E+02 0.14904889798E+02 0.23185803753E+02 0.37719358777E+02 0.63281707993E+02
 0.10704775038E+03 0.17628804545E+03 0.26617588905E+03 0.32782312670E+03 0.26167880168E+03
 0.22542854396E+03 0.92763744766E+03 0.18940153798E+03 0.26164875265E+03 0.32820497203E+03
 0.28589323422E+03 0.20027681082E+03 0.12591385403E+03 0.75743338280E+02 0.45334789501E+02
 0.27704883584E+02 0.17583599009E+02 0.11706765746E+02 0.82214196244E+01 0.60586688468E+01
 0.48254142358E+01 0.40443149233E+01 0.35853402242E+01 0.33497599080E+01 0.32778329975E+01
 0.33497599080E+01 0.35853402242E+01 0.40443149233E+01 0.48254142358E+01 0.60586688468E+01
 0.82214196244E+01 0.11706765746E+02 0.17583599009E+02 0.27704883584E+02 0.45334789501E+02
 0.75743338280E+02 0.12591385403E+03 0.20027681082E+03 0.28589323422E+03 0.32820497203E+03
 0.26164875265E+03 0.18940153798E+03 0.22543742309E+03 0.30488063947E+03 0.32778919968E+03
 0.28588073578E+03 0.20891275104E+03 0.13679192000E+03 0.84727667112E+02 0.51585448950E+02
 0.31726427692E+02 0.20093399859E+02 0.13266720559E+02 0.91967783966E+01 0.66117351926E+01
 0.51957365432E+01 0.42705380142E+01 0.37046633202E+01 0.33892820019E+01 0.32500895205E+01
 0.32500895205E+01 0.33892820019E+01 0.37046633202E+01 0.42705380142E+01 0.51957365432E+01
 0.66117351926E+01 0.91967783966E+01 0.13266720559E+02 0.20093399859E+02 0.31726427692E+02
 0.51585448950E+02 0.84727667112E+02 0.13679192000E+03 0.20891275104E+03 0.28588073578E+03
 0.32778919968E+03 0.30488063947E+03 0.26166762968E+03 0.26166762968E+03 0.31236207212E+03
 0.26614934339E+03 0.20026340903E+03 0.13678755435E+03 0.88013556001E+02 0.55137955492E+02
 0.34535574090E+02 0.22069050196E+02 0.14591063850E+02 0.10068372871E+02 0.72919683467E+01
 0.55436565047E+01 0.44929081393E+01 0.38283183550E+01 0.34375422272E+01 0.32366631836E+01
 0.31752616720E+01 0.32366631836E+01 0.34375422272E+01 0.38283183550E+01 0.44929081393E+01
 0.55436565047E+01 0.72919683467E+01 0.10068372871E+02 0.14591063850E+02 0.22069050196E+02
 0.34535574090E+02 0.55137955492E+02 0.88013556001E+02 0.13678755435E+03 0.20026340903E+03
 0.26614934339E+03 0.31236207212E+03 0.32780383222E+03 0.32821416766E+03 0.32780383222E+03
 0.22710065010E+03 0.17626984003E+03 0.12590321661E+03 0.84722785024E+02 0.55136377298E+02
 0.35546922642E+02 0.23162919352E+02 0.15485901989E+02 0.10730390920E+02 0.77569391373E+01
 0.58390768934E+01 0.46930087327E+01 0.39459728468E+01 0.34886520253E+01 0.32330846575E+01
 0.31199919167E+01 0.31199919167E+01 0.32330846575E+01 0.34886520253E+01 0.39459728468E+01
 0.46930087327E+01 0.58390768934E+01 0.77569391373E+01 0.10730390920E+02 0.15485901989E+02
 0.23162919352E+02 0.35546922642E+02 0.55136377298E+02 0.84722785024E+02 0.12590321661E+03
 0.17626984003E+03 0.22710065010E+03 0.26615837920E+03 0.28589242423E+03 0.28589242423E+03
 0.26615837920E+03 0.14263256309E+03 0.10703585087E+03 0.75735720670E+02 0.51581326417E+02
 0.34533703210E+02 0.23162302798E+02 0.15802784576E+02 0.11088334946E+02 0.80637072985E+01
 0.60541331965E+01 0.48523414960E+01 0.40466820957E+01 0.35364717761E+01 0.32351703561E+01
 0.30794999380E+01 0.30317583560E+01 0.30794999380E+01 0.32351703561E+01 0.35364717761E+01
 0.40466820957E+01 0.48523414960E+01 0.60541331965E+01 0.80637072985E+01 0.11088334946E+02
 0.15802784576E+02 0.23162302798E+02 0.34533703210E+02 0.51581326417E+02 0.75735720670E+02
 0.10703585087E+03 0.14263256309E+03 0.17627502102E+03 0.20027213094E+03 0.20891790765E+03
 0.20027213094E+03 0.17627502102E+03 0.84729525340E+02 0.63274014972E+02 0.45329538018E+02
 0.31723278488E+02 0.22067375400E+02 0.15485138897E+02 0.11088081426E+02 0.81709013108E+01
 0.61674169141E+01 0.49550712719E+01 0.41203699473E+01 0.35753246567E+01 0.32395124353E+01
 0.30502540506E+01 0.29659048373E+01 0.29659048373E+01 0.30502540506E+01 0.32395124353E+01
 0.35753246567E+01 0.41203699473E+01 0.49550712719E+01 0.61674169141E+01 0.81709013108E+01
 0.11088081426E+02 0.15485138897E+02 0.22067375400E+02 0.31723278488E+02 0.45329538018E+02
 0.63274014972E+02 0.84729525340E+02 0.10703877495E+03 0.12590882566E+03 0.13679290658E+03
 0.13679290658E+03 0.12590882566E+03 0.10703877495E+03 0.49925043941E+02 0.37714358634E+02
 0.27701307978E+02 0.20091102622E+02 0.14589722786E+02 0.10729687045E+02 0.80633904225E+01
 0.61673157153E+01 0.49905254870E+01 0.41592967111E+01 0.36006245499E+01 0.32436609822E+01
 0.30301527845E+01 0.29184410728E+01 0.28839086993E+01 0.29184410728E+01 0.30301527845E+01
 0.32436609822E+01 0.36006245499E+01 0.41592967111E+01 0.49905254870E+01 0.61673157153E+01
 0.80633904225E+01 0.10729687045E+02 0.14589722786E+02 0.20091102622E+02 0.27701307978E+02
 0.37714358634E+02 0.49925043941E+02 0.63275679282E+02 0.75739153295E+02 0.84726835823E+02
 0.88016049043E+02 0.84726835823E+02 0.75739153295E+02 0.63275679282E+02 0.30031913925E+02
 0.23182523309E+02 0.17581177129E+02 0.13265092390E+02 0.10067366524E+02 0.77563690260E+01
 0.60538482808E+01 0.49549449905E+01 0.41592569769E+01 0.36093871286E+01 0.32460886520E+01
 0.30182557416E+01 0.28873160273E+01 0.28280397043E+01 0.28280397043E+01 0.28873160273E+01
 0.30182557416E+01 0.32460886520E+01 0.36093871286E+01 0.41592569769E+01 0.49549449905E+01
 0.60538482808E+01 0.77563690260E+01 0.10067366524E+02 0.13265092390E+02 0.17581177129E+02
 0.23182523309E+02 0.30031913925E+02 0.37715322684E+02 0.45331613927E+02 0.51584083594E+02
 0.55138754932E+02 0.55138754932E+02 0.51584083594E+02 0.45331613927E+02 0.37715322684E+02
 0.18785056603E+02 0.14902727545E+02 0.11705139119E+02 0.91956548735E+01 0.72912503472E+01
 0.58386588010E+01 0.48521118091E+01 0.41202581141E+01 0.36005786647E+01 0.32460753545E+01
 0.30142956748E+01 0.28718102958E+01 0.27953380819E+01 0.27713265051E+01 0.27953380819E+01
 0.28718102958E+01 0.30142956748E+01 0.32460753545E+01 0.36005786647E+01 0.41202581141E+01
 0.48521118091E+01 0.58386588010E+01 0.72912503472E+01 0.91956548735E+01 0.11705139119E+02
 0.14902727545E+02 0.18785056603E+02 0.23183092656E+02 0.27702567845E+02 0.31725078872E+02
 0.34535544731E+02 0.35548105230E+02 0.34535544731E+02 0.31725078872E+02 0.27702567845E+02
 0.23183092656E+02 0.12348057884E+02 0.10095194062E+02 0.82203453155E+01 0.66110079451E+01
 0.55431732955E+01 0.46927147427E+01 0.40465180551E+01 0.35752414013E+01 0.32436236305E+01
 0.30182419072E+01 0.28718068770E+01 0.27845429042E+01 0.27439195727E+01 0.27439195727E+01
 0.27845429042E+01 0.28718068770E+01 0.30182419072E+01 0.32436236305E+01 0.35752414013E+01
 0.40465180551E+01 0.46927147427E+01 0.55431732955E+01 0.66110079451E+01 0.82203453155E+01
 0.10095194062E+02 0.12348057884E+02 0.14903069628E+02 0.17581948408E+02 0.20092260088E+02
 0.22068688428E+02 0.23163388289E+02 0.23163388289E+02 0.22068688428E+02 0.20092260088E+02
 0.17581948408E+02 0.14903069628E+02 0.85772759569E+01 0.70637100409E+01 0.60579915197E+01
 0.51952560794E+01 0.44925944687E+01 0.39457832516E+01 0.35363655474E+01 0.32394578104E+01
 0.30301277180E+01 0.28873064754E+01 0.27953359001E+01 0.27439201443E+01 0.27273801234E+01
 0.27439201443E+01 0.27953359001E+01 0.28873064754E+01 0.30301277180E+01 0.32394578104E+01
 0.35363655474E+01 0.39457832516E+01 0.44925944687E+01 0.51952560794E+01 0.60579915197E+01
 0.70637100409E+01 0.85772759569E+01 0.10095402116E+02 0.11705615115E+02 0.13265832418E+02
 0.14590622807E+02 0.15485996133E+02 0.15803355328E+02 0.15485996133E+02 0.14590622807E+02
 0.13265832418E+02 0.11705615115E+02 0.10095402116E+02 0.62489666350E+01 0.54906102923E+01
 0.48249892948E+01 0.42702439762E+01 0.38281295412E+01 0.34885388952E+01 0.32351072860E+01
 0.30502219917E+01 0.29184271511E+01 0.28280359689E+01 0.27713283524E+01 0.27439238659E+01
 0.27439238659E+01 0.27713283524E+01 0.28280359689E+01 0.29184271511E+01 0.30502219917E+01
 0.32351072860E+01 0.34885388952E+01 0.38281295412E+01 0.42702439762E+01 0.48249892948E+01
 0.54906102923E+01 0.62489666350E+01 0.70638319330E+01 0.82206400625E+01 0.91961261122E+01
 0.10067969599E+02 0.10730317276E+02 0.11088595053E+02 0.11088595053E+02 0.10730317276E+02
 0.10067969599E+02 0.91961261122E+01 0.82206400625E+01 0.70638319330E+01 0.49482839929E+01
 0.44603788014E+01 0.40440670415E+01 0.37044953827E+01 0.34374357284E+01 0.32330212847E+01
 0.30794651306E+01 0.29658883770E+01 0.28839040246E+01 0.28280428993E+01 0.27953465287E+01
 0.27845539824E+01 0.27953465287E+01 0.28280428993E+01 0.28839040246E+01 0.29658883770E+01
 0.30794651306E+01 0.32330212847E+01 0.34374357284E+01 0.37044953827E+01 0.40440670415E+01
 0.44603788014E+01 0.49482839929E+01 0.54906867927E+01 0.60581700805E+01 0.66112969334E+01
 0.72916471056E+01 0.77568125406E+01 0.80637993043E+01 0.81711862001E+01 0.80637993043E+01
 0.77568125406E+01 0.72916471056E+01 0.66112969334E+01 0.60581700805E+01 0.54906867927E+01
 0.41238136141E+01 0.38299115875E+01 0.35852038823E+01 0.33891902305E+01 0.32366045813E+01
 0.31199567667E+01 0.30317398062E+01 0.29658985923E+01 0.29184446369E+01 0.28873277435E+01
 0.28718282486E+01 0.28718282486E+01 0.28873277435E+01 0.29184446369E+01 0.29658985923E+01
 0.30317398062E+01 0.31199567667E+01 0.32366045813E+01 0.33891902305E+01 0.35852038823E+01
 0.38299115875E+01 0.41238136141E+01 0.44604244020E+01 0.48250990197E+01 0.51954402270E+01
 0.55434267239E+01 0.58389563015E+01 0.60541461023E+01 0.61675607046E+01 0.61675607046E+01
 0.60541461023E+01 0.58389563015E+01 0.55434267239E+01 0.51954402270E+01 0.48250990197E+01
 0.44604244020E+01 0.36393128782E+01 0.34787010982E+01 0.33496845308E+01 0.32500362623E+01
 0.31752251478E+01 0.31199687027E+01 0.30794885667E+01 0.30502543089E+01 0.30301647772E+01
 0.30182788237E+01 0.30143276147E+01 0.30182788237E+01 0.30301647772E+01 0.30502543089E+01
 0.30794885667E+01 0.31199687027E+01 0.31752251478E+01 0.32500362623E+01 0.33496845308E+01
 0.34787010982E+01 0.36393128782E+01 0.38299372492E+01 0.40441311056E+01 0.42703554424E+01
 0.44927543078E+01 0.46929123021E+01 0.48523239666E+01 0.49551397644E+01 0.49906697320E+01
 0.49551397644E+01 0.48523239666E+01 0.46929123021E+01 0.44927543078E+01 0.42703554424E+01
 0.40441311056E+01 0.38299372492E+01 0.33906955876E+01 0.33238096997E+01 0.32777808816E+01
 0.32500461467E+01 0.32366281943E+01 0.32330597836E+01 0.32351587369E+01 0.32395173337E+01
 0.32436842401E+01 0.32461293572E+01 0.32461293572E+01 0.32436842401E+01 0.32395173337E+01
 0.32351587369E+01 0.32330597836E+01 0.32366281943E+01 0.32500461467E+01 0.32777808816E+01
 0.33238096997E+01 0.33906955876E+01 0.34787139420E+01 0.35852385867E+01 0.37045591333E+01
 0.38282253200E+01 0.39459075463E+01 0.40466596568E+01 0.41203991696E+01 0.41593766946E+01
 0.41593766946E+01 0.41203991696E+01 0.40466596568E+01 0.39459075463E+01 0.38282253200E+01
 0.37045591333E+01 0.35852385867E+01 0.34787139420E+01 0.33148065902E+01 0.33238135798E+01
 0.33496996532E+01 0.33892226293E+01 0.34374889067E+01 0.34886125357E+01 0.35364546601E+01
 0.35753365452E+01 0.36006676016E+01 0.36094576531E+01 0.36006676016E+01 0.35753365452E+01
 0.35364546601E+01 0.34886125357E+01 0.34374889067E+01 0.33892226293E+01 0.33496996532E+01
 0.33238135798E+01 0.33148065902E+01 0.33238135798E+01 0.33496996532E+01 0.33892226293E+01
 0.34374889067E+01 0.34886125357E+01 0.35364546601E+01 0.35753365452E+01 0.36006676016E+01
 0.36094576531E+01 0.36006676016E+01 0.35753365452E+01 0.35364546601E+01 0.34886125357E+01
 0.34374889067E+01 0.33892226293E+01 0.33496996532E+01 0.33238135798E+01 0.33906955876E+01
 0.34787139420E+01 0.35852385867E+01 0.37045591333E+01 0.38282253200E+01 0.39459075463E+01
 0.40466596568E+01 0.41203991696E+01 0.41593766946E+01 0.41593766946E+01 0.41203991696E+01
 0.40466596568E+01 0.39459075463E+01 0.38282253200E+01 0.37045591333E+01 0.35852385867E+01
 0.34787139420E+01 0.33906955876E+01 0.33238096997E+01 0.32777808816E+01 0.32500461467E+01
 0.32366281943E+01 0.32330597836E+01 0.32351587369E+01 0.32395173337E+01 0.32436842401E+01
 0.32461293572E+01 0.32461293572E+01 0.32436842401E+01 0.32395173337E+01 0.32351587369E+01
 0.32330597836E+01 0.32366281943E+01 0.32500461467E+01 0.32777808816E+01 0.33238096997E+01
 0.36393128782E+01 0.38299372492E+01 0.40441311056E+01 0.42703554424E+01 0.44927543078E+01
 0.46929123021E+01 0.48523239666E+01 0.49551397644E+01 0.49906697320E+01 0.49551397644E+01
 0.48523239666E+01 0.46929123021E+01 0.44927543078E+01 0.42703554424E+01 0.40441311056E+01
 0.38299372492E+01 0.36393128782E+01 0.34787010982E+01 0.33496845308E+01 0.32500362623E+01
 0.31752251478E+01 0.31199687027E+01 0.30794885667E+01 0.30502543089E+01 0.30301647772E+01
 0.30182788237E+01 0.30143276147E+01 0.30182788237E+01 0.30301647772E+01 0.30502543089E+01
 0.30794885667E+01 0.31199687027E+01 0.31752251478E+01 0.32500362623E+01 0.33496845308E+01
 0.34787010982E+01 0.41238136141E+01 0.44604244020E+01 0.48250990197E+01 0.51954402270E+01
 0.55434267239E+01 0.58389563015E+01 0.60541461023E+01 0.61675607046E+01 0.61675607046E+01
 0.60541461023E+01 0.58389563015E+01 0.55434267239E+01 0.51954402270E+01 0.48250990197E+01
 0.44604244020E+01 0.41238136141E+01 0.38299115875E+01 0.35852038823E+01 0.33891902305E+01
 0.32366045813E+01 0.31199567667E+01 0.30317398062E+01 0.29658985923E+01 0.29184446369E+01
 0.28873277435E+01 0.28718282486E+01 0.28718282486E+01 0.28873277435E+01 0.29184446369E+01
 0.29658985923E+01 0.30317398062E+01 0.31199567667E+01 0.32366045813E+01 0.33891902305E+01
 0.35852038823E+01 0.38299115875E+01 0.49482839929E+01 0.54906867927E+01 0.60581700805E+01
 0.66112969334E+01 0.72916471056E+01 0.77568125406E+01 0.80637993043E+01 0.81711862001E+01
 0.80637993043E+01 0.77568125406E+01 0.72916471056E+01 0.66112969334E+01 0.60581700805E+01
 0.54906867927E+01 0.49482839929E+01 0.44603788014E+01 0.40440670415E+01 0.37044953827E+01
 0.34374357284E+01 0.32330212847E+01 0.30794651306E+01 0.29658883770E+01 0.28839040246E+01
 0.28280428993E+01 0.27953465287E+01 0.27845539824E+01 0.27953465287E+01 0.28280428993E+01
 0.28839040246E+01 0.29658883770E+01 0.30794651306E+01 0.32330212847E+01 0.34374357284E+01
 0.37044953827E+01 0.40440670415E+01 0.44603788014E+01 0.62489666350E+01 0.70638319330E+01
 0.82206400625E+01 0.91961261122E+01 0.10067969599E+02 0.10730317276E+02 0.11088595053E+02
 0.11088595053E+02 0.10730317276E+02 0.10067969599E+02 0.91961261122E+01 0.82206400625E+01
 0.70638319330E+01 0.62489666350E+01 0.54906102923E+01 0.48249892948E+01 0.42702439762E+01
 0.38281295412E+01 0.34885388952E+01 0.32351072860E+01 0.30502219917E+01 0.29184271511E+01
 0.28280359689E+01 0.27713283524E+01 0.27439238659E+01 0.27439238659E+01 0.27713283524E+01
 0.28280359689E+01 0.29184271511E+01 0.30502219917E+01 0.32351072860E+01 0.34885388952E+01
 0.38281295412E+01 0.42702439762E+01 0.48249892948E+01 0.54906102923E+01 0.85772759569E+01
 0.10095402116E+02 0.11705615115E+02 0.13265832418E+02 0.14590622807E+02 0.15485996133E+02
 0.15803355328E+02 0.15485996133E+02 0.14590622807E+02 0.13265832418E+02 0.11705615115E+02
 0.10095402116E+02 0.85772759569E+01 0.70637100409E+01 0.60579915197E+01 0.51952560794E+01
 0.44925944687E+01 0.39457832516E+01 0.35363655474E+01 0.32394578104E+01 0.30301277180E+01
 0.28873064754E+01 0.27953359001E+01 0.27439201443E+01 0.27273801234E+01 0.27439201443E+01
 0.27953359001E+01 0.28873064754E+01 0.30301277180E+01 0.32394578104E+01 0.35363655474E+01
 0.39457832516E+01 0.44925944687E+01 0.51952560794E+01 0.60579915197E+01 0.70637100409E+01
 0.12348057884E+02 0.14903069628E+02 0.17581948408E+02 0.20092260088E+02 0.22068688428E+02
 0.23163388289E+02 0.23163388289E+02 0.22068688428E+02 0.20092260088E+02 0.17581948408E+02
 0.14903069628E+02 0.12348057884E+02 0.10095194062E+02 0.82203453155E+01 0.66110079451E+01
 0.55431732955E+01 0.46927147427E+01 0.40465180551E+01 0.35752414013E+01 0.32436236305E+01
 0.30182419072E+01 0.28718068770E+01 0.27845429042E+01 0.27439195727E+01 0.27439195727E+01
 0.27845429042E+01 0.28718068770E+01 0.30182419072E+01 0.32436236305E+01 0.35752414013E+01
 0.40465180551E+01 0.46927147427E+01 0.55431732955E+01 0.66110079451E+01 0.82203453155E+01
 0.10095194062E+02 0.18785056603E+02 0.23183092656E+02 0.27702567845E+02 0.31725078872E+02
 0.34535544731E+02 0.35548105230E+02 0.34535544731E+02 0.31725078872E+02 0.27702567845E+02
 0.23183092656E+02 0.18785056603E+02 0.14902727545E+02 0.11705139119E+02 0.91956548735E+01
 0.72912503472E+01 0.58386588010E+01 0.48521118091E+01 0.41202581141E+01 0.36005786647E+01
 0.32460753545E+01 0.30142956748E+01 0.28718102958E+01 0.27953380819E+01 0.27713265051E+01
 0.27953380819E+01 0.28718102958E+01 0.30142956748E+01 0.32460753545E+01 0.36005786647E+01
 0.41202581141E+01 0.48521118091E+01 0.58386588010E+01 0.72912503472E+01 0.91956548735E+01
 0.11705139119E+02 0.14902727545E+02 0.30031913925E+02 0.37715322684E+02 0.45331613927E+02
 0.51584083594E+02 0.55138754932E+02 0.55138754932E+02 0.51584083594E+02 0.45331613927E+02
 0.37715322684E+02 0.30031913925E+02 0.23182523309E+02 0.17581177129E+02 0.13265092390E+02
 0.10067366524E+02 0.77563690260E+01 0.60538482808E+01 0.49549449905E+01 0.41592569769E+01
 0.36093871286E+01 0.32460886520E+01 0.30182557416E+01 0.28873160273E+01 0.28280397043E+01
 0.28280397043E+01 0.28873160273E+01 0.30182557416E+01 0.32460886520E+01 0.36093871286E+01
 0.41592569769E+01 0.49549449905E+01 0.60538482808E+01 0.77563690260E+01 0.10067366524E+02
 0.13265092390E+02 0.17581177129E+02 0.23182523309E+02 0.49925043941E+02 0.63275679282E+02
 0.75739153295E+02 0.84726835823E+02 0.88016049043E+02 0.84726835823E+02 0.75739153295E+02
 0.63275679282E+02 0.49925043941E+02 0.37714358634E+02 0.27701307978E+02 0.20091102622E+02
 0.14589722786E+02 0.10729687045E+02 0.80633904225E+01 0.61673157153E+01 0.49905254870E+01
 0.41592967111E+01 0.36006245499E+01 0.32436609822E+01 0.30301527845E+01 0.29184410728E+01
 0.28839086993E+01 0.29184410728E+01 0.30301527845E+01 0.32436609822E+01 0.36006245499E+01
 0.41592967111E+01 0.49905254870E+01 0.61673157153E+01 0.80633904225E+01 0.10729687045E+02
 0.14589722786E+02 0.20091102622E+02 0.27701307978E+02 0.37714358634E+02 0.84729525340E+02
 0.10703877495E+03 0.12590882566E+03 0.13679290658E+03 0.13679290658E+03 0.12590882566E+03
 0.10703877495E+03 0.84729525340E+02 0.63274014972E+02 0.45329538018E+02 0.31723278488E+02
 0.22067375400E+02 0.15485138897E+02 0.11088081426E+02 0.81709013108E+01 0.61674169141E+01
 0.49550712719E+01 0.41203699473E+01 0.35753246567E+01 0.32395124353E+01 0.30502540506E+01
 0.29659048373E+01 0.29659048373E+01 0.30502540506E+01 0.32395124353E+01 0.35753246567E+01
 0.41203699473E+01 0.49550712719E+01 0.61674169141E+01 0.81709013108E+01 0.11088081426E+02
 0.15485138897E+02 0.22067375400E+02 0.31723278488E+02 0.45329538018E+02 0.63274014972E+02
 0.14263256309E+03 0.17627502102E+03 0.20027213094E+03 0.20891790765E+03 0.20027213094E+03
 0.17627502102E+03 0.14263256309E+03 0.10703585087E+03 0.75735720670E+02 0.51581326417E+02
 0.34533703210E+02 0.23162302798E+02 0.15802784576E+02 0.11088334946E+02 0.80637072985E+01
 0.60541331965E+01 0.48523414960E+01 0.40466820957E+01 0.35364717761E+01 0.32351703561E+01
 0.30794999380E+01 0.30317583560E+01 0.30794999380E+01 0.32351703561E+01 0.35364717761E+01
 0.40466820957E+01 0.48523414960E+01 0.60541331965E+01 0.80637072985E+01 0.11088334946E+02
 0.15802784576E+02 0.23162302798E+02 0.34533703210E+02 0.51581326417E+02 0.75735720670E+02
 0.10703585087E+03 0.22710065010E+03 0.26615837920E+03 0.28589242423E+03 0.28589242423E+03
 0.26615837920E+03 0.22710065010E+03 0.17626984003E+03 0.12590321661E+03 0.84722785024E+02
 0.55136377298E+02 0.35546922642E+02 0.23162919352E+02 0.15485901989E+02 0.10730390920E+02
 0.77569391373E+01 0.58390768934E+01 0.46930087327E+01 0.39459728468E+01 0.34886520253E+01
 0.32330846575E+01 0.31199919167E+01 0.31199919167E+01 0.32330846575E+01 0.34886520253E+01
 0.39459728468E+01 0.46930087327E+01 0.58390768934E+01 0.77569391373E+01 0.10730390920E+02
 0.15485901989E+02 0.23162919352E+02 0.35546922642E+02 0.55136377298E+02 0.84722785024E+02
 0.12590321661E+03 0.17626984003E+03 0.31236207212E+03 0.32780383222E+03 0.32821416766E+03
 0.32780383222E+03 0.31236207212E+03 0.26614934339E+03 0.20026340903E+03 0.13678755435E+03
 0.88013556001E+02 0.55137955492E+02 0.34535574090E+02 0.22069050196E+02 0.14591063850E+02
 0.10068372871E+02 0.72919683467E+01 0.55436565047E+01 0.44929081393E+01 0.38283183550E+01
 0.34375422272E+01 0.32366631836E+01 0.31752616720E+01 0.32366631836E+01 0.34375422272E+01
 0.38283183550E+01 0.44929081393E+01 0.55436565047E+01 0.72919683467E+01 0.10068372871E+02
 0.14591063850E+02 0.22069050196E+02 0.34535574090E+02 0.55137955492E+02 0.88013556001E+02
 0.13678755435E+03 0.20026340903E+03 0.26614934339E+03 0.30488063947E+03 0.26166762968E+03
 0.26166762968E+03 0.30488063947E+03 0.32778919968E+03 0.28588073578E+03 0.20891275104E+03
 0.13679192000E+03 0.84727667112E+02 0.51585448950E+02 0.31726427692E+02 0.20093399859E+02
 0.13266720559E+02 0.91967783966E+01 0.66117351926E+01 0.51957365432E+01 0.42705380142E+01
 0.37046633202E+01 0.33892820019E+01 0.32500895205E+01 0.32500895205E+01 0.33892820019E+01
 0.37046633202E+01 0.42705380142E+01 0.51957365432E+01 0.66117351926E+01 0.91967783966E+01
 0.13266720559E+02 0.20093399859E+02 0.31726427692E+02 0.51585448950E+02 0.84727667112E+02
 0.13679192000E+03 0.20891275104E+03 0.28588073578E+03 0.32778919968E+03 0.18940153798E+03
 0.22543742309E+03 0.18940153798E+03 0.26164875265E+03 0.32820497203E+03 0.28589323422E+03
 0.20027681082E+03 0.12591385403E+03 0.75743338280E+02 0.45334789501E+02 0.27704883584E+02
 0.17583599009E+02 0.11706765746E+02 0.82214196244E+01 0.60586688468E+01 0.48254142358E+01
 0.40443149233E+01 0.35853402242E+01 0.33497599080E+01 0.32778329975E+01 0.33497599080E+01
 0.35853402242E+01 0.40443149233E+01 0.48254142358E+01 0.60586688468E+01 0.82214196244E+01
 0.11706765746E+02 0.17583599009E+02 0.27704883584E+02 0.45334789501E+02 0.75743338280E+02
 0.12591385403E+03 0.20027681082E+03 0.28589323422E+03 0.32820497203E+03 0.26164875265E+03
 0.92763744766E+03 0.92763744766E+03 0.22542854396E+03 0.26167880168E+03 0.32782312670E+03
 0.26617588905E+03 0.17628804545E+03 0.10704775038E+03 0.63281707993E+02 0.37719358777E+02
 0.23185803753E+02 0.14904889798E+02 0.10096611581E+02 0.70645823364E+01 0.54911757298E+01
 0.44607183545E+01 0.38301020817E+01 0.34788045441E+01 0.33238727045E+01 0.33238727045E+01
 0.34788045441E+01 0.38301020817E+01 0.44607183545E+01 0.54911757298E+01 0.70645823364E+01
 0.10096611581E+02 0.14904889798E+02 0.23185803753E+02 0.37719358777E+02 0.63281707993E+02
 0.10704775038E+03 0.17628804545E+03 0.26617588905E+03 0.32782312670E+03 0.26167880168E+03
 0.22542854396E+03 0.92763617947E+03 0.22542803476E+03 0.26167863310E+03 0.32782307197E+03
 0.26617586964E+03 0.17628803729E+03 0.10704774612E+03 0.63281705318E+02 0.37719356964E+02
 0.23185802562E+02 0.14904889081E+02 0.10096611172E+02 0.70645820678E+01 0.54911754756E+01
 0.44607180751E+01 0.38301017896E+01 0.34788042639E+01 0.33238724414E+01 0.33238724414E+01
 0.34788042639E+01 0.38301017896E+01 0.44607180751E+01 0.54911754756E+01 0.70645820678E+01
 0.10096611172E+02 0.14904889081E+02 0.23185802562E+02 0.37719356964E+02 0.63281705318E+02
 0.10704774612E+03 0.17628803729E+03 0.26617586964E+03 0.32782307197E+03 0.26167863310E+03
 0.22542803476E+03 0.92763617947E+03 0.22540898679E+03 0.22177449911E+03 0.31743819015E+03
 0.29132758818E+03 0.20696759601E+03 0.13028807516E+03 0.78141829515E+02 0.46568982980E+02
 0.28331745853E+02 0.17907608636E+02 0.11881371097E+02 0.83207561682E+01 0.61142328230E+01
 0.48640574817E+01 0.40717417866E+01 0.36060048688E+01 0.33669122980E+01 0.32939086624E+01
 0.33669122980E+01 0.36060048688E+01 0.40717417866E+01 0.48640574817E+01 0.61142328230E+01
 0.83207561682E+01 0.11881371097E+02 0.17907608636E+02 0.28331745853E+02 0.46568982980E+02
 0.78141829515E+02 0.13028807516E+03 0.20696759601E+03 0.29132758818E+03 0.31743819015E+03
 0.22177449911E+03 0.22540898679E+03 0.42158628005E+03 0.26164078682E+03 0.31741802100E+03
 0.29797272185E+03 0.22338740199E+03 0.14678147522E+03 0.90441424993E+02 0.54607640744E+02
 0.33283302892E+02 0.20900184151E+02 0.13697954584E+02 0.94385728275E+01 0.67382180516E+01
 0.52838175952E+01 0.43322329160E+01 0.37497474873E+01 0.34249872808E+01 0.32816392256E+01
 0.32816392256E+01 0.34249872808E+01 0.37497474873E+01 0.43322329160E+01 0.52838175952E+01
 0.67382180516E+01 0.94385728275E+01 0.13697954584E+02 0.20900184151E+02 0.33283302892E+02
 0.54607640744E+02 0.90441424993E+02 0.14678147522E+03 0.22338740199E+03 0.29797272185E+03
 0.31741802100E+03 0.26164078682E+03 0.22355240455E+03 0.22355240455E+03 0.32778677247E+03
 0.29130442711E+03 0.22337920678E+03 0.15272023625E+03 0.97438887763E+02 0.60288866973E+02
 0.37253726164E+02 0.23496798527E+02 0.15356626021E+02 0.10495540566E+02 0.75421286080E+01
 0.56910126149E+01 0.45953932034E+01 0.39015782475E+01 0.34934126860E+01 0.32835843347E+01
 0.32194526257E+01 0.32835843347E+01 0.34934126860E+01 0.39015782475E+01 0.45953932034E+01
 0.56910126149E+01 0.75421286080E+01 0.10495540566E+02 0.15356626021E+02 0.23496798527E+02
 0.37253726164E+02 0.60288866973E+02 0.97438887763E+02 0.15272023625E+03 0.22337920678E+03
 0.29130442711E+03 0.32778677247E+03 0.32833677006E+03 0.32310213027E+03 0.32833677006E+03
 0.26614878065E+03 0.20694901376E+03 0.14677241766E+03 0.97435929222E+02 0.62344752233E+02
 0.39476424010E+02 0.25278212280E+02 0.16636427037E+02 0.11374494568E+02 0.81337268670E+01
 0.60531771404E+01 0.48414238071E+01 0.40504064036E+01 0.35659364555E+01 0.32952648305E+01
 0.31755441209E+01 0.31755441209E+01 0.32952648305E+01 0.35659364555E+01 0.40504064036E+01
 0.48414238071E+01 0.60531771404E+01 0.81337268670E+01 0.11374494568E+02 0.16636427037E+02
 0.25278212280E+02 0.39476424010E+02 0.62344752233E+02 0.97435929222E+02 0.14677241766E+03
 0.20694901376E+03 0.26614878065E+03 0.30930250691E+03 0.32986041190E+03 0.32986041190E+03
 0.30930250691E+03 0.17626980385E+03 0.13027496398E+03 0.90433988181E+02 0.60285456684E+02
 0.39475307776E+02 0.25913256542E+02 0.17336128215E+02 0.11960338747E+02 0.85756694012E+01
 0.63387858805E+01 0.50494354157E+01 0.41837967244E+01 0.36355062464E+01 0.33119976304E+01
 0.31450685837E+01 0.30939212012E+01 0.31450685837E+01 0.33119976304E+01 0.36355062464E+01
 0.41837967244E+01 0.50494354157E+01 0.63387858805E+01 0.85756694012E+01 0.11960338747E+02
 0.17336128215E+02 0.25913256542E+02 0.39475307776E+02 0.60285456684E+02 0.90433988181E+02
 0.13027496398E+03 0.17626980385E+03 0.22015125789E+03 0.25163496254E+03 0.26302064609E+03
 0.25163496254E+03 0.22015125789E+03 0.10703592629E+03 0.78133012332E+02 0.54602138642E+02
 0.37250759886E+02 0.25276857516E+02 0.17335677572E+02 0.12166124424E+02 0.88128190038E+01
 0.65216525681E+01 0.52003577407E+01 0.42895932490E+01 0.36951268251E+01 0.33295384537E+01
 0.31240370658E+01 0.30326599623E+01 0.30326599623E+01 0.31240370658E+01 0.33295384537E+01
 0.36951268251E+01 0.42895932490E+01 0.52003577407E+01 0.65216525681E+01 0.88128190038E+01
 0.12166124424E+02 0.17335677572E+02 0.25276857516E+02 0.37250759886E+02 0.54602138642E+02
 0.78133012332E+02 0.10703592629E+03 0.13784764622E+03 0.16447182542E+03 0.18006412588E+03
 0.18006412588E+03 0.16447182542E+03 0.13784764622E+03 0.63274090167E+02 0.46563130889E+02
 0.33279399291E+02 0.23494474313E+02 0.16635190968E+02 0.11959774688E+02 0.88126316212E+01
 0.65845314359E+01 0.52796892244E+01 0.43575973077E+01 0.37386835573E+01 0.33444750116E+01
 0.31097322501E+01 0.29874567697E+01 0.29497664298E+01 0.29874567697E+01 0.31097322501E+01
 0.33444750116E+01 0.37386835573E+01 0.43575973077E+01 0.52796892244E+01 0.65845314359E+01
 0.88126316212E+01 0.11959774688E+02 0.16635190968E+02 0.23494474313E+02 0.33279399291E+02
 0.46563130889E+02 0.63274090167E+02 0.82095399920E+02 0.10013785680E+03 0.11342005904E+03
 0.11833680443E+03 0.11342005904E+03 0.10013785680E+03 0.82095399920E+02 0.37714412096E+02
 0.28327857483E+02 0.20897465626E+02 0.15354898870E+02 0.11373492698E+02 0.85751463749E+01
 0.65214258888E+01 0.52796138108E+01 0.43810256579E+01 0.37616504960E+01 0.33543818998E+01
 0.31006620737E+01 0.29558988755E+01 0.28907460340E+01 0.28907460340E+01 0.29558988755E+01
 0.31006620737E+01 0.33543818998E+01 0.37616504960E+01 0.43810256579E+01 0.52796138108E+01
 0.65214258888E+01 0.85751463749E+01 0.11373492698E+02 0.15354898870E+02 0.20897465626E+02
 0.28327857483E+02 0.37714412096E+02 0.48578423465E+02 0.59658233854E+02 0.68967508861E+02
 0.74342755690E+02 0.74342755690E+02 0.68967508861E+02 0.59658233854E+02 0.48578423465E+02
 0.23182557260E+02 0.17905017520E+02 0.13696086191E+02 0.10494303711E+02 0.81329713801E+01
 0.63383736599E+01 0.52001452904E+01 0.43575053082E+01 0.37616221224E+01 0.33578296721E+01