 vasp.5.4.4.18Apr17-6-g9f103f2a35 (build Apr 28 2018 00:24:27) complex          
  
 executed on             LinuxIFC date 2021.04.17  17:40:30
 running on    8 total cores
 distrk:  each k-point on    8 cores,    1 groups
 distr:  one band on NCORES_PER_BAND=   4 cores,    2 groups


--------------------------------------------------------------------------------------------------------


 INCAR:
 POTCAR:    PAW_PBE Eu 23Dec2003                  
 POTCAR:    PAW_PBE S 06Sep2000                   
 POTCAR:    PAW_PBE Eu 23Dec2003                  
   VRHFIN =Eu : [core=Kr4d]                                                     
   LEXCH  = PE                                                                  
   EATOM  =  2619.8085 eV,  192.5505 Ry                                         
                                                                                
   TITEL  = PAW_PBE Eu 23Dec2003                                                
   LULTRA =        F    use ultrasoft PP ?                                      
   IUNSCR =        1    unscreen: 0-lin 1-nonlin 2-no                           
   RPACOR =    2.300    partial core radius                                     
   POMASS =  151.965; ZVAL   =   17.000    mass and valenz                      
   RCORE  =    2.800    outmost cutoff radius                                   
   RWIGS  =    2.800; RWIGS  =    1.482    wigner-seitz radius (au A)           
   ENMAX  =  249.668; ENMIN  =  187.251 eV                                      
   RCLOC  =    2.308    cutoff for local pot                                    
   LCOR   =        T    correct aug charges                                     
   LPAW   =        T    paw PP                                                  
   EAUG   =  549.628                                                            
   DEXC   =    0.000                                                            
   RMAX   =    2.870    core radius for proj-oper                               
   RAUG   =    1.300    factor for augmentation sphere                          
   RDEP   =    2.887    radius for radial grids                                 
   RDEPT  =    2.221    core radius for aug-charge                              
                                                                                
   Atomic configuration                                                         
   14 entries                                                                   
     n  l   j            E        occ.                                          
     1  0  0.50    -48354.7667   2.0000                                         
     2  0  0.50     -7939.6472   2.0000                                         
     2  1  1.50     -7072.6637   6.0000                                         
     3  0  0.50     -1747.1875   2.0000                                         
     3  1  1.50     -1477.5221   6.0000                                         
     3  2  2.50     -1117.4686  10.0000                                         
     4  0  0.50      -346.8682   2.0000                                         
     4  1  1.50      -258.1962   6.0000                                         
     4  2  2.50      -134.7724  10.0000                                         
     5  0  0.50       -44.6510   2.0000                                         
     6  0  0.50        -3.6227   2.0000                                         
     5  1  1.50       -23.7639   6.0000                                         
     5  2  2.50        -1.3130   0.0000                                         
     4  3  2.50        -2.7310   7.0000                                         
   Description                                                                  
     l       E           TYP  RCUT    TYP  RCUT                                 
     0    -44.6510453     23  2.400                                             
     0     -3.6226685     23  2.400                                             
     1    -23.7638687     23  2.400                                             
     1     27.2116520     23  2.400                                             
     2     -1.3129622     23  2.500                                             
     2     13.6058260     23  2.500                                             
     3     -2.7309948     23  2.800                                             
     3     -3.4014565     23  2.800                                             
  local pseudopotential read in
  partial core-charges read in
  partial kinetic energy density read in
  atomic valenz-charges read in
  non local Contribution for L=           0  read in
    real space projection operators read in
  non local Contribution for L=           0  read in
    real space projection operators read in
  non local Contribution for L=           1  read in
    real space projection operators read in
  non local Contribution for L=           1  read in
    real space projection operators read in
  non local Contribution for L=           2  read in
    real space projection operators read in
  non local Contribution for L=           2  read in
    real space projection operators read in
  non local Contribution for L=           3  read in
    real space projection operators read in
  non local Contribution for L=           3  read in
    real space projection operators read in
    PAW grid and wavefunctions read in
 
   number of l-projection  operators is LMAX  =           8
   number of lm-projection operators is LMMAX =          32
 
 POTCAR:    PAW_PBE S 06Sep2000                   
   VRHFIN =S : s2p4                                                             
   LEXCH  = PE                                                                  
   EATOM  =   276.8230 eV,   20.3459 Ry                                         
                                                                                
   TITEL  = PAW_PBE S 06Sep2000                                                 
   LULTRA =        F    use ultrasoft PP ?                                      
   IUNSCR =        1    unscreen: 0-lin 1-nonlin 2-no                           
   RPACOR =    1.500    partial core radius                                     
   POMASS =   32.066; ZVAL   =    6.000    mass and valenz                      
   RCORE  =    1.900    outmost cutoff radius                                   
   RWIGS  =    2.200; RWIGS  =    1.164    wigner-seitz radius (au A)           
   ENMAX  =  258.689; ENMIN  =  194.016 eV                                      
   ICORE  =        2    local potential                                         
   LCOR   =        T    correct aug charges                                     
   LPAW   =        T    paw PP                                                  
   EAUG   =  335.092                                                            
   DEXC   =    0.000                                                            
   RMAX   =    1.942    core radius for proj-oper                               
   RAUG   =    1.300    factor for augmentation sphere                          
   RDEP   =    1.954    radius for radial grids                                 
   RDEPT  =    1.744    core radius for aug-charge                              
                                                                                
   Atomic configuration                                                         
    6 entries                                                                   
     n  l   j            E        occ.                                          
     1  0  0.50     -2405.8406   2.0000                                         
     2  0  0.50      -211.7007   2.0000                                         
     2  1  1.50      -156.4958   6.0000                                         
     3  0  0.50       -17.2562   2.0000                                         
     3  1  0.50        -7.0085   4.0000                                         
     3  2  1.50        -6.8029   0.0000                                         
   Description                                                                  
     l       E           TYP  RCUT    TYP  RCUT                                 
     0    -17.2561641     23  1.900                                             
     0    -15.8743224     23  1.900                                             
     1     -7.0085400     23  1.900                                             
     1     -2.7779785     23  1.900                                             
     2     -6.8029130     23  1.900                                             
  local pseudopotential read in
  partial core-charges read in
  partial kinetic energy density read in
  atomic valenz-charges read in
  non local Contribution for L=           0  read in
    real space projection operators read in
  non local Contribution for L=           0  read in
    real space projection operators read in
  non local Contribution for L=           1  read in
    real space projection operators read in
  non local Contribution for L=           1  read in
    real space projection operators read in
    PAW grid and wavefunctions read in
 
   number of l-projection  operators is LMAX  =           4
   number of lm-projection operators is LMMAX =           8
 

 ----------------------------------------------------------------------------- 
|                                                                             |
|  ADVICE TO THIS USER RUNNING 'VASP/VAMP'   (HEAR YOUR MASTER'S VOICE ...):  |
|                                                                             |
|      You have a (more or less) 'small supercell' and for smaller cells      |
|      it is recommended  to use the reciprocal-space projection scheme!      |
|      The real space optimization is not  efficient for small cells and it   |
|      is also less accurate ...                                              |
|      Therefore set LREAL=.FALSE. in the  INCAR file                         |
|                                                                             |
 ----------------------------------------------------------------------------- 

 Optimization of the real space projectors (new method)

 maximal supplied QI-value         = 13.42
 optimisation between [QCUT,QGAM] = [ 11.67, 23.35] = [ 38.16,152.62] Ry 
 Optimized for a Real-space Cutoff    1.63 Angstroem

   l    n(q)    QCUT    max X(q) W(low)/X(q) W(high)/X(q)  e(spline) 
   0     11    11.673    10.400    0.14E-04    0.18E-05    0.24E-07
   0     11    11.673    10.768    0.21E-04    0.32E-05    0.49E-07
   1     11    11.673     4.094    0.40E-05    0.13E-04    0.93E-07
   1     11    11.673     4.009    0.11E-04    0.46E-04    0.33E-06
   2     10    11.673    29.030    0.79E-04    0.60E-04    0.70E-06
   2     10    11.673    19.941    0.80E-04    0.60E-04    0.71E-06
   3     10    11.673    88.889    0.23E-03    0.29E-03    0.30E-06
   3     10    11.673    76.102    0.23E-03    0.30E-03    0.30E-06
 Optimization of the real space projectors (new method)

 maximal supplied QI-value         = 19.84
 optimisation between [QCUT,QGAM] = [ 11.51, 23.22] = [ 37.09,150.92] Ry 
 Optimized for a Real-space Cutoff    1.21 Angstroem

   l    n(q)    QCUT    max X(q) W(low)/X(q) W(high)/X(q)  e(spline) 
   0      8    11.508   187.594    0.96E-04    0.18E-03    0.54E-07
   0      8    11.508   164.243    0.96E-04    0.18E-03    0.54E-07
   1      8    11.508    67.533    0.18E-03    0.65E-04    0.94E-07
   1      8    11.508    50.729    0.18E-03    0.63E-04    0.92E-07
  PAW_PBE Eu 23Dec2003                  :
 energy of atom  1       EATOM=-2619.8085
 kinetic energy error for atom=    0.0015 (will be added to EATOM!!)
  PAW_PBE S 06Sep2000                   :
 energy of atom  2       EATOM= -276.8230
 kinetic energy error for atom=    0.0016 (will be added to EATOM!!)
 
 
 POSCAR: Eu2 S2                                  
  positions in direct lattice
  velocities in cartesian coordinates
 exchange correlation table for  LEXCH =        8
   RHO(1)=    0.500       N(1)  =     2000
   RHO(2)=  100.500       N(2)  =     4000
 


--------------------------------------------------------------------------------------------------------


 ion  position               nearest neighbor table
   1  0.500  0.500  0.500-   3 2.92   3 2.92   3 2.92   3 2.92   4 2.93   4 2.93
   2  0.000  0.000  0.000-   4 2.92   4 2.92   4 2.92   4 2.92   3 2.93   3 2.93
   3  0.000  0.000  0.500-   1 2.92   1 2.92   1 2.92   1 2.92   2 2.93   2 2.93
   4  0.500  0.500  0.000-   2 2.92   2 2.92   2 2.92   2 2.92   1 2.93   1 2.93
 
  LATTYP: Found a simple monoclinic cell.
 ALAT       =     7.1638170727
 B/A-ratio  =     0.5764854352
 C/A-ratio  =     1.7329085091
 COS(beta)  =    -0.9623462923
  
  Lattice vectors:
  
 A1 = (   0.0000000000,  -2.3950429952,  -6.7515956708)
 A2 = (  -4.1298362032,   0.0000000000,   0.0000000000)
 A3 = (   0.0000000000,   7.1744543141,  10.1311672189)


Analysis of symmetry for initial positions (statically):
=====================================================================
 Subroutine PRICEL returns following result:
 
  LATTYP: Found a base centered monoclinic cell.
 ALAT       =     7.1637836186
 B/A-ratio  =     0.5764881274
 C/A-ratio  =     0.8171058557
 COS(beta)  =    -0.7078960764
  
  Lattice vectors:
  
 A1 = (  -2.0649181016,   3.5818898214,   0.0037737126)
 A2 = (   2.0649181016,   3.5818898214,   0.0037737126)
 A3 = (   0.0000000000,  -4.7794113190,  -3.3795715480)
 
   2 primitive cells build up your supercell.
 

 Routine SETGRP: Setting up the symmetry group for a 
 simple monoclinic supercell.


 Subroutine GETGRP returns: Found  4 space group operations
 (whereof  4 operations were pure point group operations)
 out of a pool of  4 trial point group operations.


The static configuration has the point symmetry C_2h.


Analysis of symmetry for dynamics (positions and initial velocities):
=====================================================================
 Subroutine PRICEL returns following result:
 
  LATTYP: Found a base centered monoclinic cell.
 ALAT       =     7.1637836186
 B/A-ratio  =     0.5764881274
 C/A-ratio  =     0.8171058557
 COS(beta)  =    -0.7078960764
  
  Lattice vectors:
  
 A1 = (  -2.0649181016,   3.5818898214,   0.0037737126)
 A2 = (   2.0649181016,   3.5818898214,   0.0037737126)
 A3 = (   0.0000000000,  -4.7794113190,  -3.3795715480)
 
   2 primitive cells build up your supercell.
 

 Routine SETGRP: Setting up the symmetry group for a 
 simple monoclinic supercell.


 Subroutine GETGRP returns: Found  4 space group operations
 (whereof  4 operations were pure point group operations)
 out of a pool of  4 trial point group operations.


The dynamic configuration has the point symmetry C_2h.


Analysis of structural, dynamic, and magnetic symmetry:
=====================================================================
 Subroutine PRICEL returns:
 Original cell was already a primitive cell.
 

 Routine SETGRP: Setting up the symmetry group for a 
 simple monoclinic supercell.


 Subroutine GETGRP returns: Found  4 space group operations
 (whereof  4 operations were pure point group operations)
 out of a pool of  4 trial point group operations.


The magnetic configuration has the point symmetry C_2h.


 Subroutine INISYM returns: Found  4 space group operations
 (whereof  4 operations are pure point group operations),
 and found     1 'primitive' translations

 
 
 KPOINTS: pymatgen v2019.10.16 with grid density =

Automatic generation of k-mesh.
Space group operators:
 irot       det(A)        alpha          n_x          n_y          n_z        tau_x        tau_y        tau_z
    1     1.000000     0.000000     1.000000     0.000000     0.000000     0.000000     0.000000     0.000000
    2    -1.000000     0.000000     1.000000     0.000000     0.000000     0.000000     0.000000     0.000000
    3     1.000000   180.000000     1.000000     0.000000     0.000000     0.000000     0.000000     0.000000
    4    -1.000000   180.000000     1.000000     0.000000     0.000000     0.000000     0.000000     0.000000
 
 Subroutine IBZKPT returns following result:
 ===========================================
 
 Found    216 irreducible k-points:
 
 Following reciprocal coordinates:
            Coordinates               Weight
  0.000000  0.000000  0.000000      1.000000
  0.100000  0.000000 -0.000000      2.000000
  0.200000  0.000000  0.000000      2.000000
  0.300000  0.000000 -0.000000      2.000000
  0.400000  0.000000  0.000000      2.000000
  0.500000  0.000000  0.000000      1.000000
  0.000000  0.100000  0.000000      2.000000
  0.100000  0.100000 -0.000000      4.000000
  0.200000  0.100000  0.000000      4.000000
  0.300000  0.100000 -0.000000      4.000000
  0.400000  0.100000  0.000000      4.000000
  0.500000  0.100000  0.000000      2.000000
  0.000000  0.200000  0.000000      2.000000
  0.100000  0.200000 -0.000000      4.000000
  0.200000  0.200000  0.000000      4.000000
  0.300000  0.200000 -0.000000      4.000000
  0.400000  0.200000  0.000000      4.000000
  0.500000  0.200000  0.000000      2.000000
  0.000000  0.300000  0.000000      2.000000
  0.100000  0.300000 -0.000000      4.000000
  0.200000  0.300000  0.000000      4.000000
  0.300000  0.300000 -0.000000      4.000000
  0.400000  0.300000  0.000000      4.000000
  0.500000  0.300000  0.000000      2.000000
  0.000000  0.400000  0.000000      2.000000
  0.100000  0.400000 -0.000000      4.000000
  0.200000  0.400000  0.000000      4.000000
  0.300000  0.400000 -0.000000      4.000000
  0.400000  0.400000  0.000000      4.000000
  0.500000  0.400000  0.000000      2.000000
  0.000000  0.500000  0.000000      1.000000
  0.100000  0.500000 -0.000000      2.000000
  0.200000  0.500000  0.000000      2.000000
  0.300000  0.500000 -0.000000      2.000000
  0.400000  0.500000  0.000000      2.000000
  0.500000  0.500000  0.000000      1.000000
  0.000000  0.000000  0.142857      2.000000
  0.100000  0.000000  0.142857      2.000000
  0.200000  0.000000  0.142857      2.000000
  0.300000  0.000000  0.142857      2.000000
  0.400000  0.000000  0.142857      2.000000
  0.500000  0.000000  0.142857      2.000000
 -0.400000  0.000000  0.142857      2.000000
 -0.300000  0.000000  0.142857      2.000000
 -0.200000  0.000000  0.142857      2.000000
 -0.100000  0.000000  0.142857      2.000000
  0.000000  0.100000  0.142857      4.000000
  0.100000  0.100000  0.142857      4.000000
  0.200000  0.100000  0.142857      4.000000
  0.300000  0.100000  0.142857      4.000000
  0.400000  0.100000  0.142857      4.000000
  0.500000  0.100000  0.142857      4.000000
 -0.400000  0.100000  0.142857      4.000000
 -0.300000  0.100000  0.142857      4.000000
 -0.200000  0.100000  0.142857      4.000000
 -0.100000  0.100000  0.142857      4.000000
  0.000000  0.200000  0.142857      4.000000
  0.100000  0.200000  0.142857      4.000000
  0.200000  0.200000  0.142857      4.000000
  0.300000  0.200000  0.142857      4.000000
  0.400000  0.200000  0.142857      4.000000
  0.500000  0.200000  0.142857      4.000000
 -0.400000  0.200000  0.142857      4.000000
 -0.300000  0.200000  0.142857      4.000000
 -0.200000  0.200000  0.142857      4.000000
 -0.100000  0.200000  0.142857      4.000000
  0.000000  0.300000  0.142857      4.000000
  0.100000  0.300000  0.142857      4.000000
  0.200000  0.300000  0.142857      4.000000
  0.300000  0.300000  0.142857      4.000000
  0.400000  0.300000  0.142857      4.000000
  0.500000  0.300000  0.142857      4.000000
 -0.400000  0.300000  0.142857      4.000000
 -0.300000  0.300000  0.142857      4.000000
 -0.200000  0.300000  0.142857      4.000000
 -0.100000  0.300000  0.142857      4.000000
  0.000000  0.400000  0.142857      4.000000
  0.100000  0.400000  0.142857      4.000000
  0.200000  0.400000  0.142857      4.000000
  0.300000  0.400000  0.142857      4.000000
  0.400000  0.400000  0.142857      4.000000
  0.500000  0.400000  0.142857      4.000000
 -0.400000  0.400000  0.142857      4.000000
 -0.300000  0.400000  0.142857      4.000000
 -0.200000  0.400000  0.142857      4.000000
 -0.100000  0.400000  0.142857      4.000000
  0.000000  0.500000  0.142857      2.000000
  0.100000  0.500000  0.142857      2.000000
  0.200000  0.500000  0.142857      2.000000
  0.300000  0.500000  0.142857      2.000000
  0.400000  0.500000  0.142857      2.000000
  0.500000  0.500000  0.142857      2.000000
 -0.400000  0.500000  0.142857      2.000000
 -0.300000  0.500000  0.142857      2.000000
 -0.200000  0.500000  0.142857      2.000000
 -0.100000  0.500000  0.142857      2.000000
  0.000000  0.000000  0.285714      2.000000
  0.100000  0.000000  0.285714      2.000000
  0.200000  0.000000  0.285714      2.000000
  0.300000  0.000000  0.285714      2.000000
  0.400000  0.000000  0.285714      2.000000
  0.500000  0.000000  0.285714      2.000000
 -0.400000  0.000000  0.285714      2.000000
 -0.300000  0.000000  0.285714      2.000000
 -0.200000  0.000000  0.285714      2.000000
 -0.100000  0.000000  0.285714      2.000000
  0.000000  0.100000  0.285714      4.000000
  0.100000  0.100000  0.285714      4.000000
  0.200000  0.100000  0.285714      4.000000
  0.300000  0.100000  0.285714      4.000000
  0.400000  0.100000  0.285714      4.000000
  0.500000  0.100000  0.285714      4.000000
 -0.400000  0.100000  0.285714      4.000000
 -0.300000  0.100000  0.285714      4.000000
 -0.200000  0.100000  0.285714      4.000000
 -0.100000  0.100000  0.285714      4.000000
  0.000000  0.200000  0.285714      4.000000
  0.100000  0.200000  0.285714      4.000000
  0.200000  0.200000  0.285714      4.000000
  0.300000  0.200000  0.285714      4.000000
  0.400000  0.200000  0.285714      4.000000
  0.500000  0.200000  0.285714      4.000000
 -0.400000  0.200000  0.285714      4.000000
 -0.300000  0.200000  0.285714      4.000000
 -0.200000  0.200000  0.285714      4.000000
 -0.100000  0.200000  0.285714      4.000000
  0.000000  0.300000  0.285714      4.000000
  0.100000  0.300000  0.285714      4.000000
  0.200000  0.300000  0.285714      4.000000
  0.300000  0.300000  0.285714      4.000000
  0.400000  0.300000  0.285714      4.000000
  0.500000  0.300000  0.285714      4.000000
 -0.400000  0.300000  0.285714      4.000000
 -0.300000  0.300000  0.285714      4.000000
 -0.200000  0.300000  0.285714      4.000000
 -0.100000  0.300000  0.285714      4.000000
  0.000000  0.400000  0.285714      4.000000
  0.100000  0.400000  0.285714      4.000000
  0.200000  0.400000  0.285714      4.000000
  0.300000  0.400000  0.285714      4.000000
  0.400000  0.400000  0.285714      4.000000
  0.500000  0.400000  0.285714      4.000000
 -0.400000  0.400000  0.285714      4.000000
 -0.300000  0.400000  0.285714      4.000000
 -0.200000  0.400000  0.285714      4.000000
 -0.100000  0.400000  0.285714      4.000000
  0.000000  0.500000  0.285714      2.000000
  0.100000  0.500000  0.285714      2.000000
  0.200000  0.500000  0.285714      2.000000
  0.300000  0.500000  0.285714      2.000000
  0.400000  0.500000  0.285714      2.000000
  0.500000  0.500000  0.285714      2.000000
 -0.400000  0.500000  0.285714      2.000000
 -0.300000  0.500000  0.285714      2.000000
 -0.200000  0.500000  0.285714      2.000000
 -0.100000  0.500000  0.285714      2.000000
  0.000000  0.000000  0.428571      2.000000
  0.100000  0.000000  0.428571      2.000000
  0.200000  0.000000  0.428571      2.000000
  0.300000  0.000000  0.428571      2.000000
  0.400000  0.000000  0.428571      2.000000
  0.500000  0.000000  0.428571      2.000000
 -0.400000  0.000000  0.428571      2.000000
 -0.300000  0.000000  0.428571      2.000000
 -0.200000  0.000000  0.428571      2.000000
 -0.100000  0.000000  0.428571      2.000000
  0.000000  0.100000  0.428571      4.000000
  0.100000  0.100000  0.428571      4.000000
  0.200000  0.100000  0.428571      4.000000
  0.300000  0.100000  0.428571      4.000000
  0.400000  0.100000  0.428571      4.000000
  0.500000  0.100000  0.428571      4.000000
 -0.400000  0.100000  0.428571      4.000000
 -0.300000  0.100000  0.428571      4.000000
 -0.200000  0.100000  0.428571      4.000000
 -0.100000  0.100000  0.428571      4.000000
  0.000000  0.200000  0.428571      4.000000
  0.100000  0.200000  0.428571      4.000000
  0.200000  0.200000  0.428571      4.000000
  0.300000  0.200000  0.428571      4.000000
  0.400000  0.200000  0.428571      4.000000
  0.500000  0.200000  0.428571      4.000000
 -0.400000  0.200000  0.428571      4.000000
 -0.300000  0.200000  0.428571      4.000000
 -0.200000  0.200000  0.428571      4.000000
 -0.100000  0.200000  0.428571      4.000000
  0.000000  0.300000  0.428571      4.000000
  0.100000  0.300000  0.428571      4.000000
  0.200000  0.300000  0.428571      4.000000
  0.300000  0.300000  0.428571      4.000000
  0.400000  0.300000  0.428571      4.000000
  0.500000  0.300000  0.428571      4.000000
 -0.400000  0.300000  0.428571      4.000000
 -0.300000  0.300000  0.428571      4.000000
 -0.200000  0.300000  0.428571      4.000000
 -0.100000  0.300000  0.428571      4.000000
  0.000000  0.400000  0.428571      4.000000
  0.100000  0.400000  0.428571      4.000000
  0.200000  0.400000  0.428571      4.000000
  0.300000  0.400000  0.428571      4.000000
  0.400000  0.400000  0.428571      4.000000
  0.500000  0.400000  0.428571      4.000000
 -0.400000  0.400000  0.428571      4.000000
 -0.300000  0.400000  0.428571      4.000000
 -0.200000  0.400000  0.428571      4.000000
 -0.100000  0.400000  0.428571      4.000000
  0.000000  0.500000  0.428571      2.000000
  0.100000  0.500000  0.428571      2.000000
  0.200000  0.500000  0.428571      2.000000
  0.300000  0.500000  0.428571      2.000000
  0.400000  0.500000  0.428571      2.000000
  0.500000  0.500000  0.428571      2.000000
 -0.400000  0.500000  0.428571      2.000000
 -0.300000  0.500000  0.428571      2.000000
 -0.200000  0.500000  0.428571      2.000000
 -0.100000  0.500000  0.428571      2.000000
 
 Following cartesian coordinates:
            Coordinates               Weight
  0.000000  0.000000  0.000000      1.000000
  0.000000 -0.013980  0.019771      2.000000
  0.000000 -0.027960  0.039541      2.000000
  0.000000 -0.041940  0.059312      2.000000
  0.000000 -0.055920  0.079082      2.000000
  0.000000 -0.069900  0.098853      1.000000
  0.024214  0.000000  0.000000      2.000000
  0.024214 -0.013980  0.019771      4.000000
  0.024214 -0.027960  0.039541      4.000000
  0.024214 -0.041940  0.059312      4.000000
  0.024214 -0.055920  0.079082      4.000000
  0.024214 -0.069900  0.098853      2.000000
  0.048428  0.000000  0.000000      2.000000
  0.048428 -0.013980  0.019771      4.000000
  0.048428 -0.027960  0.039541      4.000000
  0.048428 -0.041940  0.059312      4.000000
  0.048428 -0.055920  0.079082      4.000000
  0.048428 -0.069900  0.098853      2.000000
  0.072642  0.000000  0.000000      2.000000
  0.072642 -0.013980  0.019771      4.000000
  0.072642 -0.027960  0.039541      4.000000
  0.072642 -0.041940  0.059312      4.000000
  0.072642 -0.055920  0.079082      4.000000
  0.072642 -0.069900  0.098853      2.000000
  0.096856  0.000000  0.000000      2.000000
  0.096856 -0.013980  0.019771      4.000000
  0.096856 -0.027960  0.039541      4.000000
  0.096856 -0.041940  0.059312      4.000000
  0.096856 -0.055920  0.079082      4.000000
  0.096856 -0.069900  0.098853      2.000000
  0.121070  0.000000  0.000000      1.000000
  0.121070 -0.013980  0.019771      2.000000
  0.121070 -0.027960  0.039541      2.000000
  0.121070 -0.041940  0.059312      2.000000
  0.121070 -0.055920  0.079082      2.000000
  0.121070 -0.069900  0.098853      1.000000
  0.000000  0.019927  0.014090      2.000000
  0.000000  0.005947  0.033861      2.000000
  0.000000 -0.008033  0.053631      2.000000
  0.000000 -0.022013  0.073402      2.000000
  0.000000 -0.035993  0.093172      2.000000
  0.000000 -0.049973  0.112943      2.000000
  0.000000  0.075847 -0.064992      2.000000
  0.000000  0.061867 -0.045221      2.000000
  0.000000  0.047887 -0.025451      2.000000
  0.000000  0.033907 -0.005680      2.000000
  0.024214  0.019927  0.014090      4.000000
  0.024214  0.005947  0.033861      4.000000
  0.024214 -0.008033  0.053631      4.000000
  0.024214 -0.022013  0.073402      4.000000
  0.024214 -0.035993  0.093172      4.000000
  0.024214 -0.049973  0.112943      4.000000
  0.024214  0.075847 -0.064992      4.000000
  0.024214  0.061867 -0.045221      4.000000
  0.024214  0.047887 -0.025451      4.000000
  0.024214  0.033907 -0.005680      4.000000
  0.048428  0.019927  0.014090      4.000000
  0.048428  0.005947  0.033861      4.000000
  0.048428 -0.008033  0.053631      4.000000
  0.048428 -0.022013  0.073402      4.000000
  0.048428 -0.035993  0.093172      4.000000
  0.048428 -0.049973  0.112943      4.000000
  0.048428  0.075847 -0.064992      4.000000
  0.048428  0.061867 -0.045221      4.000000
  0.048428  0.047887 -0.025451      4.000000
  0.048428  0.033907 -0.005680      4.000000
  0.072642  0.019927  0.014090      4.000000
  0.072642  0.005947  0.033861      4.000000
  0.072642 -0.008033  0.053631      4.000000
  0.072642 -0.022013  0.073402      4.000000
  0.072642 -0.035993  0.093172      4.000000
  0.072642 -0.049973  0.112943      4.000000
  0.072642  0.075847 -0.064992      4.000000
  0.072642  0.061867 -0.045221      4.000000
  0.072642  0.047887 -0.025451      4.000000
  0.072642  0.033907 -0.005680      4.000000
  0.096856  0.019927  0.014090      4.000000
  0.096856  0.005947  0.033861      4.000000
  0.096856 -0.008033  0.053631      4.000000
  0.096856 -0.022013  0.073402      4.000000
  0.096856 -0.035993  0.093172      4.000000
  0.096856 -0.049973  0.112943      4.000000
  0.096856  0.075847 -0.064992      4.000000
  0.096856  0.061867 -0.045221      4.000000
  0.096856  0.047887 -0.025451      4.000000
  0.096856  0.033907 -0.005680      4.000000
  0.121070  0.019927  0.014090      2.000000
  0.121070  0.005947  0.033861      2.000000
  0.121070 -0.008033  0.053631      2.000000
  0.121070 -0.022013  0.073402      2.000000
  0.121070 -0.035993  0.093172      2.000000
  0.121070 -0.049973  0.112943      2.000000
  0.121070  0.075847 -0.064992      2.000000
  0.121070  0.061867 -0.045221      2.000000
  0.121070  0.047887 -0.025451      2.000000
  0.121070  0.033907 -0.005680      2.000000
  0.000000  0.039853  0.028181      2.000000
  0.000000  0.025874  0.047951      2.000000
  0.000000  0.011894  0.067722      2.000000
  0.000000 -0.002086  0.087492      2.000000
  0.000000 -0.016066  0.107263      2.000000
  0.000000 -0.030046  0.127033      2.000000
  0.000000  0.095773 -0.050902      2.000000
  0.000000  0.081793 -0.031131      2.000000
  0.000000  0.067813 -0.011361      2.000000
  0.000000  0.053833  0.008410      2.000000
  0.024214  0.039853  0.028181      4.000000
  0.024214  0.025874  0.047951      4.000000
  0.024214  0.011894  0.067722      4.000000
  0.024214 -0.002086  0.087492      4.000000
  0.024214 -0.016066  0.107263      4.000000
  0.024214 -0.030046  0.127033      4.000000
  0.024214  0.095773 -0.050902      4.000000
  0.024214  0.081793 -0.031131      4.000000
  0.024214  0.067813 -0.011361      4.000000
  0.024214  0.053833  0.008410      4.000000
  0.048428  0.039853  0.028181      4.000000
  0.048428  0.025874  0.047951      4.000000
  0.048428  0.011894  0.067722      4.000000
  0.048428 -0.002086  0.087492      4.000000
  0.048428 -0.016066  0.107263      4.000000
  0.048428 -0.030046  0.127033      4.000000
  0.048428  0.095773 -0.050902      4.000000
  0.048428  0.081793 -0.031131      4.000000
  0.048428  0.067813 -0.011361      4.000000
  0.048428  0.053833  0.008410      4.000000
  0.072642  0.039853  0.028181      4.000000
  0.072642  0.025874  0.047951      4.000000
  0.072642  0.011894  0.067722      4.000000
  0.072642 -0.002086  0.087492      4.000000
  0.072642 -0.016066  0.107263      4.000000
  0.072642 -0.030046  0.127033      4.000000
  0.072642  0.095773 -0.050902      4.000000
  0.072642  0.081793 -0.031131      4.000000
  0.072642  0.067813 -0.011361      4.000000
  0.072642  0.053833  0.008410      4.000000
  0.096856  0.039853  0.028181      4.000000
  0.096856  0.025874  0.047951      4.000000
  0.096856  0.011894  0.067722      4.000000
  0.096856 -0.002086  0.087492      4.000000
  0.096856 -0.016066  0.107263      4.000000
  0.096856 -0.030046  0.127033      4.000000
  0.096856  0.095773 -0.050902      4.000000
  0.096856  0.081793 -0.031131      4.000000
  0.096856  0.067813 -0.011361      4.000000
  0.096856  0.053833  0.008410      4.000000
  0.121070  0.039853  0.028181      2.000000
  0.121070  0.025874  0.047951      2.000000
  0.121070  0.011894  0.067722      2.000000
  0.121070 -0.002086  0.087492      2.000000
  0.121070 -0.016066  0.107263      2.000000
  0.121070 -0.030046  0.127033      2.000000
  0.121070  0.095773 -0.050902      2.000000
  0.121070  0.081793 -0.031131      2.000000
  0.121070  0.067813 -0.011361      2.000000
  0.121070  0.053833  0.008410      2.000000
  0.000000  0.059780  0.042271      2.000000
  0.000000  0.045800  0.062041      2.000000
  0.000000  0.031820  0.081812      2.000000
  0.000000  0.017840  0.101582      2.000000
  0.000000  0.003860  0.121353      2.000000
  0.000000 -0.010119  0.141123      2.000000
  0.000000  0.115700 -0.036811      2.000000
  0.000000  0.101720 -0.017041      2.000000
  0.000000  0.087740  0.002730      2.000000
  0.000000  0.073760  0.022500      2.000000
  0.024214  0.059780  0.042271      4.000000
  0.024214  0.045800  0.062041      4.000000
  0.024214  0.031820  0.081812      4.000000
  0.024214  0.017840  0.101582      4.000000
  0.024214  0.003860  0.121353      4.000000
  0.024214 -0.010119  0.141123      4.000000
  0.024214  0.115700 -0.036811      4.000000
  0.024214  0.101720 -0.017041      4.000000
  0.024214  0.087740  0.002730      4.000000
  0.024214  0.073760  0.022500      4.000000
  0.048428  0.059780  0.042271      4.000000
  0.048428  0.045800  0.062041      4.000000
  0.048428  0.031820  0.081812      4.000000
  0.048428  0.017840  0.101582      4.000000
  0.048428  0.003860  0.121353      4.000000
  0.048428 -0.010119  0.141123      4.000000
  0.048428  0.115700 -0.036811      4.000000
  0.048428  0.101720 -0.017041      4.000000
  0.048428  0.087740  0.002730      4.000000
  0.048428  0.073760  0.022500      4.000000
  0.072642  0.059780  0.042271      4.000000
  0.072642  0.045800  0.062041      4.000000
  0.072642  0.031820  0.081812      4.000000
  0.072642  0.017840  0.101582      4.000000
  0.072642  0.003860  0.121353      4.000000
  0.072642 -0.010119  0.141123      4.000000
  0.072642  0.115700 -0.036811      4.000000
  0.072642  0.101720 -0.017041      4.000000
  0.072642  0.087740  0.002730      4.000000
  0.072642  0.073760  0.022500      4.000000
  0.096856  0.059780  0.042271      4.000000
  0.096856  0.045800  0.062041      4.000000
  0.096856  0.031820  0.081812      4.000000
  0.096856  0.017840  0.101582      4.000000
  0.096856  0.003860  0.121353      4.000000
  0.096856 -0.010119  0.141123      4.000000
  0.096856  0.115700 -0.036811      4.000000
  0.096856  0.101720 -0.017041      4.000000
  0.096856  0.087740  0.002730      4.000000
  0.096856  0.073760  0.022500      4.000000
  0.121070  0.059780  0.042271      2.000000
  0.121070  0.045800  0.062041      2.000000
  0.121070  0.031820  0.081812      2.000000
  0.121070  0.017840  0.101582      2.000000
  0.121070  0.003860  0.121353      2.000000
  0.121070 -0.010119  0.141123      2.000000
  0.121070  0.115700 -0.036811      2.000000
  0.121070  0.101720 -0.017041      2.000000
  0.121070  0.087740  0.002730      2.000000
  0.121070  0.073760  0.022500      2.000000
 
 TETIRR: Found   2100 inequivalent tetrahedra from     4200


--------------------------------------------------------------------------------------------------------




 Dimension of arrays:
   k-points           NKPTS =    216   k-points in BZ     NKDIM =    216   number of bands    NBANDS=     28
   number of dos      NEDOS =    301   number of ions     NIONS =      4
   non local maximal  LDIM  =      8   non local SUM 2l+1 LMDIM =     32
   total plane-waves  NPLWV =  49152
   max r-space proj   IRMAX =   8935   max aug-charges    IRDMAX=  28342
   dimension x,y,z NGX =    32 NGY =   32 NGZ =   48
   dimension x,y,z NGXF=    64 NGYF=   64 NGZF=   96
   support grid    NGXF=    64 NGYF=   64 NGZF=   96
   ions per type =               2   2
   NGX,Y,Z   is equivalent  to a cutoff of  12.88, 12.88, 13.63 a.u.
   NGXF,Y,Z  is equivalent  to a cutoff of  25.76, 25.76, 27.26 a.u.

 SYSTEM =  unknown system                          
 POSCAR =  Eu2 S2                                  

 Startparameter for this run:
   NWRITE =      2    write-flag & timer
   PREC   = accura    normal or accurate (medium, high low for compatibility)
   ISTART =      0    job   : 0-new  1-cont  2-samecut
   ICHARG =      2    charge: 1-file 2-atom 10-const
   ISPIN  =      2    spin polarized calculation?
   LNONCOLLINEAR =      F non collinear calculations
   LSORBIT =      F    spin-orbit coupling
   INIWAV =      1    electr: 0-lowe 1-rand  2-diag
   LASPH  =      T    aspherical Exc in radial PAW
   METAGGA=      F    non-selfconsistent MetaGGA calc.

 Electronic Relaxation 1
   ENCUT  =  520.0 eV  38.22 Ry    6.18 a.u.   7.68  7.68 10.88*2*pi/ulx,y,z
   ENINI  =  520.0     initial cutoff
   ENAUG  =  549.6 eV  augmentation charge cutoff
   NELM   =    120;   NELMIN=  2; NELMDL=  0     # of ELM steps 
   EDIFF  = 0.1E-05   stopping-criterion for ELM
   LREAL  =      T    real-space projection
   NLSPLINE    = F    spline interpolate recip. space projectors
   LCOMPAT=      F    compatible to vasp.4.4
   GGA_COMPAT  = T    GGA compatible to vasp.4.4-vasp.4.6
   LMAXPAW     = -100 max onsite density
   LMAXMIX     =    4 max onsite mixed and CHGCAR
   VOSKOWN=      0    Vosko Wilk Nusair interpolation
   ROPT   =   -0.00025  -0.00025
 Ionic relaxation
   EDIFFG = 0.1E-04   stopping-criterion for IOM
   NSW    =      0    number of steps for IOM
   NBLOCK =      1;   KBLOCK =      1    inner block; outer block 
   IBRION =     -1    ionic relax: 0-MD 1-quasi-New 2-CG
   NFREE  =      0    steps in history (QN), initial steepest desc. (CG)
   ISIF   =      3    stress and relaxation
   IWAVPR =     10    prediction:  0-non 1-charg 2-wave 3-comb
   ISYM   =      2    0-nonsym 1-usesym 2-fastsym
   LCORR  =      T    Harris-Foulkes like correction to forces

   POTIM  = 0.5000    time-step for ionic-motion
   TEIN   =    0.0    initial temperature
   TEBEG  =    0.0;   TEEND  =   0.0 temperature during run
   SMASS  =  -3.00    Nose mass-parameter (am)
   estimated Nose-frequenzy (Omega)   =  0.10E-29 period in steps =****** mass=  -0.390E-27a.u.
   SCALEE = 1.0000    scale energy and forces
   NPACO  =    256;   APACO  = 16.0  distance and # of slots for P.C.
   PSTRESS=    0.0 pullay stress

  Mass of Ions in am
   POMASS = 151.97 32.07
  Ionic Valenz
   ZVAL   =  17.00  6.00
  Atomic Wigner-Seitz radii
   RWIGS  =  -1.00 -1.00
  virtual crystal weights 
   VCA    =   1.00  1.00
   NELECT =      46.0000    total number of electrons
   NUPDOWN=      -1.0000    fix difference up-down

 DOS related values:
   EMIN   =  10.00;   EMAX   =-10.00  energy-range for DOS
   EFERMI =   0.00
   ISMEAR =    -5;   SIGMA  =   0.05  broadening in eV -4-tet -1-fermi 0-gaus

 Electronic relaxation 2 (details)
   IALGO  =     38    algorithm
   LDIAG  =      T    sub-space diagonalisation (order eigenvalues)
   LSUBROT=      F    optimize rotation matrix (better conditioning)
   TURBO    =      0    0=normal 1=particle mesh
   IRESTART =      0    0=no restart 2=restart with 2 vectors
   NREBOOT  =      0    no. of reboots
   NMIN     =      0    reboot dimension
   EREF     =   0.00    reference energy to select bands
   IMIX   =      4    mixing-type and parameters
     AMIX     =   0.40;   BMIX     =  1.00
     AMIX_MAG =   1.60;   BMIX_MAG =  1.00
     AMIN     =   0.10
     WC   =   100.;   INIMIX=   1;  MIXPRE=   1;  MAXMIX= -45

 Intra band minimization:
   WEIMIN = 0.0000     energy-eigenvalue tresh-hold
   EBREAK =  0.89E-08  absolut break condition
   DEPER  =   0.30     relativ break condition  

   TIME   =   0.40     timestep for ELM

  volume/ion in A,a.u.               =      24.96       168.43
  Fermi-wavevector in a.u.,A,eV,Ry     =   1.264439  2.389442 21.753061  1.598805
  Thomas-Fermi vector in A             =   2.397744
 
 Write flags
   LWAVE        =      F    write WAVECAR
   LDOWNSAMPLE  =      F    k-point downsampling of WAVECAR
   LCHARG       =      T    write CHGCAR
   LVTOT        =      F    write LOCPOT, total local potential
   LVHAR        =      F    write LOCPOT, Hartree potential only
   LELF         =      F    write electronic localiz. function (ELF)
   LORBIT       =     11    0 simple, 1 ext, 2 COOP (PROOUT), +10 PAW based schemes


 Dipole corrections
   LMONO  =      F    monopole corrections only (constant potential shift)
   LDIPOL =      F    correct potential (dipole corrections)
   IDIPOL =      0    1-x, 2-y, 3-z, 4-all directions 
   EPSILON=  1.0000000 bulk dielectric constant

 Exchange correlation treatment:
   GGA     =    --    GGA type
   LEXCH   =     8    internal setting for exchange type
   VOSKOWN=      0    Vosko Wilk Nusair interpolation
   LHFCALC =     F    Hartree Fock is set to
   LHFONE  =     F    Hartree Fock one center treatment
   AEXX    =    0.0000 exact exchange contribution

 Linear response parameters
   LEPSILON=     F    determine dielectric tensor
   LRPA    =     F    only Hartree local field effects (RPA)
   LNABLA  =     F    use nabla operator in PAW spheres
   LVEL    =     F    velocity operator in full k-point grid
   LINTERFAST=   F  fast interpolation
   KINTER  =     0    interpolate to denser k-point grid
   CSHIFT  =0.1000    complex shift for real part using Kramers Kronig
   OMEGAMAX=  -1.0    maximum frequency
   DEG_THRESHOLD= 0.2000000E-02 threshold for treating states as degnerate
   RTIME   =   -0.100 relaxation time in fs
  (WPLASMAI=    0.000 imaginary part of plasma frequency in eV, 0.658/RTIME)
   DFIELD  = 0.0000000 0.0000000 0.0000000 field for delta impulse in time
 
 Orbital magnetization related:
   ORBITALMAG=     F  switch on orbital magnetization
   LCHIMAG   =     F  perturbation theory with respect to B field
   DQ        =  0.001000  dq finite difference perturbation B field
   LLRAUG    =     F  two centre corrections for induced B field



--------------------------------------------------------------------------------------------------------


 Static calculation
 charge density and potential will be updated during run
 spin polarized calculation
 Variant of blocked Davidson
 Davidson routine will perform the subspace rotation
 perform sub-space diagonalisation
    after iterative eigenvector-optimisation
 modified Broyden-mixing scheme, WC =      100.0
 initial mixing is a Kerker type mixing with AMIX =  0.4000 and BMIX =      1.0000
 Hartree-type preconditioning will be used
 using additional bands            5
 real space projection scheme for non local part
 use partial core corrections
 calculate Harris-corrections to forces 
   (improved forces if not selfconsistent)
 use gradient corrections 
 use of overlap-Matrix (Vanderbilt PP)
 Fermi weights with tetrahedron method with Bloechl corrections


--------------------------------------------------------------------------------------------------------


  energy-cutoff  :      520.00
  volume of cell :       99.84
      direct lattice vectors                 reciprocal lattice vectors
     0.000000000 -2.384368324  3.372024123     0.000000000 -0.139799410  0.197705204
     4.129836203  0.000000000  0.000000000     0.242140354  0.000000000  0.000000000
     0.000000000  4.779411319  3.379571548     0.000000000  0.139487203  0.098631818

  length of vectors
     4.129861861  4.129836203  5.853569544     0.242138850  0.242140354  0.170835931


 
 k-points in units of 2pi/SCALE and weight: pymatgen v2019.10.16 with grid density =
   0.00000000  0.00000000  0.00000000       0.001
   0.00000000 -0.01397994  0.01977052       0.003
   0.00000000 -0.02795988  0.03954104       0.003
   0.00000000 -0.04193982  0.05931156       0.003
   0.00000000 -0.05591976  0.07908208       0.003
   0.00000000 -0.06989970  0.09885260       0.001
   0.02421404  0.00000000  0.00000000       0.003
   0.02421404 -0.01397994  0.01977052       0.006
   0.02421404 -0.02795988  0.03954104       0.006
   0.02421404 -0.04193982  0.05931156       0.006
   0.02421404 -0.05591976  0.07908208       0.006
   0.02421404 -0.06989970  0.09885260       0.003
   0.04842807  0.00000000  0.00000000       0.003
   0.04842807 -0.01397994  0.01977052       0.006
   0.04842807 -0.02795988  0.03954104       0.006
   0.04842807 -0.04193982  0.05931156       0.006
   0.04842807 -0.05591976  0.07908208       0.006
   0.04842807 -0.06989970  0.09885260       0.003
   0.07264211  0.00000000  0.00000000       0.003
   0.07264211 -0.01397994  0.01977052       0.006
   0.07264211 -0.02795988  0.03954104       0.006
   0.07264211 -0.04193982  0.05931156       0.006
   0.07264211 -0.05591976  0.07908208       0.006
   0.07264211 -0.06989970  0.09885260       0.003
   0.09685614  0.00000000  0.00000000       0.003
   0.09685614 -0.01397994  0.01977052       0.006
   0.09685614 -0.02795988  0.03954104       0.006
   0.09685614 -0.04193982  0.05931156       0.006
   0.09685614 -0.05591976  0.07908208       0.006
   0.09685614 -0.06989970  0.09885260       0.003
   0.12107018  0.00000000  0.00000000       0.001
   0.12107018 -0.01397994  0.01977052       0.003
   0.12107018 -0.02795988  0.03954104       0.003
   0.12107018 -0.04193982  0.05931156       0.003
   0.12107018 -0.05591976  0.07908208       0.003
   0.12107018 -0.06989970  0.09885260       0.001
   0.00000000  0.01992674  0.01409026       0.003
   0.00000000  0.00594680  0.03386078       0.003
   0.00000000 -0.00803314  0.05363130       0.003
   0.00000000 -0.02201308  0.07340182       0.003
   0.00000000 -0.03599302  0.09317234       0.003
   0.00000000 -0.04997296  0.11294286       0.003
   0.00000000  0.07584651 -0.06499182       0.003
   0.00000000  0.06186657 -0.04522130       0.003
   0.00000000  0.04788663 -0.02545078       0.003
   0.00000000  0.03390668 -0.00568026       0.003
   0.02421404  0.01992674  0.01409026       0.006
   0.02421404  0.00594680  0.03386078       0.006
   0.02421404 -0.00803314  0.05363130       0.006
   0.02421404 -0.02201308  0.07340182       0.006
   0.02421404 -0.03599302  0.09317234       0.006
   0.02421404 -0.04997296  0.11294286       0.006
   0.02421404  0.07584651 -0.06499182       0.006
   0.02421404  0.06186657 -0.04522130       0.006
   0.02421404  0.04788663 -0.02545078       0.006
   0.02421404  0.03390668 -0.00568026       0.006
   0.04842807  0.01992674  0.01409026       0.006
   0.04842807  0.00594680  0.03386078       0.006
   0.04842807 -0.00803314  0.05363130       0.006
   0.04842807 -0.02201308  0.07340182       0.006
   0.04842807 -0.03599302  0.09317234       0.006
   0.04842807 -0.04997296  0.11294286       0.006
   0.04842807  0.07584651 -0.06499182       0.006
   0.04842807  0.06186657 -0.04522130       0.006
   0.04842807  0.04788663 -0.02545078       0.006
   0.04842807  0.03390668 -0.00568026       0.006
   0.07264211  0.01992674  0.01409026       0.006
   0.07264211  0.00594680  0.03386078       0.006
   0.07264211 -0.00803314  0.05363130       0.006
   0.07264211 -0.02201308  0.07340182       0.006
   0.07264211 -0.03599302  0.09317234       0.006
   0.07264211 -0.04997296  0.11294286       0.006
   0.07264211  0.07584651 -0.06499182       0.006
   0.07264211  0.06186657 -0.04522130       0.006
   0.07264211  0.04788663 -0.02545078       0.006
   0.07264211  0.03390668 -0.00568026       0.006
   0.09685614  0.01992674  0.01409026       0.006
   0.09685614  0.00594680  0.03386078       0.006
   0.09685614 -0.00803314  0.05363130       0.006
   0.09685614 -0.02201308  0.07340182       0.006
   0.09685614 -0.03599302  0.09317234       0.006
   0.09685614 -0.04997296  0.11294286       0.006
   0.09685614  0.07584651 -0.06499182       0.006
   0.09685614  0.06186657 -0.04522130       0.006
   0.09685614  0.04788663 -0.02545078       0.006
   0.09685614  0.03390668 -0.00568026       0.006
   0.12107018  0.01992674  0.01409026       0.003
   0.12107018  0.00594680  0.03386078       0.003
   0.12107018 -0.00803314  0.05363130       0.003
   0.12107018 -0.02201308  0.07340182       0.003
   0.12107018 -0.03599302  0.09317234       0.003
   0.12107018 -0.04997296  0.11294286       0.003
   0.12107018  0.07584651 -0.06499182       0.003
   0.12107018  0.06186657 -0.04522130       0.003
   0.12107018  0.04788663 -0.02545078       0.003
   0.12107018  0.03390668 -0.00568026       0.003
   0.00000000  0.03985349  0.02818052       0.003
   0.00000000  0.02587355  0.04795104       0.003
   0.00000000  0.01189360  0.06772156       0.003
   0.00000000 -0.00208634  0.08749208       0.003
   0.00000000 -0.01606628  0.10726260       0.003
   0.00000000 -0.03004622  0.12703312       0.003
   0.00000000  0.09577325 -0.05090156       0.003
   0.00000000  0.08179331 -0.03113104       0.003
   0.00000000  0.06781337 -0.01136052       0.003
   0.00000000  0.05383343  0.00841000       0.003
   0.02421404  0.03985349  0.02818052       0.006
   0.02421404  0.02587355  0.04795104       0.006
   0.02421404  0.01189360  0.06772156       0.006
   0.02421404 -0.00208634  0.08749208       0.006
   0.02421404 -0.01606628  0.10726260       0.006
   0.02421404 -0.03004622  0.12703312       0.006
   0.02421404  0.09577325 -0.05090156       0.006
   0.02421404  0.08179331 -0.03113104       0.006
   0.02421404  0.06781337 -0.01136052       0.006
   0.02421404  0.05383343  0.00841000       0.006
   0.04842807  0.03985349  0.02818052       0.006
   0.04842807  0.02587355  0.04795104       0.006
   0.04842807  0.01189360  0.06772156       0.006
   0.04842807 -0.00208634  0.08749208       0.006
   0.04842807 -0.01606628  0.10726260       0.006
   0.04842807 -0.03004622  0.12703312       0.006
   0.04842807  0.09577325 -0.05090156       0.006
   0.04842807  0.08179331 -0.03113104       0.006
   0.04842807  0.06781337 -0.01136052       0.006
   0.04842807  0.05383343  0.00841000       0.006
   0.07264211  0.03985349  0.02818052       0.006
   0.07264211  0.02587355  0.04795104       0.006
   0.07264211  0.01189360  0.06772156       0.006
   0.07264211 -0.00208634  0.08749208       0.006
   0.07264211 -0.01606628  0.10726260       0.006
   0.07264211 -0.03004622  0.12703312       0.006
   0.07264211  0.09577325 -0.05090156       0.006
   0.07264211  0.08179331 -0.03113104       0.006
   0.07264211  0.06781337 -0.01136052       0.006
   0.07264211  0.05383343  0.00841000       0.006
   0.09685614  0.03985349  0.02818052       0.006
   0.09685614  0.02587355  0.04795104       0.006
   0.09685614  0.01189360  0.06772156       0.006
   0.09685614 -0.00208634  0.08749208       0.006
   0.09685614 -0.01606628  0.10726260       0.006
   0.09685614 -0.03004622  0.12703312       0.006
   0.09685614  0.09577325 -0.05090156       0.006
   0.09685614  0.08179331 -0.03113104       0.006
   0.09685614  0.06781337 -0.01136052       0.006
   0.09685614  0.05383343  0.00841000       0.006
   0.12107018  0.03985349  0.02818052       0.003
   0.12107018  0.02587355  0.04795104       0.003
   0.12107018  0.01189360  0.06772156       0.003
   0.12107018 -0.00208634  0.08749208       0.003
   0.12107018 -0.01606628  0.10726260       0.003
   0.12107018 -0.03004622  0.12703312       0.003
   0.12107018  0.09577325 -0.05090156       0.003
   0.12107018  0.08179331 -0.03113104       0.003
   0.12107018  0.06781337 -0.01136052       0.003
   0.12107018  0.05383343  0.00841000       0.003
   0.00000000  0.05978023  0.04227078       0.003
   0.00000000  0.04580029  0.06204130       0.003
   0.00000000  0.03182035  0.08181182       0.003
   0.00000000  0.01784041  0.10158234       0.003
   0.00000000  0.00386047  0.12135286       0.003
   0.00000000 -0.01011948  0.14112338       0.003
   0.00000000  0.11569999 -0.03681130       0.003
   0.00000000  0.10172005 -0.01704078       0.003
   0.00000000  0.08774011  0.00272974       0.003
   0.00000000  0.07376017  0.02250026       0.003
   0.02421404  0.05978023  0.04227078       0.006
   0.02421404  0.04580029  0.06204130       0.006
   0.02421404  0.03182035  0.08181182       0.006
   0.02421404  0.01784041  0.10158234       0.006
   0.02421404  0.00386047  0.12135286       0.006
   0.02421404 -0.01011948  0.14112338       0.006
   0.02421404  0.11569999 -0.03681130       0.006
   0.02421404  0.10172005 -0.01704078       0.006
   0.02421404  0.08774011  0.00272974       0.006
   0.02421404  0.07376017  0.02250026       0.006
   0.04842807  0.05978023  0.04227078       0.006
   0.04842807  0.04580029  0.06204130       0.006
   0.04842807  0.03182035  0.08181182       0.006
   0.04842807  0.01784041  0.10158234       0.006
   0.04842807  0.00386047  0.12135286       0.006
   0.04842807 -0.01011948  0.14112338       0.006
   0.04842807  0.11569999 -0.03681130       0.006
   0.04842807  0.10172005 -0.01704078       0.006
   0.04842807  0.08774011  0.00272974       0.006
   0.04842807  0.07376017  0.02250026       0.006
   0.07264211  0.05978023  0.04227078       0.006
   0.07264211  0.04580029  0.06204130       0.006
   0.07264211  0.03182035  0.08181182       0.006
   0.07264211  0.01784041  0.10158234       0.006
   0.07264211  0.00386047  0.12135286       0.006
   0.07264211 -0.01011948  0.14112338       0.006
   0.07264211  0.11569999 -0.03681130       0.006
   0.07264211  0.10172005 -0.01704078       0.006
   0.07264211  0.08774011  0.00272974       0.006
   0.07264211  0.07376017  0.02250026       0.006
   0.09685614  0.05978023  0.04227078       0.006
   0.09685614  0.04580029  0.06204130       0.006
   0.09685614  0.03182035  0.08181182       0.006
   0.09685614  0.01784041  0.10158234       0.006
   0.09685614  0.00386047  0.12135286       0.006
   0.09685614 -0.01011948  0.14112338       0.006
   0.09685614  0.11569999 -0.03681130       0.006
   0.09685614  0.10172005 -0.01704078       0.006
   0.09685614  0.08774011  0.00272974       0.006
   0.09685614  0.07376017  0.02250026       0.006
   0.12107018  0.05978023  0.04227078       0.003
   0.12107018  0.04580029  0.06204130       0.003
   0.12107018  0.03182035  0.08181182       0.003
   0.12107018  0.01784041  0.10158234       0.003
   0.12107018  0.00386047  0.12135286       0.003
   0.12107018 -0.01011948  0.14112338       0.003
   0.12107018  0.11569999 -0.03681130       0.003
   0.12107018  0.10172005 -0.01704078       0.003
   0.12107018  0.08774011  0.00272974       0.003
   0.12107018  0.07376017  0.02250026       0.003
 
 k-points in reciprocal lattice and weights: pymatgen v2019.10.16 with grid density =
   0.00000000  0.00000000  0.00000000       0.001
   0.10000000  0.00000000 -0.00000000       0.003
   0.20000000  0.00000000  0.00000000       0.003
   0.30000000  0.00000000 -0.00000000       0.003
   0.40000000  0.00000000  0.00000000       0.003
   0.50000000  0.00000000  0.00000000       0.001
   0.00000000  0.10000000  0.00000000       0.003
   0.10000000  0.10000000 -0.00000000       0.006
   0.20000000  0.10000000  0.00000000       0.006
   0.30000000  0.10000000 -0.00000000       0.006
   0.40000000  0.10000000  0.00000000       0.006
   0.50000000  0.10000000  0.00000000       0.003
   0.00000000  0.20000000  0.00000000       0.003
   0.10000000  0.20000000 -0.00000000       0.006
   0.20000000  0.20000000  0.00000000       0.006
   0.30000000  0.20000000 -0.00000000       0.006
   0.40000000  0.20000000  0.00000000       0.006
   0.50000000  0.20000000  0.00000000       0.003
   0.00000000  0.30000000  0.00000000       0.003
   0.10000000  0.30000000 -0.00000000       0.006
   0.20000000  0.30000000  0.00000000       0.006
   0.30000000  0.30000000 -0.00000000       0.006
   0.40000000  0.30000000  0.00000000       0.006
   0.50000000  0.30000000  0.00000000       0.003
   0.00000000  0.40000000  0.00000000       0.003
   0.10000000  0.40000000 -0.00000000       0.006
   0.20000000  0.40000000  0.00000000       0.006
   0.30000000  0.40000000 -0.00000000       0.006
   0.40000000  0.40000000  0.00000000       0.006
   0.50000000  0.40000000  0.00000000       0.003
   0.00000000  0.50000000  0.00000000       0.001
   0.10000000  0.50000000 -0.00000000       0.003
   0.20000000  0.50000000  0.00000000       0.003
   0.30000000  0.50000000 -0.00000000       0.003
   0.40000000  0.50000000  0.00000000       0.003
   0.50000000  0.50000000  0.00000000       0.001
   0.00000000  0.00000000  0.14285714       0.003
   0.10000000  0.00000000  0.14285714       0.003
   0.20000000  0.00000000  0.14285714       0.003
   0.30000000  0.00000000  0.14285714       0.003
   0.40000000  0.00000000  0.14285714       0.003
   0.50000000  0.00000000  0.14285714       0.003
  -0.40000000  0.00000000  0.14285714       0.003
  -0.30000000  0.00000000  0.14285714       0.003
  -0.20000000  0.00000000  0.14285714       0.003
  -0.10000000  0.00000000  0.14285714       0.003
   0.00000000  0.10000000  0.14285714       0.006
   0.10000000  0.10000000  0.14285714       0.006
   0.20000000  0.10000000  0.14285714       0.006
   0.30000000  0.10000000  0.14285714       0.006
   0.40000000  0.10000000  0.14285714       0.006
   0.50000000  0.10000000  0.14285714       0.006
  -0.40000000  0.10000000  0.14285714       0.006
  -0.30000000  0.10000000  0.14285714       0.006
  -0.20000000  0.10000000  0.14285714       0.006
  -0.10000000  0.10000000  0.14285714       0.006
   0.00000000  0.20000000  0.14285714       0.006
   0.10000000  0.20000000  0.14285714       0.006
   0.20000000  0.20000000  0.14285714       0.006
   0.30000000  0.20000000  0.14285714       0.006
   0.40000000  0.20000000  0.14285714       0.006
   0.50000000  0.20000000  0.14285714       0.006
  -0.40000000  0.20000000  0.14285714       0.006
  -0.30000000  0.20000000  0.14285714       0.006
  -0.20000000  0.20000000  0.14285714       0.006
  -0.10000000  0.20000000  0.14285714       0.006
   0.00000000  0.30000000  0.14285714       0.006
   0.10000000  0.30000000  0.14285714       0.006
   0.20000000  0.30000000  0.14285714       0.006
   0.30000000  0.30000000  0.14285714       0.006
   0.40000000  0.30000000  0.14285714       0.006
   0.50000000  0.30000000  0.14285714       0.006
  -0.40000000  0.30000000  0.14285714       0.006
  -0.30000000  0.30000000  0.14285714       0.006
  -0.20000000  0.30000000  0.14285714       0.006
  -0.10000000  0.30000000  0.14285714       0.006
   0.00000000  0.40000000  0.14285714       0.006
   0.10000000  0.40000000  0.14285714       0.006
   0.20000000  0.40000000  0.14285714       0.006
   0.30000000  0.40000000  0.14285714       0.006
   0.40000000  0.40000000  0.14285714       0.006
   0.50000000  0.40000000  0.14285714       0.006
  -0.40000000  0.40000000  0.14285714       0.006
  -0.30000000  0.40000000  0.14285714       0.006
  -0.20000000  0.40000000  0.14285714       0.006
  -0.10000000  0.40000000  0.14285714       0.006
   0.00000000  0.50000000  0.14285714       0.003
   0.10000000  0.50000000  0.14285714       0.003
   0.20000000  0.50000000  0.14285714       0.003
   0.30000000  0.50000000  0.14285714       0.003
   0.40000000  0.50000000  0.14285714       0.003
   0.50000000  0.50000000  0.14285714       0.003
  -0.40000000  0.50000000  0.14285714       0.003
  -0.30000000  0.50000000  0.14285714       0.003
  -0.20000000  0.50000000  0.14285714       0.003
  -0.10000000  0.50000000  0.14285714       0.003
   0.00000000  0.00000000  0.28571429       0.003
   0.10000000  0.00000000  0.28571429       0.003
   0.20000000  0.00000000  0.28571429       0.003
   0.30000000  0.00000000  0.28571429       0.003
   0.40000000  0.00000000  0.28571429       0.003
   0.50000000  0.00000000  0.28571429       0.003
  -0.40000000  0.00000000  0.28571429       0.003
  -0.30000000  0.00000000  0.28571429       0.003
  -0.20000000  0.00000000  0.28571429       0.003
  -0.10000000  0.00000000  0.28571429       0.003
   0.00000000  0.10000000  0.28571429       0.006
   0.10000000  0.10000000  0.28571429       0.006
   0.20000000  0.10000000  0.28571429       0.006
   0.30000000  0.10000000  0.28571429       0.006
   0.40000000  0.10000000  0.28571429       0.006
   0.50000000  0.10000000  0.28571429       0.006
  -0.40000000  0.10000000  0.28571429       0.006
  -0.30000000  0.10000000  0.28571429       0.006
  -0.20000000  0.10000000  0.28571429       0.006
  -0.10000000  0.10000000  0.28571429       0.006
   0.00000000  0.20000000  0.28571429       0.006
   0.10000000  0.20000000  0.28571429       0.006
   0.20000000  0.20000000  0.28571429       0.006
   0.30000000  0.20000000  0.28571429       0.006
   0.40000000  0.20000000  0.28571429       0.006
   0.50000000  0.20000000  0.28571429       0.006
  -0.40000000  0.20000000  0.28571429       0.006
  -0.30000000  0.20000000  0.28571429       0.006
  -0.20000000  0.20000000  0.28571429       0.006
  -0.10000000  0.20000000  0.28571429       0.006
   0.00000000  0.30000000  0.28571429       0.006
   0.10000000  0.30000000  0.28571429       0.006
   0.20000000  0.30000000  0.28571429       0.006
   0.30000000  0.30000000  0.28571429       0.006
   0.40000000  0.30000000  0.28571429       0.006
   0.50000000  0.30000000  0.28571429       0.006
  -0.40000000  0.30000000  0.28571429       0.006
  -0.30000000  0.30000000  0.28571429       0.006
  -0.20000000  0.30000000  0.28571429       0.006
  -0.10000000  0.30000000  0.28571429       0.006
   0.00000000  0.40000000  0.28571429       0.006
   0.10000000  0.40000000  0.28571429       0.006
   0.20000000  0.40000000  0.28571429       0.006
   0.30000000  0.40000000  0.28571429       0.006
   0.40000000  0.40000000  0.28571429       0.006
   0.50000000  0.40000000  0.28571429       0.006
  -0.40000000  0.40000000  0.28571429       0.006
  -0.30000000  0.40000000  0.28571429       0.006
  -0.20000000  0.40000000  0.28571429       0.006
  -0.10000000  0.40000000  0.28571429       0.006
   0.00000000  0.50000000  0.28571429       0.003
   0.10000000  0.50000000  0.28571429       0.003
   0.20000000  0.50000000  0.28571429       0.003
   0.30000000  0.50000000  0.28571429       0.003
   0.40000000  0.50000000  0.28571429       0.003
   0.50000000  0.50000000  0.28571429       0.003
  -0.40000000  0.50000000  0.28571429       0.003
  -0.30000000  0.50000000  0.28571429       0.003
  -0.20000000  0.50000000  0.28571429       0.003
  -0.10000000  0.50000000  0.28571429       0.003
   0.00000000  0.00000000  0.42857143       0.003
   0.10000000  0.00000000  0.42857143       0.003
   0.20000000  0.00000000  0.42857143       0.003
   0.30000000  0.00000000  0.42857143       0.003
   0.40000000  0.00000000  0.42857143       0.003
   0.50000000  0.00000000  0.42857143       0.003
  -0.40000000  0.00000000  0.42857143       0.003
  -0.30000000  0.00000000  0.42857143       0.003
  -0.20000000  0.00000000  0.42857143       0.003
  -0.10000000  0.00000000  0.42857143       0.003
   0.00000000  0.10000000  0.42857143       0.006
   0.10000000  0.10000000  0.42857143       0.006
   0.20000000  0.10000000  0.42857143       0.006
   0.30000000  0.10000000  0.42857143       0.006
   0.40000000  0.10000000  0.42857143       0.006
   0.50000000  0.10000000  0.42857143       0.006
  -0.40000000  0.10000000  0.42857143       0.006
  -0.30000000  0.10000000  0.42857143       0.006
  -0.20000000  0.10000000  0.42857143       0.006
  -0.10000000  0.10000000  0.42857143       0.006
   0.00000000  0.20000000  0.42857143       0.006
   0.10000000  0.20000000  0.42857143       0.006
   0.20000000  0.20000000  0.42857143       0.006
   0.30000000  0.20000000  0.42857143       0.006
   0.40000000  0.20000000  0.42857143       0.006
   0.50000000  0.20000000  0.42857143       0.006
  -0.40000000  0.20000000  0.42857143       0.006
  -0.30000000  0.20000000  0.42857143       0.006
  -0.20000000  0.20000000  0.42857143       0.006
  -0.10000000  0.20000000  0.42857143       0.006
   0.00000000  0.30000000  0.42857143       0.006
   0.10000000  0.30000000  0.42857143       0.006
   0.20000000  0.30000000  0.42857143       0.006
   0.30000000  0.30000000  0.42857143       0.006
   0.40000000  0.30000000  0.42857143       0.006
   0.50000000  0.30000000  0.42857143       0.006
  -0.40000000  0.30000000  0.42857143       0.006
  -0.30000000  0.30000000  0.42857143       0.006
  -0.20000000  0.30000000  0.42857143       0.006
  -0.10000000  0.30000000  0.42857143       0.006
   0.00000000  0.40000000  0.42857143       0.006
   0.10000000  0.40000000  0.42857143       0.006
   0.20000000  0.40000000  0.42857143       0.006
   0.30000000  0.40000000  0.42857143       0.006
   0.40000000  0.40000000  0.42857143       0.006
   0.50000000  0.40000000  0.42857143       0.006
  -0.40000000  0.40000000  0.42857143       0.006
  -0.30000000  0.40000000  0.42857143       0.006
  -0.20000000  0.40000000  0.42857143       0.006
  -0.10000000  0.40000000  0.42857143       0.006
   0.00000000  0.50000000  0.42857143       0.003
   0.10000000  0.50000000  0.42857143       0.003
   0.20000000  0.50000000  0.42857143       0.003
   0.30000000  0.50000000  0.42857143       0.003
   0.40000000  0.50000000  0.42857143       0.003
   0.50000000  0.50000000  0.42857143       0.003
  -0.40000000  0.50000000  0.42857143       0.003
  -0.30000000  0.50000000  0.42857143       0.003
  -0.20000000  0.50000000  0.42857143       0.003
  -0.10000000  0.50000000  0.42857143       0.003
 
 position of ions in fractional coordinates (direct lattice) 
   0.50000000  0.50000000  0.50000000
   0.00000000  0.00000000  0.00000000
   0.00000000  0.00000000  0.50000000
   0.50000000  0.50000000  0.00000000
 
 position of ions in cartesian coordinates  (Angst):
   2.06491810  1.19752150  3.37579784
   0.00000000  0.00000000  0.00000000
   0.00000000  2.38970566  1.68978577
   2.06491810 -1.19218416  1.68601206
 


--------------------------------------------------------------------------------------------------------


 k-point  1 :   0.0000 0.0000 0.0000  plane waves:    2725
 k-point  2 :   0.1000 0.0000-0.0000  plane waves:    2693
 k-point  3 :   0.2000 0.0000 0.0000  plane waves:    2703
 k-point  4 :   0.3000 0.0000-0.0000  plane waves:    2691
 k-point  5 :   0.4000 0.0000 0.0000  plane waves:    2684
 k-point  6 :   0.5000 0.0000 0.0000  plane waves:    2680
 k-point  7 :   0.0000 0.1000 0.0000  plane waves:    2693
 k-point  8 :   0.1000 0.1000-0.0000  plane waves:    2681
 k-point  9 :   0.2000 0.1000 0.0000  plane waves:    2688
 k-point 10 :   0.3000 0.1000-0.0000  plane waves:    2697
 k-point 11 :   0.4000 0.1000 0.0000  plane waves:    2687
 k-point 12 :   0.5000 0.1000 0.0000  plane waves:    2678
 k-point 13 :   0.0000 0.2000 0.0000  plane waves:    2703
 k-point 14 :   0.1000 0.2000-0.0000  plane waves:    2688
 k-point 15 :   0.2000 0.2000 0.0000  plane waves:    2689
 k-point 16 :   0.3000 0.2000-0.0000  plane waves:    2685
 k-point 17 :   0.4000 0.2000 0.0000  plane waves:    2681
 k-point 18 :   0.5000 0.2000 0.0000  plane waves:    2688
 k-point 19 :   0.0000 0.3000 0.0000  plane waves:    2691
 k-point 20 :   0.1000 0.3000-0.0000  plane waves:    2697
 k-point 21 :   0.2000 0.3000 0.0000  plane waves:    2685
 k-point 22 :   0.3000 0.3000-0.0000  plane waves:    2681
 k-point 23 :   0.4000 0.3000 0.0000  plane waves:    2673
 k-point 24 :   0.5000 0.3000 0.0000  plane waves:    2676
 k-point 25 :   0.0000 0.4000 0.0000  plane waves:    2684
 k-point 26 :   0.1000 0.4000-0.0000  plane waves:    2687
 k-point 27 :   0.2000 0.4000 0.0000  plane waves:    2681
 k-point 28 :   0.3000 0.4000-0.0000  plane waves:    2673
 k-point 29 :   0.4000 0.4000 0.0000  plane waves:    2685
 k-point 30 :   0.5000 0.4000 0.0000  plane waves:    2678
 k-point 31 :   0.0000 0.5000 0.0000  plane waves:    2680
 k-point 32 :   0.1000 0.5000-0.0000  plane waves:    2678
 k-point 33 :   0.2000 0.5000 0.0000  plane waves:    2688
 k-point 34 :   0.3000 0.5000-0.0000  plane waves:    2676
 k-point 35 :   0.4000 0.5000 0.0000  plane waves:    2678
 k-point 36 :   0.5000 0.5000 0.0000  plane waves:    2692
 k-point 37 :   0.0000 0.0000 0.1429  plane waves:    2698
 k-point 38 :   0.1000 0.0000 0.1429  plane waves:    2696
 k-point 39 :   0.2000 0.0000 0.1429  plane waves:    2680
 k-point 40 :   0.3000 0.0000 0.1429  plane waves:    2690
 k-point 41 :   0.4000 0.0000 0.1429  plane waves:    2684
 k-point 42 :   0.5000 0.0000 0.1429  plane waves:    2686
 k-point 43 :  -0.4000 0.0000 0.1429  plane waves:    2684
 k-point 44 :  -0.3000 0.0000 0.1429  plane waves:    2690
 k-point 45 :  -0.2000 0.0000 0.1429  plane waves:    2680
 k-point 46 :  -0.1000 0.0000 0.1429  plane waves:    2696
 k-point 47 :   0.0000 0.1000 0.1429  plane waves:    2696
 k-point 48 :   0.1000 0.1000 0.1429  plane waves:    2689
 k-point 49 :   0.2000 0.1000 0.1429  plane waves:    2684
 k-point 50 :   0.3000 0.1000 0.1429  plane waves:    2690
 k-point 51 :   0.4000 0.1000 0.1429  plane waves:    2687
 k-point 52 :   0.5000 0.1000 0.1429  plane waves:    2684
 k-point 53 :  -0.4000 0.1000 0.1429  plane waves:    2687
 k-point 54 :  -0.3000 0.1000 0.1429  plane waves:    2689
 k-point 55 :  -0.2000 0.1000 0.1429  plane waves:    2684
 k-point 56 :  -0.1000 0.1000 0.1429  plane waves:    2689
 k-point 57 :   0.0000 0.2000 0.1429  plane waves:    2680
 k-point 58 :   0.1000 0.2000 0.1429  plane waves:    2684
 k-point 59 :   0.2000 0.2000 0.1429  plane waves:    2686
 k-point 60 :   0.3000 0.2000 0.1429  plane waves:    2685
 k-point 61 :   0.4000 0.2000 0.1429  plane waves:    2680
 k-point 62 :   0.5000 0.2000 0.1429  plane waves:    2686
 k-point 63 :  -0.4000 0.2000 0.1429  plane waves:    2680
 k-point 64 :  -0.3000 0.2000 0.1429  plane waves:    2685
 k-point 65 :  -0.2000 0.2000 0.1429  plane waves:    2686
 k-point 66 :  -0.1000 0.2000 0.1429  plane waves:    2684
 k-point 67 :   0.0000 0.3000 0.1429  plane waves:    2690
 k-point 68 :   0.1000 0.3000 0.1429  plane waves:    2690
 k-point 69 :   0.2000 0.3000 0.1429  plane waves:    2685
 k-point 70 :   0.3000 0.3000 0.1429  plane waves:    2694
 k-point 71 :   0.4000 0.3000 0.1429  plane waves:    2679
 k-point 72 :   0.5000 0.3000 0.1429  plane waves:    2676
 k-point 73 :  -0.4000 0.3000 0.1429  plane waves:    2679
 k-point 74 :  -0.3000 0.3000 0.1429  plane waves:    2694
 k-point 75 :  -0.2000 0.3000 0.1429  plane waves:    2685
 k-point 76 :  -0.1000 0.3000 0.1429  plane waves:    2690
 k-point 77 :   0.0000 0.4000 0.1429  plane waves:    2684
 k-point 78 :   0.1000 0.4000 0.1429  plane waves:    2687
 k-point 79 :   0.2000 0.4000 0.1429  plane waves:    2680
 k-point 80 :   0.3000 0.4000 0.1429  plane waves:    2679
 k-point 81 :   0.4000 0.4000 0.1429  plane waves:    2680
 k-point 82 :   0.5000 0.4000 0.1429  plane waves:    2682
 k-point 83 :  -0.4000 0.4000 0.1429  plane waves:    2680
 k-point 84 :  -0.3000 0.4000 0.1429  plane waves:    2679
 k-point 85 :  -0.2000 0.4000 0.1429  plane waves:    2680
 k-point 86 :  -0.1000 0.4000 0.1429  plane waves:    2687
 k-point 87 :   0.0000 0.5000 0.1429  plane waves:    2686
 k-point 88 :   0.1000 0.5000 0.1429  plane waves:    2684
 k-point 89 :   0.2000 0.5000 0.1429  plane waves:    2686
 k-point 90 :   0.3000 0.5000 0.1429  plane waves:    2676
 k-point 91 :   0.4000 0.5000 0.1429  plane waves:    2682
 k-point 92 :   0.5000 0.5000 0.1429  plane waves:    2672
 k-point 93 :  -0.4000 0.5000 0.1429  plane waves:    2682
 k-point 94 :  -0.3000 0.5000 0.1429  plane waves:    2676
 k-point 95 :  -0.2000 0.5000 0.1429  plane waves:    2686
 k-point 96 :  -0.1000 0.5000 0.1429  plane waves:    2684
 k-point 97 :   0.0000 0.0000 0.2857  plane waves:    2690
 k-point 98 :   0.1000 0.0000 0.2857  plane waves:    2687
 k-point 99 :   0.2000 0.0000 0.2857  plane waves:    2693
 k-point ** :   0.3000 0.0000 0.2857  plane waves:    2703
 k-point ** :   0.4000 0.0000 0.2857  plane waves:    2697
 k-point ** :   0.5000 0.0000 0.2857  plane waves:    2706
 k-point ** :  -0.4000 0.0000 0.2857  plane waves:    2697
 k-point ** :  -0.3000 0.0000 0.2857  plane waves:    2703
 k-point ** :  -0.2000 0.0000 0.2857  plane waves:    2693
 k-point ** :  -0.1000 0.0000 0.2857  plane waves:    2687
 k-point ** :   0.0000 0.1000 0.2857  plane waves:    2687
 k-point ** :   0.1000 0.1000 0.2857  plane waves:    2689
 k-point ** :   0.2000 0.1000 0.2857  plane waves:    2698
 k-point ** :   0.3000 0.1000 0.2857  plane waves:    2697
 k-point ** :   0.4000 0.1000 0.2857  plane waves:    2691
 k-point ** :   0.5000 0.1000 0.2857  plane waves:    2700
 k-point ** :  -0.4000 0.1000 0.2857  plane waves:    2691
 k-point ** :  -0.3000 0.1000 0.2857  plane waves:    2697
 k-point ** :  -0.2000 0.1000 0.2857  plane waves:    2698
 k-point ** :  -0.1000 0.1000 0.2857  plane waves:    2689
 k-point ** :   0.0000 0.2000 0.2857  plane waves:    2693
 k-point ** :   0.1000 0.2000 0.2857  plane waves:    2698
 k-point ** :   0.2000 0.2000 0.2857  plane waves:    2698
 k-point ** :   0.3000 0.2000 0.2857  plane waves:    2687
 k-point ** :   0.4000 0.2000 0.2857  plane waves:    2687
 k-point ** :   0.5000 0.2000 0.2857  plane waves:    2692
 k-point ** :  -0.4000 0.2000 0.2857  plane waves:    2687
 k-point ** :  -0.3000 0.2000 0.2857  plane waves:    2687
 k-point ** :  -0.2000 0.2000 0.2857  plane waves:    2698
 k-point ** :  -0.1000 0.2000 0.2857  plane waves:    2698
 k-point ** :   0.0000 0.3000 0.2857  plane waves:    2703
 k-point ** :   0.1000 0.3000 0.2857  plane waves:    2697
 k-point ** :   0.2000 0.3000 0.2857  plane waves:    2687
 k-point ** :   0.3000 0.3000 0.2857  plane waves:    2681
 k-point ** :   0.4000 0.3000 0.2857  plane waves:    2680
 k-point ** :   0.5000 0.3000 0.2857  plane waves:    2682
 k-point ** :  -0.4000 0.3000 0.2857  plane waves:    2680
 k-point ** :  -0.3000 0.3000 0.2857  plane waves:    2681
 k-point ** :  -0.2000 0.3000 0.2857  plane waves:    2687
 k-point ** :  -0.1000 0.3000 0.2857  plane waves:    2697
 k-point ** :   0.0000 0.4000 0.2857  plane waves:    2697
 k-point ** :   0.1000 0.4000 0.2857  plane waves:    2691
 k-point ** :   0.2000 0.4000 0.2857  plane waves:    2687
 k-point ** :   0.3000 0.4000 0.2857  plane waves:    2680
 k-point ** :   0.4000 0.4000 0.2857  plane waves:    2681
 k-point ** :   0.5000 0.4000 0.2857  plane waves:    2678
 k-point ** :  -0.4000 0.4000 0.2857  plane waves:    2681
 k-point ** :  -0.3000 0.4000 0.2857  plane waves:    2680
 k-point ** :  -0.2000 0.4000 0.2857  plane waves:    2687
 k-point ** :  -0.1000 0.4000 0.2857  plane waves:    2691
 k-point ** :   0.0000 0.5000 0.2857  plane waves:    2706
 k-point ** :   0.1000 0.5000 0.2857  plane waves:    2700
 k-point ** :   0.2000 0.5000 0.2857  plane waves:    2692
 k-point ** :   0.3000 0.5000 0.2857  plane waves:    2682
 k-point ** :   0.4000 0.5000 0.2857  plane waves:    2678
 k-point ** :   0.5000 0.5000 0.2857  plane waves:    2692
 k-point ** :  -0.4000 0.5000 0.2857  plane waves:    2678
 k-point ** :  -0.3000 0.5000 0.2857  plane waves:    2682
 k-point ** :  -0.2000 0.5000 0.2857  plane waves:    2692
 k-point ** :  -0.1000 0.5000 0.2857  plane waves:    2700
 k-point ** :   0.0000 0.0000 0.4286  plane waves:    2678
 k-point ** :   0.1000 0.0000 0.4286  plane waves:    2682
 k-point ** :   0.2000 0.0000 0.4286  plane waves:    2688
 k-point ** :   0.3000 0.0000 0.4286  plane waves:    2695
 k-point ** :   0.4000 0.0000 0.4286  plane waves:    2703
 k-point ** :   0.5000 0.0000 0.4286  plane waves:    2716
 k-point ** :  -0.4000 0.0000 0.4286  plane waves:    2703
 k-point ** :  -0.3000 0.0000 0.4286  plane waves:    2695
 k-point ** :  -0.2000 0.0000 0.4286  plane waves:    2688
 k-point ** :  -0.1000 0.0000 0.4286  plane waves:    2682
 k-point ** :   0.0000 0.1000 0.4286  plane waves:    2682
 k-point ** :   0.1000 0.1000 0.4286  plane waves:    2690
 k-point ** :   0.2000 0.1000 0.4286  plane waves:    2696
 k-point ** :   0.3000 0.1000 0.4286  plane waves:    2690
 k-point ** :   0.4000 0.1000 0.4286  plane waves:    2694
 k-point ** :   0.5000 0.1000 0.4286  plane waves:    2706
 k-point ** :  -0.4000 0.1000 0.4286  plane waves:    2694
 k-point ** :  -0.3000 0.1000 0.4286  plane waves:    2690
 k-point ** :  -0.2000 0.1000 0.4286  plane waves:    2696
 k-point ** :  -0.1000 0.1000 0.4286  plane waves:    2690
 k-point ** :   0.0000 0.2000 0.4286  plane waves:    2688
 k-point ** :   0.1000 0.2000 0.4286  plane waves:    2696
 k-point ** :   0.2000 0.2000 0.4286  plane waves:    2682
 k-point ** :   0.3000 0.2000 0.4286  plane waves:    2688
 k-point ** :   0.4000 0.2000 0.4286  plane waves:    2691
 k-point ** :   0.5000 0.2000 0.4286  plane waves:    2694
 k-point ** :  -0.4000 0.2000 0.4286  plane waves:    2691
 k-point ** :  -0.3000 0.2000 0.4286  plane waves:    2688
 k-point ** :  -0.2000 0.2000 0.4286  plane waves:    2682
 k-point ** :  -0.1000 0.2000 0.4286  plane waves:    2696
 k-point ** :   0.0000 0.3000 0.4286  plane waves:    2695
 k-point ** :   0.1000 0.3000 0.4286  plane waves:    2690
 k-point ** :   0.2000 0.3000 0.4286  plane waves:    2688
 k-point ** :   0.3000 0.3000 0.4286  plane waves:    2677
 k-point ** :   0.4000 0.3000 0.4286  plane waves:    2683
 k-point ** :   0.5000 0.3000 0.4286  plane waves:    2684
 k-point ** :  -0.4000 0.3000 0.4286  plane waves:    2683
 k-point ** :  -0.3000 0.3000 0.4286  plane waves:    2677
 k-point ** :  -0.2000 0.3000 0.4286  plane waves:    2688
 k-point ** :  -0.1000 0.3000 0.4286  plane waves:    2690
 k-point ** :   0.0000 0.4000 0.4286  plane waves:    2703
 k-point ** :   0.1000 0.4000 0.4286  plane waves:    2694
 k-point ** :   0.2000 0.4000 0.4286  plane waves:    2691
 k-point ** :   0.3000 0.4000 0.4286  plane waves:    2683
 k-point ** :   0.4000 0.4000 0.4286  plane waves:    2689
 k-point ** :   0.5000 0.4000 0.4286  plane waves:    2686
 k-point ** :  -0.4000 0.4000 0.4286  plane waves:    2689
 k-point ** :  -0.3000 0.4000 0.4286  plane waves:    2683
 k-point ** :  -0.2000 0.4000 0.4286  plane waves:    2691
 k-point ** :  -0.1000 0.4000 0.4286  plane waves:    2694
 k-point ** :   0.0000 0.5000 0.4286  plane waves:    2716
 k-point ** :   0.1000 0.5000 0.4286  plane waves:    2706
 k-point ** :   0.2000 0.5000 0.4286  plane waves:    2694
 k-point ** :   0.3000 0.5000 0.4286  plane waves:    2684
 k-point ** :   0.4000 0.5000 0.4286  plane waves:    2686
 k-point ** :   0.5000 0.5000 0.4286  plane waves:    2692
 k-point ** :  -0.4000 0.5000 0.4286  plane waves:    2686
 k-point ** :  -0.3000 0.5000 0.4286  plane waves:    2684
 k-point ** :  -0.2000 0.5000 0.4286  plane waves:    2694
 k-point ** :  -0.1000 0.5000 0.4286  plane waves:    2706

 maximum and minimum number of plane-waves per node :       690      654

 maximum number of plane-waves:      2725
 maximum index in each direction: 
   IXMAX=    8   IYMAX=    7   IZMAX=   10
   IXMIN=   -8   IYMIN=   -8   IZMIN=  -11


 real space projection operators:
  total allocation   :       4744.38 KBytes
  max/ min on nodes  :       1192.62       1179.50


 parallel 3D FFT for wavefunctions:
    minimum data exchange during FFTs selected (reduces bandwidth)
 parallel 3D FFT for charge:
    minimum data exchange during FFTs selected (reduces bandwidth)


[...]
  0.000  -0.000   0.004 -17.516  -0.000  -0.005   7.793  -0.000
 -0.000   0.000  -0.000  -0.000 -17.519  -0.000  -0.000   7.796
  0.000   0.000   7.789  -0.005  -0.000   5.134   0.005   0.000
  0.000   0.000  -0.005   7.793  -0.000   0.005   5.131   0.000
 -0.000  -0.000  -0.000  -0.000   7.796   0.000   0.000   5.128
 -0.000   0.000  -0.000   0.000   0.000  -0.000   0.000   0.000
  0.002   0.000   0.000   0.000   0.000   0.000   0.000   0.000
 -0.000  -0.000  -0.000   0.000   0.000  -0.000   0.000   0.000
 -0.000   0.000   0.000  -0.000   0.000   0.000  -0.000   0.000
 -0.002  -0.000  -0.000  -0.000   0.000  -0.000  -0.000  -0.000
  0.000  -0.000  -0.000   0.000   0.000   0.000  -0.000  -0.000
 -0.004  -0.000   0.000   0.000   0.000  -0.000  -0.000  -0.000
  0.000   0.000  -0.000  -0.000   0.000   0.000  -0.000  -0.000
  0.000  -0.000   0.000  -0.000   0.000  -0.000   0.000  -0.000
  0.003   0.000  -0.000  -0.000  -0.000   0.000   0.000   0.000
  0.000  -0.000  -0.001  -0.010   0.000   0.002   0.007  -0.000
 -0.000   0.000   0.000   0.000  -0.011  -0.000  -0.000   0.007
 -0.000   0.000   0.006   0.001  -0.000  -0.004  -0.002   0.000
  0.000  -0.000  -0.001  -0.009  -0.000   0.001   0.006   0.000
 -0.000   0.000  -0.000   0.000   0.005   0.000  -0.000  -0.004
  0.000  -0.000  -0.014  -0.002   0.000   0.010   0.002  -0.000
  0.000  -0.000  -0.000  -0.000   0.000   0.000   0.000   0.001
  0.000  -0.000  -0.001  -0.010   0.000   0.001   0.007  -0.000
 -0.000   0.000   0.000   0.000  -0.011  -0.000  -0.000   0.007
 -0.000   0.000   0.006   0.001  -0.000  -0.004  -0.002   0.000
  0.000  -0.000  -0.001  -0.009  -0.000   0.001   0.006   0.000
 -0.000   0.000  -0.000   0.000   0.005   0.000  -0.000  -0.003
  0.000  -0.000  -0.013  -0.002   0.000   0.010   0.002  -0.000
  0.000  -0.000  -0.000  -0.000   0.000   0.000   0.000   0.001
 pseudopotential strength for first ion, spin component:           2
 -8.476  -4.186   0.000   0.000  -0.000   0.000   0.000  -0.000
 -4.186  -0.253  -0.000  -0.000   0.000   0.000   0.000  -0.000
  0.000  -0.000 -15.623   0.005  -0.000   7.407  -0.004  -0.000
  0.000  -0.000   0.005 -15.626  -0.000  -0.004   7.410  -0.000
 -0.000   0.000  -0.000  -0.000 -15.629  -0.000  -0.000   7.413
  0.000   0.000   7.407  -0.004  -0.000   4.899   0.003   0.000
  0.000   0.000  -0.004   7.410  -0.000   0.003   4.896   0.000
 -0.000  -0.000  -0.000  -0.000   7.413   0.000   0.000   4.894
 -0.000   0.000  -0.000  -0.000   0.000  -0.000   0.000   0.000
  0.004  -0.000   0.000   0.000  -0.000   0.000   0.000   0.000
 -0.000  -0.000  -0.000   0.000   0.000  -0.000   0.000   0.000
 -0.000   0.000  -0.000  -0.000   0.000   0.000  -0.000   0.000
 -0.003   0.000  -0.000  -0.000  -0.000  -0.000  -0.000  -0.000
  0.000  -0.000  -0.000   0.000   0.000   0.000  -0.000  -0.000
 -0.006   0.001  -0.000   0.000   0.000  -0.000  -0.000  -0.000
  0.000   0.000  -0.000  -0.000   0.000   0.000  -0.000  -0.000
  0.000  -0.000   0.000  -0.000  -0.000  -0.000   0.000  -0.000
  0.004  -0.000  -0.000  -0.000  -0.000   0.000   0.000   0.000
  0.000  -0.000  -0.000  -0.000   0.000   0.001  -0.001  -0.000
 -0.000   0.000   0.000   0.000   0.001  -0.000  -0.000  -0.002
 -0.000   0.000  -0.000   0.001  -0.000   0.001  -0.001   0.000
  0.000  -0.000  -0.001  -0.000  -0.000   0.001  -0.001   0.000
 -0.000   0.000  -0.000   0.000   0.001   0.000  -0.000   0.000
  0.000  -0.000  -0.001  -0.000   0.000  -0.001   0.000  -0.000
  0.000  -0.000  -0.000   0.000  -0.001   0.000  -0.000   0.001
  0.000  -0.000  -0.001  -0.000   0.000   0.001  -0.001  -0.000
 -0.000   0.000   0.000   0.000   0.001  -0.000  -0.000  -0.002
 -0.000   0.000  -0.000   0.001  -0.000   0.001  -0.001   0.000
  0.000  -0.000  -0.001  -0.000  -0.000   0.001  -0.001   0.000
 -0.000   0.000  -0.000   0.000   0.001   0.000  -0.000   0.000
  0.000  -0.000  -0.001  -0.000   0.000  -0.001   0.000  -0.000
  0.000  -0.000  -0.000   0.000  -0.001   0.000  -0.000   0.001
 total augmentation occupancy for first ion, spin component:           1
  1.995  -0.027   0.000   0.000   0.000   0.000   0.000   0.000   0.000  -0.000   0.000   0.000   0.000   0.000   0.000   0.000
 -0.027   0.575   0.000   0.000   0.000   0.000   0.000   0.000   0.000  -0.001  -0.000   0.000   0.001   0.000  -0.000  -0.000
  0.000   0.000   2.011  -0.000   0.000  -0.015   0.000   0.000   0.000   0.000   0.000   0.000   0.000   0.000   0.000   0.000
  0.000   0.000  -0.000   2.011   0.000   0.000  -0.016   0.000   0.000   0.000   0.000   0.000   0.000   0.000   0.000   0.000
  0.000   0.000   0.000   0.000   2.011   0.000   0.000  -0.016   0.000   0.000   0.000   0.000   0.000   0.000   0.000   0.000
  0.000   0.000  -0.015   0.000   0.000   0.017  -0.000   0.000   0.000   0.000   0.000   0.000   0.000   0.000   0.000   0.000
  0.000   0.000   0.000  -0.016   0.000  -0.000   0.017   0.000   0.000   0.000   0.000   0.000   0.000   0.000   0.000   0.000
  0.000   0.000   0.000   0.000  -0.016   0.000   0.000   0.017   0.000   0.000   0.000   0.000   0.000   0.000   0.000   0.000
  0.000   0.000   0.000   0.000   0.000   0.000   0.000   0.000   0.174   0.000   0.000  -0.095   0.000   0.045   0.000   0.000
 -0.000  -0.001   0.000   0.000   0.000   0.000   0.000   0.000   0.000   0.241  -0.004   0.000  -0.087   0.000   0.065  -0.001
  0.000  -0.000   0.000   0.000   0.000   0.000   0.000   0.000   0.000  -0.004   0.112   0.000  -0.006   0.000  -0.001   0.026
  0.000   0.000   0.000   0.000   0.000   0.000   0.000   0.000  -0.095   0.000   0.000   0.241   0.000  -0.028   0.000   0.000
  0.000   0.001   0.000   0.000   0.000   0.000   0.000   0.000   0.000  -0.087  -0.006   0.000   0.179   0.000  -0.027  -0.001
  0.000   0.000   0.000   0.000   0.000   0.000   0.000   0.000   0.045   0.000   0.000  -0.028   0.000   0.012   0.000   0.000
  0.000  -0.000   0.000   0.000   0.000   0.000   0.000   0.000   0.000   0.065  -0.001   0.000  -0.027   0.000   0.018  -0.000
  0.000  -0.000   0.000   0.000   0.000   0.000   0.000   0.000   0.000  -0.001   0.026   0.000  -0.001   0.000  -0.000   0.006
  0.000   0.000   0.000   0.000   0.000   0.000   0.000   0.000  -0.028   0.000   0.000   0.065   0.000  -0.009   0.000   0.000
 -0.000   0.000   0.000   0.000   0.000   0.000   0.000   0.000   0.000  -0.027  -0.001   0.000   0.046   0.000  -0.008  -0.000
  0.000   0.000  -0.000  -0.050   0.000  -0.000   0.055   0.000   0.000   0.000   0.000   0.000   0.000   0.000   0.000   0.000
  0.000   0.000   0.000   0.000  -0.061   0.000   0.000   0.068   0.000   0.000   0.000   0.000   0.000   0.000   0.000   0.000
  0.000   0.000   0.028  -0.001   0.000  -0.031   0.001   0.000   0.000   0.000   0.000   0.000   0.000   0.000   0.000   0.000
  0.000   0.000  -0.000  -0.045   0.000  -0.000   0.050   0.000   0.000   0.000   0.000   0.000   0.000   0.000   0.000   0.000
  0.000   0.000   0.000   0.000   0.027   0.000   0.000  -0.030   0.000   0.000   0.000   0.000   0.000   0.000   0.000   0.000
  0.000   0.000  -0.062  -0.000   0.000   0.067  -0.000   0.000   0.000   0.000   0.000   0.000   0.000   0.000   0.000   0.000
  0.000   0.000   0.000   0.000   0.001   0.000   0.000  -0.001   0.000   0.000   0.000   0.000   0.000   0.000   0.000   0.000
  0.000   0.000   0.000   0.053   0.000   0.000  -0.055   0.000   0.000   0.000   0.000   0.000   0.000   0.000   0.000   0.000
  0.000   0.000   0.000   0.000   0.065   0.000   0.000  -0.067   0.000   0.000   0.000   0.000   0.000   0.000   0.000   0.000
  0.000   0.000  -0.029   0.000   0.000   0.030  -0.001   0.000   0.000   0.000   0.000   0.000   0.000   0.000   0.000   0.000
  0.000   0.000   0.000   0.047   0.000   0.000  -0.049   0.000   0.000   0.000   0.000   0.000   0.000   0.000   0.000   0.000
  0.000   0.000   0.000   0.000  -0.028   0.000   0.000   0.030   0.000   0.000   0.000   0.000   0.000   0.000   0.000   0.000
  0.000   0.000   0.064   0.000   0.000  -0.066   0.000   0.000   0.000   0.000   0.000   0.000   0.000   0.000   0.000   0.000
  0.000   0.000   0.000   0.000  -0.001   0.000   0.000   0.000   0.000   0.000   0.000   0.000   0.000   0.000   0.000   0.000
 total augmentation occupancy for first ion, spin component:           2
  0.042   0.161   0.000   0.000   0.000   0.000   0.000   0.000   0.000  -0.000   0.000   0.000   0.000   0.000  -0.000  -0.000
  0.161  -0.122   0.000   0.000   0.000   0.000   0.000   0.000   0.000  -0.000  -0.000   0.000   0.000   0.000   0.000  -0.000
  0.000   0.000   0.008   0.000   0.000   0.044   0.000   0.000   0.000   0.000   0.000   0.000   0.000   0.000   0.000   0.000
  0.000   0.000   0.000   0.008   0.000   0.000   0.044   0.000   0.000   0.000   0.000   0.000   0.000   0.000   0.000   0.000
  0.000   0.000   0.000   0.000   0.008   0.000   0.000   0.044   0.000   0.000   0.000   0.000   0.000   0.000   0.000   0.000
  0.000   0.000   0.044   0.000   0.000  -0.002   0.000   0.000   0.000   0.000   0.000   0.000   0.000   0.000   0.000   0.000
  0.000   0.000   0.000   0.044   0.000   0.000  -0.002   0.000   0.000   0.000   0.000   0.000   0.000   0.000   0.000   0.000
  0.000   0.000   0.000   0.000   0.044   0.000   0.000  -0.002   0.000   0.000   0.000   0.000   0.000   0.000   0.000   0.000
  0.000   0.000   0.000   0.000   0.000   0.000   0.000   0.000  -0.027   0.000   0.000   0.014   0.000  -0.007   0.000   0.000
 -0.000  -0.000   0.000   0.000   0.000   0.000   0.000   0.000   0.000  -0.040   0.008   0.000   0.001   0.000  -0.010   0.001
  0.000  -0.000   0.000   0.000   0.000   0.000   0.000   0.000   0.000   0.008  -0.027   0.000   0.012   0.000   0.001  -0.006
  0.000   0.000   0.000   0.000   0.000   0.000   0.000   0.000   0.014   0.000   0.000  -0.037   0.000   0.004   0.000   0.000
  0.000   0.000   0.000   0.000   0.000   0.000   0.000   0.000   0.000   0.001   0.012   0.000  -0.039   0.000   0.002   0.002
  0.000   0.000   0.000   0.000   0.000   0.000   0.000   0.000  -0.007   0.000   0.000   0.004   0.000  -0.002   0.000   0.000
 -0.000   0.000   0.000   0.000   0.000   0.000   0.000   0.000   0.000  -0.010   0.001   0.000   0.002   0.000  -0.003   0.000
 -0.000  -0.000   0.000   0.000   0.000   0.000   0.000   0.000   0.000   0.001  -0.006   0.000   0.002   0.000   0.000  -0.001
  0.000   0.000   0.000   0.000   0.000   0.000   0.000   0.000   0.004   0.000   0.000  -0.010   0.000   0.001   0.000   0.000
  0.000  -0.000   0.000   0.000   0.000   0.000   0.000   0.000   0.000   0.002   0.002   0.000  -0.009   0.000   0.001   0.000
  0.000   0.000   0.001   0.006   0.000  -0.001  -0.011   0.000   0.000   0.000   0.000   0.000   0.000   0.000   0.000   0.000
  0.000   0.000   0.000   0.000   0.006   0.000   0.000  -0.013   0.000   0.000   0.000   0.000   0.000   0.000   0.000   0.000
  0.000   0.000  -0.003  -0.002   0.000   0.007  -0.001   0.000   0.000   0.000   0.000   0.000   0.000   0.000   0.000   0.000
  0.000   0.000   0.001   0.006   0.000  -0.000  -0.010   0.000   0.000   0.000   0.000   0.000   0.000   0.000   0.000   0.000
  0.000   0.000   0.000   0.000  -0.004   0.000   0.000   0.005   0.000   0.000   0.000   0.000   0.000   0.000   0.000   0.000
  0.000   0.000   0.009   0.000   0.000  -0.013  -0.001   0.000   0.000   0.000   0.000   0.000   0.000   0.000   0.000   0.000
  0.000   0.000   0.000   0.000   0.001   0.000   0.000   0.002   0.000   0.000   0.000   0.000   0.000   0.000   0.000   0.000
  0.000   0.000  -0.001   0.000   0.000   0.000   0.004   0.000   0.000   0.000   0.000   0.000   0.000   0.000   0.000   0.000
  0.000   0.000   0.000   0.000   0.002   0.000   0.000   0.005   0.000   0.000   0.000   0.000   0.000   0.000   0.000   0.000
  0.000   0.000  -0.001   0.002   0.000  -0.003   0.001   0.000   0.000   0.000   0.000   0.000   0.000   0.000   0.000   0.000
  0.000   0.000  -0.001   0.000   0.000   0.000   0.004   0.000   0.000   0.000   0.000   0.000   0.000   0.000   0.000   0.000
  0.000   0.000   0.000   0.000   0.001   0.000   0.000  -0.001   0.000   0.000   0.000   0.000   0.000   0.000   0.000   0.000
  0.000   0.000  -0.000  -0.000   0.000   0.005   0.001   0.000   0.000   0.000   0.000   0.000   0.000   0.000   0.000   0.000
  0.000   0.000   0.000   0.000  -0.002   0.000   0.000  -0.001   0.000   0.000   0.000   0.000   0.000   0.000   0.000   0.000


------------------------ aborting loop because EDIFF is reached ----------------------------------------


 


 total charge     
 
# of ion       s       p       d       f       tot
--------------------------------------------------
    1        2.080   5.876   0.497   6.730  15.183
    2        2.080   5.876   0.497   6.730  15.183
    3        1.317   2.451   0.000   0.000   3.768
    4        1.317   2.451   0.000   0.000   3.768
--------------------------------------------------
tot          6.794  16.653   0.994  13.460  37.901

 


 magnetization (x)
 
# of ion       s       p       d       f       tot
--------------------------------------------------
    1        0.007   0.013  -0.090  -6.669  -6.739
    2       -0.007  -0.013   0.090   6.669   6.739
    3        0.003   0.025   0.000   0.000   0.028
    4       -0.003  -0.025   0.000   0.000  -0.028
--------------------------------------------------
tot          0.000  -0.000  -0.000   0.000   0.000

 
    CHARGE:  cpu time    0.8199: real time    0.8220
    FORLOC:  cpu time    0.0023: real time    0.0023
    FORNL :  cpu time    3.8687: real time    3.8785
    STRESS:  cpu time   11.4200: real time   11.4487
    FORCOR:  cpu time    0.0550: real time    0.0552
    FORHAR:  cpu time    0.0068: real time    0.0068
    MIXING:  cpu time    0.0024: real time    0.0024
    OFIELD:  cpu time    0.0000: real time    0.0000

  FORCE on cell =-STRESS in cart. coord.  units (eV):
  Direction    XX          YY          ZZ          XY          YZ          ZX
  --------------------------------------------------------------------------------------
  Alpha Z   299.45696   299.45696   299.45696
  Ewald   -1404.04539 -1408.46080 -1406.25245    -0.00000    -3.12233     0.00000
  Hartree   513.33965   510.73400   512.03494    -0.00000    -1.84374    -0.00000
  E(xc)    -226.32446  -226.34548  -226.33496     0.00000    -0.01487    -0.00000
  Local     246.90062   253.96785   250.43748    -0.00000     5.00025    -0.00000
  n-local   -30.61954   -30.56038   -30.58983     0.22011     0.04191    -0.38938
  augment    49.65136    49.85344    49.75215    -0.00000     0.14264    -0.00000
  Kinetic   551.98965   551.75973   551.87145     0.40824    -0.16455    -0.14432
  Fock        0.00000     0.00000     0.00000     0.00000     0.00000     0.00000
  -------------------------------------------------------------------------------------
  Total       0.34885     0.40533     0.37573     0.00000     0.03930     0.00000
  in kB       5.59840     6.50480     6.02977     0.00000     0.63064     0.00000
  external pressure =        6.04 kB  Pullay stress =        0.00 kB


 VOLUME and BASIS-vectors are now :
 -----------------------------------------------------------------------------
  energy-cutoff  :      520.00
  volume of cell :       99.84
      direct lattice vectors                 reciprocal lattice vectors
     0.000000000 -2.384368324  3.372024123     0.000000000 -0.139799410  0.197705204
     4.129836203  0.000000000  0.000000000     0.242140354  0.000000000  0.000000000
     0.000000000  4.779411319  3.379571548     0.000000000  0.139487203  0.098631818

  length of vectors
     4.129861861  4.129836203  5.853569544     0.242138850  0.242140354  0.170835931


 FORCES acting on ions
    electron-ion (+dipol)            ewald-force                    non-local-force                 convergence-correction
 -----------------------------------------------------------------------------------------------
   0.103E-11 -.157E-11 -.786E-12   0.198E-14 0.234E-13 0.652E-14   0.000E+00 0.165E-22 -.116E-22   -.312E-13 0.742E-13 0.276E-13
   -.930E-14 -.306E-13 -.227E-13   -.182E-15 -.339E-14 -.494E-14   0.000E+00 0.000E+00 0.000E+00   -.419E-13 -.114E-12 -.108E-12
   0.140E-14 0.396E-14 -.169E-15   -.421E-14 -.164E-14 0.267E-14   0.000E+00 0.000E+00 -.265E-22   0.120E-14 0.548E-13 0.283E-13
   -.353E-12 0.900E-13 0.888E-13   -.239E-14 -.155E-13 -.460E-14   0.000E+00 0.000E+00 0.000E+00   0.136E-14 -.261E-13 -.256E-13
 -----------------------------------------------------------------------------------------------
   0.668E-12 -.151E-11 -.720E-12   -.481E-14 0.290E-14 -.356E-15   0.000E+00 0.165E-22 -.381E-22   -.706E-13 -.116E-13 -.773E-13
 
 
 POSITION                                       TOTAL-FORCE (eV/Angst)
 -----------------------------------------------------------------------------------
      2.06492      1.19752      3.37580         0.000000      0.000000      0.000000
      0.00000      0.00000      0.00000         0.000000      0.000000      0.000000
      0.00000      2.38971      1.68979         0.000000      0.000000      0.000000
      2.06492     -1.19218      1.68601         0.000000      0.000000      0.000000
 -----------------------------------------------------------------------------------
    total drift:                                0.000000     -0.000000     -0.000000


--------------------------------------------------------------------------------------------------------



  FREE ENERGIE OF THE ION-ELECTRON SYSTEM (eV)
  ---------------------------------------------------
  free  energy   TOTEN  =       -37.46861534 eV

  energy  without entropy=      -37.46861534  energy(sigma->0) =      -37.46861534
 


--------------------------------------------------------------------------------------------------------


    POTLOK:  cpu time    1.2822: real time    1.2855


--------------------------------------------------------------------------------------------------------


     LOOP+:  cpu time  441.8020: real time  442.9799
    4ORBIT:  cpu time    0.0000: real time    0.0000
 


 total charge     
 
# of ion       s       p       d       f       tot
--------------------------------------------------
    1        2.080   5.876   0.497   6.730  15.183
    2        2.080   5.876   0.497   6.730  15.183
    3        1.317   2.451   0.000   0.000   3.768
    4        1.317   2.451   0.000   0.000   3.768
--------------------------------------------------
tot          6.794  16.653   0.994  13.460  37.901

 


 magnetization (x)
 
# of ion       s       p       d       f       tot
--------------------------------------------------
    1        0.007   0.013  -0.090  -6.669  -6.739
    2       -0.007  -0.013   0.090   6.669   6.739
    3        0.003   0.025   0.000   0.000   0.028
    4       -0.003  -0.025   0.000   0.000  -0.028
--------------------------------------------------
tot          0.000  -0.000  -0.000   0.000   0.000

 
 BZINTS: Fermi energy:  4.558070; 46.000000 electrons
         Band energy:-274.895535;  BLOECHL correction: -0.001971

 total amount of memory used by VASP MPI-rank0   108076. kBytes
=======================================================================

   base      :      30000. kBytes
   nonlr-proj:       2054. kBytes
   fftplans  :       2038. kBytes
   grid      :       4988. kBytes
   one-center:         98. kBytes
   wavefun   :      68898. kBytes
 
  
  
 General timing and accounting informations for this job:
 ========================================================
  
                  Total CPU time used (sec):      449.298
                            User time (sec):      446.936
                          System time (sec):        2.362
                         Elapsed time (sec):      450.935
  
                   Maximum memory used (kb):      148992.
                   Average memory used (kb):           0.
  
                          Minor page faults:        57829
                          Major page faults:            0
                 Voluntary context switches:          272
