=========================================
SLURM_JOB_ID = 29456387
SLURM_JOB_NODELIST = lnode21
SLURM_GPUS = 
SLURM_CPUS_ON_NODE = 8
SLURM_JOB_PARTITION = lenovo
SLURM_TASK_PID = 593756
CUDA_VISIBLE_DEVICES = 
==========================================
 running on    8 total cores
 distrk:  each k-point on    8 cores,    1 groups
 distr:  one band on    8 cores,    1 groups
 using from now: INCAR     
 vasp.5.4.4.18Apr17-6-g9f103f2a35 (build Apr 28 2018 00:24:27) complex          
  
 POSCAR found type information on POSCAR  Mn Bi
 POSCAR found :  2 types and       8 ions
 scaLAPACK will be used

 ----------------------------------------------------------------------------- 
|                                                                             |
|           W    W    AA    RRRRR   N    N  II  N    N   GGGG   !!!           |
|           W    W   A  A   R    R  NN   N  II  NN   N  G    G  !!!           |
|           W    W  A    A  R    R  N N  N  II  N N  N  G       !!!           |
|           W WW W  AAAAAA  RRRRR   N  N N  II  N  N N  G  GGG   !            |
|           WW  WW  A    A  R   R   N   NN  II  N   NN  G    G                |
|           W    W  A    A  R    R  N    N  II  N    N   GGGG   !!!           |
|                                                                             |
|      For optimal performance we recommend to set                            |
|        NCORE= 4 - approx SQRT( number of cores)                             |
|      NCORE specifies how many cores store one orbital (NPAR=cpu/NCORE).     |
|      This setting can  greatly improve the performance of VASP for DFT.     |
|      The default,   NCORE=1            might be grossly inefficient         |
|      on modern multi-core architectures or massively parallel machines.     |
|      Do your own testing !!!!                                               |
|      Unfortunately you need to use the default for GW and RPA calculations. |
|      (for HF NCORE is supported but not extensively tested yet)             |
|                                                                             |
 ----------------------------------------------------------------------------- 

 LDA part: xc-table for Pade appr. of Perdew
 POSCAR, INCAR and KPOINTS ok, starting setup
 FFT: planning ...
 WAVECAR not read
 entering main loop
       N       E                     dE             d eps       ncg     rms          rms(c)
DAV:   1     0.351078634318E+03    0.35108E+03   -0.15901E+04195808   0.138E+03
DAV:   2     0.735424230710E+01   -0.34372E+03   -0.33392E+03196192   0.381E+02
DAV:   3    -0.452611859956E+02   -0.52615E+02   -0.49771E+02322260   0.139E+02
DAV:   4    -0.500477258107E+02   -0.47865E+01   -0.45993E+01352088   0.519E+01
DAV:   5    -0.502979712248E+02   -0.25025E+00   -0.24478E+00329418   0.116E+01    0.193E+01
DAV:   6    -0.568275096111E+02   -0.65295E+01   -0.17653E+02378684   0.152E+02    0.465E+01
DAV:   7    -0.454002980591E+02    0.11427E+02   -0.61383E+01332601   0.818E+01    0.774E+00
DAV:   8    -0.460013294848E+02   -0.60103E+00   -0.69254E+00346344   0.195E+01    0.417E+00
DAV:   9    -0.459463543744E+02    0.54975E-01   -0.89070E-01369977   0.127E+01    0.241E+00
DAV:  10    -0.459811787501E+02   -0.34824E-01   -0.27005E-01349628   0.464E+00    0.203E+00
DAV:  11    -0.460010514568E+02   -0.19873E-01   -0.48293E-02338455   0.340E+00    0.107E+00
DAV:  12    -0.460064964531E+02   -0.54450E-02   -0.28260E-02335020   0.286E+00    0.447E-01
DAV:  13    -0.460083246905E+02   -0.18282E-02   -0.15486E-02337173   0.199E+00    0.291E-01
DAV:  14    -0.460082567174E+02    0.67973E-04   -0.45702E-03344926   0.113E+00    0.139E-01
DAV:  15    -0.460084299157E+02   -0.17320E-03   -0.52374E-04323874   0.246E-01    0.102E-01
DAV:  16    -0.460085472697E+02   -0.11735E-03   -0.31328E-04347827   0.255E-01    0.703E-02
DAV:  17    -0.460085808310E+02   -0.33561E-04   -0.15270E-04335942   0.173E-01    0.388E-02
DAV:  18    -0.460086054268E+02   -0.24596E-04   -0.69880E-05355123   0.129E-01    0.231E-02
DAV:  19    -0.460086154712E+02   -0.10044E-04   -0.18731E-05330888   0.675E-02    0.111E-02
DAV:  20    -0.460086188484E+02   -0.33771E-05   -0.73613E-06253451   0.305E-02    0.992E-03
DAV:  21    -0.460086196630E+02   -0.81457E-06   -0.27888E-06186448   0.284E-02
   1 F= -.46008620E+02 E0= -.46007971E+02  d E =-.194737E-02  mag=     0.0000
