       N       E                     dE             d eps       ncg     rms          rms(c)
DAV:   1     0.884009883487E+02    0.88401E+02   -0.85502E+03 56944   0.155E+03
DAV:   2    -0.448048409848E+01   -0.92881E+02   -0.87424E+02 56120   0.252E+02
DAV:   3    -0.752016235788E+01   -0.30397E+01   -0.30193E+01 68000   0.619E+01
DAV:   4    -0.756404076632E+01   -0.43878E-01   -0.43876E-01 75312   0.590E+00
DAV:   5    -0.756492069143E+01   -0.87993E-03   -0.87993E-03 69888   0.793E-01    0.234E+01
DAV:   6    -0.847092426264E+01   -0.90600E+00   -0.21353E+01 66672   0.778E+01    0.831E+00
DAV:   7    -0.827885747367E+01    0.19207E+00   -0.27550E+00 69656   0.336E+01    0.316E+00
DAV:   8    -0.834989801995E+01   -0.71041E-01   -0.12727E-01 71016   0.442E+00    0.175E+00
DAV:   9    -0.836783316131E+01   -0.17935E-01   -0.98124E-03 74624   0.132E+00    0.879E-01
DAV:  10    -0.838662971983E+01   -0.18797E-01   -0.12016E-02 70016   0.200E+00    0.145E-01
DAV:  11    -0.838778101058E+01   -0.11513E-02   -0.20928E-03 74024   0.516E-01    0.745E-02
DAV:  12    -0.838791472239E+01   -0.13371E-03   -0.11195E-04 70184   0.129E-01    0.489E-02
DAV:  13    -0.838800816780E+01   -0.93445E-04   -0.80779E-05 75336   0.138E-01    0.135E-02
DAV:  14    -0.838801006489E+01   -0.18971E-05   -0.75976E-06 63576   0.355E-02    0.410E-03
DAV:  15    -0.838801002197E+01    0.42923E-07   -0.29149E-07 62536   0.103E-02
   1 F= -.83880100E+01 E0= -.83880100E+01  d E =0.000000E+00  mag=     0.0000
