<?xml version="1.0" encoding="ISO-8859-1"?>
<modeling>
 <generator>
  <i name="program" type="string">vasp </i>
  <i name="version" type="string">5.4.4.18Apr17-6-g9f103f2a35  </i>
  <i name="subversion" type="string">(build Apr 28 2018 00:24:27) complex            parallel </i>
  <i name="platform" type="string">LinuxIFC </i>
  <i name="date" type="string">2021 09 07 </i>
  <i name="time" type="string">01:10:41 </i>
 </generator>
 <incar>
  <i type="string" name="PREC">accurate</i>
  <i type="string" name="ALGO"> Normal</i>
  <i type="int" name="ISPIN">     2</i>
  <i type="int" name="NELM">   100</i>
  <i type="int" name="IBRION">    -1</i>
  <i name="EDIFF">      0.00000010</i>
  <i type="int" name="NSW">     0</i>
  <i type="int" name="ISIF">     3</i>
  <i name="ENCUT">    420.00000000</i>
  <v name="MAGMOM">      5.00000000      5.00000000</v>
  <i type="string" name="LREAL"> Auto</i>
  <i type="int" name="ISMEAR">    -5</i>
  <i name="SIGMA">      0.05000000</i>
  <i type="logical" name="LWAVE"> F  </i>
  <i type="logical" name="LCHARG"> F  </i>
  <i type="logical" name="LVHAR"> F  </i>
  <i type="int" name="LORBIT">    11</i>
  <i type="logical" name="LASPH"> F  </i>
  <i type="logical" name="LAECHG"> F  </i>
  <v type="int" name="KPOINT_BSE">    -1     0     0     0</v>
  <i type="int" name="NELM">   100</i>
  <i type="logical" name="LASPH"> F  </i>
  <i type="int" name="LMAXTAU">     0</i>
 </incar>
 <structure name="primitive_cell" >
  <crystal>
   <varray name="basis" >
    <v>       1.42002600       1.42002600       1.42002600 </v>
    <v>       1.42002600      -1.42002600      -1.42002600 </v>
    <v>      -1.42002600       1.42002600      -1.42002600 </v>
   </varray>
   <i name="volume">     11.45378113 </i>
   <varray name="rec_basis" >
    <v>       0.35210623       0.35210623       0.00000000 </v>
    <v>       0.35210623       0.00000000      -0.35210623 </v>
    <v>       0.00000000       0.35210623      -0.35210623 </v>
   </varray>
  </crystal>
  <varray name="positions" >
   <v>       0.00000000       0.00000000       0.00000000 </v>
  </varray>
 </structure>
 <varray name="primitive_index" >
  <v type="int" >        1 </v>
 </varray>
 <kpoints>
  <generation param="Monkhorst-Pack">
   <v type="int" name="divisions">      10       10       10 </v>
   <v name="usershift">      0.00000000       0.00000000       0.00000000 </v>
   <v name="genvec1">      0.10000000       0.00000000       0.00000000 </v>
   <v name="genvec2">      0.00000000       0.10000000       0.00000000 </v>
   <v name="genvec3">      0.00000000       0.00000000       0.10000000 </v>
   <v name="shift">      0.50000000       0.50000000       0.50000000 </v>
  </generation>
  <varray name="kpointlist" >
   <v>       0.05000000       0.05000000       0.05000000 </v>
   <v>       0.15000000       0.05000000       0.05000000 </v>
   <v>       0.25000000       0.05000000       0.05000000 </v>
   <v>       0.35000000       0.05000000       0.05000000 </v>
   <v>       0.45000000       0.05000000       0.05000000 </v>
   <v>       0.15000000       0.15000000       0.05000000 </v>
   <v>       0.25000000       0.15000000       0.05000000 </v>
   <v>       0.35000000       0.15000000       0.05000000 </v>
   <v>       0.45000000       0.15000000       0.05000000 </v>
   <v>       0.25000000       0.25000000       0.05000000 </v>
   <v>       0.35000000       0.25000000       0.05000000 </v>
   <v>       0.45000000       0.25000000       0.05000000 </v>
   <v>       0.35000000       0.35000000       0.05000000 </v>
   <v>       0.45000000       0.35000000       0.05000000 </v>
   <v>       0.45000000       0.45000000       0.05000000 </v>
   <v>       0.15000000       0.15000000       0.15000000 </v>
   <v>       0.25000000       0.15000000       0.15000000 </v>
   <v>       0.35000000       0.15000000       0.15000000 </v>
   <v>       0.45000000       0.15000000       0.15000000 </v>
   <v>       0.25000000       0.25000000       0.15000000 </v>
   <v>       0.35000000       0.25000000       0.15000000 </v>
   <v>       0.45000000       0.25000000       0.15000000 </v>
   <v>       0.35000000       0.35000000       0.15000000 </v>
   <v>       0.45000000       0.35000000       0.15000000 </v>
   <v>       0.45000000       0.45000000       0.15000000 </v>
   <v>       0.25000000       0.25000000       0.25000000 </v>
   <v>       0.35000000       0.25000000       0.25000000 </v>
   <v>       0.45000000       0.25000000       0.25000000 </v>
   <v>       0.35000000       0.35000000       0.25000000 </v>
   <v>       0.45000000       0.35000000       0.25000000 </v>
   <v>       0.45000000       0.45000000       0.25000000 </v>
   <v>       0.35000000       0.35000000       0.35000000 </v>
   <v>       0.45000000       0.35000000       0.35000000 </v>
   <v>       0.45000000       0.45000000       0.35000000 </v>
   <v>       0.45000000       0.45000000       0.45000000 </v>
  </varray>
  <varray name="weights" >
   <v>       0.00800000 </v>
   <v>       0.02400000 </v>
   <v>       0.02400000 </v>
   <v>       0.02400000 </v>
   <v>       0.02400000 </v>
   <v>       0.02400000 </v>
   <v>       0.04800000 </v>
   <v>       0.04800000 </v>
   <v>       0.04800000 </v>
   <v>       0.02400000 </v>
   <v>       0.04800000 </v>
   <v>       0.04800000 </v>
   <v>       0.02400000 </v>
   <v>       0.04800000 </v>
   <v>       0.02400000 </v>
   <v>       0.00800000 </v>
   <v>       0.02400000 </v>
   <v>       0.02400000 </v>
   <v>       0.02400000 </v>
   <v>       0.02400000 </v>
   <v>       0.04800000 </v>
   <v>       0.04800000 </v>
   <v>       0.02400000 </v>
   <v>       0.04800000 </v>
   <v>       0.02400000 </v>
   <v>       0.00800000 </v>
   <v>       0.02400000 </v>
   <v>       0.02400000 </v>
   <v>       0.02400000 </v>
   <v>       0.04800000 </v>
   <v>       0.02400000 </v>
   <v>       0.00800000 </v>
   <v>       0.02400000 </v>
   <v>       0.02400000 </v>
   <v>       0.00800000 </v>
  </varray>
  <varray name="tetrahedronlist"  type="int" >
   <v type="int" >       24        1        2        2        6 </v>
   <v type="int" >       18        2        2        6        6 </v>
   <v type="int" >       12        2        6        6       16 </v>
   <v type="int" >       12        2        3        6        7 </v>
   <v type="int" >       24        2        6        6        7 </v>
   <v type="int" >       12        6        6        7       16 </v>
   <v type="int" >       24        3        6        7        7 </v>
   <v type="int" >       24        6        7        7       17 </v>
   <v type="int" >       24        6        7       16       17 </v>
   <v type="int" >       12        3        4        7        8 </v>
   <v type="int" >       24        3        7        7        8 </v>
   <v type="int" >       12        7        7        8       17 </v>
   <v type="int" >       24        4        7        8        8 </v>
   <v type="int" >       12        7        8        8       18 </v>
   <v type="int" >       12        7        8       17       18 </v>
   <v type="int" >       12        4        5        8        9 </v>
   <v type="int" >       24        4        8        8        9 </v>
   <v type="int" >       12        8        8        9       18 </v>
   <v type="int" >       24        5        8        9        9 </v>
   <v type="int" >       12        8        9        9       19 </v>
   <v type="int" >       12        8        9       18       19 </v>
   <v type="int" >       30        5        5        9        9 </v>
   <v type="int" >       36        5        9        9        9 </v>
   <v type="int" >       12        9        9        9       19 </v>
   <v type="int" >        6        9        9       19       19 </v>
   <v type="int" >       18        1        1        2        2 </v>
   <v type="int" >       24        1        2        2        2 </v>
   <v type="int" >       12        2        2        2        6 </v>
   <v type="int" >       12        6        7       10       16 </v>
   <v type="int" >       12        7       10       16       17 </v>
   <v type="int" >       12       10       16       17       20 </v>
   <v type="int" >       12        7        8       11       17 </v>
   <v type="int" >       12        7       10       11       17 </v>
   <v type="int" >       12       10       11       17       20 </v>
   <v type="int" >       12        8       11       17       18 </v>
   <v type="int" >       12       11       17       18       21 </v>
   <v type="int" >       12       11       17       20       21 </v>
   <v type="int" >       12        8        9       12       18 </v>
   <v type="int" >       12        8       11       12       18 </v>
   <v type="int" >       12       11       12       18       21 </v>
   <v type="int" >       12        9       12       18       19 </v>
   <v type="int" >       12       12       18       19       22 </v>
   <v type="int" >       12       12       18       21       22 </v>
   <v type="int" >       12        9        9       12       19 </v>
   <v type="int" >       12        9       12       12       19 </v>
   <v type="int" >       12       12       12       19       22 </v>
   <v type="int" >       12        9       12       19       19 </v>
   <v type="int" >       12       12       19       19       22 </v>
   <v type="int" >       12       12       19       22       22 </v>
   <v type="int" >       12        8        9       11       19 </v>
   <v type="int" >       12        9       11       12       19 </v>
   <v type="int" >       12       11       12       19       22 </v>
   <v type="int" >       12        8       11       18       19 </v>
   <v type="int" >       12       11       18       19       21 </v>
   <v type="int" >       12       11       19       21       22 </v>
   <v type="int" >       12        7        8       10       18 </v>
   <v type="int" >       12        8       10       11       18 </v>
   <v type="int" >       12       10       11       18       21 </v>
   <v type="int" >       12        7       10       17       18 </v>
   <v type="int" >       12       10       17       18       20 </v>
   <v type="int" >       12       10       18       20       21 </v>
   <v type="int" >       12        7        7       10       17 </v>
   <v type="int" >       12        7       10       17       20 </v>
   <v type="int" >       12        7       16       17       17 </v>
   <v type="int" >       12        7       17       17       20 </v>
   <v type="int" >       12        2        3        6       16 </v>
   <v type="int" >       12        3        6        7       16 </v>
   <v type="int" >       12        3        7       16       17 </v>
   <v type="int" >       12        2        2        3        6 </v>
   <v type="int" >       12        2        3        3        6 </v>
   <v type="int" >       12        3        3        6        7 </v>
   <v type="int" >       12        2        3        6        6 </v>
   <v type="int" >       12        3        6        6        7 </v>
   <v type="int" >       12       10       11       13       20 </v>
   <v type="int" >       12       11       13       20       21 </v>
   <v type="int" >       12       13       20       21       23 </v>
   <v type="int" >       12       11       12       14       21 </v>
   <v type="int" >       12       11       13       14       21 </v>
   <v type="int" >       12       13       14       21       23 </v>
   <v type="int" >       12       12       14       21       22 </v>
   <v type="int" >       12       14       21       22       24 </v>
   <v type="int" >       12       14       21       23       24 </v>
   <v type="int" >       12       12       12       14       22 </v>
   <v type="int" >       12       12       14       14       22 </v>
   <v type="int" >       12       14       14       22       24 </v>
   <v type="int" >       12       12       14       22       22 </v>
   <v type="int" >       12       14       22       22       24 </v>
   <v type="int" >       12       14       22       24       24 </v>
   <v type="int" >       12       11       12       13       22 </v>
   <v type="int" >       12       12       13       14       22 </v>
   <v type="int" >       12       13       14       22       24 </v>
   <v type="int" >       12       11       13       21       22 </v>
   <v type="int" >       12       13       21       22       23 </v>
   <v type="int" >       12       13       22       23       24 </v>
   <v type="int" >       12       10       11       11       21 </v>
   <v type="int" >       12       11       11       13       21 </v>
   <v type="int" >       12       11       13       21       23 </v>
   <v type="int" >       12       10       11       20       21 </v>
   <v type="int" >       12       11       20       21       21 </v>
   <v type="int" >       12       11       21       21       23 </v>
   <v type="int" >       12        7        8       10       20 </v>
   <v type="int" >       12        8       10       11       20 </v>
   <v type="int" >       12        8       11       20       21 </v>
   <v type="int" >       12        7        8       17       20 </v>
   <v type="int" >       12        8       17       18       20 </v>
   <v type="int" >       12        8       18       20       21 </v>
   <v type="int" >       12        3        4        7       17 </v>
   <v type="int" >       12        4        7        8       17 </v>
   <v type="int" >       12        4        8       17       18 </v>
   <v type="int" >       12        3        3        4        7 </v>
   <v type="int" >       12        3        4        4        7 </v>
   <v type="int" >       12        4        4        7        8 </v>
   <v type="int" >       12        3        4        7        7 </v>
   <v type="int" >       12        4        7        7        8 </v>
   <v type="int" >       12       13       14       15       23 </v>
   <v type="int" >       12       14       15       23       24 </v>
   <v type="int" >       12       15       23       24       25 </v>
   <v type="int" >       24       14       14       15       24 </v>
   <v type="int" >       12       14       15       15       24 </v>
   <v type="int" >       12       15       15       24       25 </v>
   <v type="int" >       12       14       15       24       24 </v>
   <v type="int" >       12       15       24       24       25 </v>
   <v type="int" >       12       15       24       25       25 </v>
   <v type="int" >       12       13       14       14       24 </v>
   <v type="int" >       12       14       15       24       25 </v>
   <v type="int" >       12       13       14       23       24 </v>
   <v type="int" >       12       14       23       24       24 </v>
   <v type="int" >       24       14       24       24       25 </v>
   <v type="int" >       12       11       12       13       23 </v>
   <v type="int" >       12       12       13       14       23 </v>
   <v type="int" >       12       12       14       23       24 </v>
   <v type="int" >       12       11       12       21       23 </v>
   <v type="int" >       12       12       21       22       23 </v>
   <v type="int" >       12       12       22       23       24 </v>
   <v type="int" >       12        8        9       11       21 </v>
   <v type="int" >       12        9       11       12       21 </v>
   <v type="int" >       12        9       12       21       22 </v>
   <v type="int" >       12        8        9       18       21 </v>
   <v type="int" >       12        9       18       19       21 </v>
   <v type="int" >       12        9       19       21       22 </v>
   <v type="int" >       12        4        5        8       18 </v>
   <v type="int" >       12        5        8        9       18 </v>
   <v type="int" >       12        5        9       18       19 </v>
   <v type="int" >       12        4        4        5        8 </v>
   <v type="int" >       12        4        5        5        8 </v>
   <v type="int" >       12        5        5        8        9 </v>
   <v type="int" >       12        4        5        8        8 </v>
   <v type="int" >       12        5        8        8        9 </v>
   <v type="int" >       12       15       15       15       25 </v>
   <v type="int" >       12       15       15       25       25 </v>
   <v type="int" >       12       15       25       25       25 </v>
   <v type="int" >       12       14       14       15       25 </v>
   <v type="int" >       12       14       15       15       25 </v>
   <v type="int" >       12       14       15       25       25 </v>
   <v type="int" >       12       14       14       24       25 </v>
   <v type="int" >       12       14       24       25       25 </v>
   <v type="int" >       12       12       12       14       24 </v>
   <v type="int" >       12       12       14       14       24 </v>
   <v type="int" >       12       12       14       24       24 </v>
   <v type="int" >       12       12       12       22       24 </v>
   <v type="int" >       12       12       22       22       24 </v>
   <v type="int" >       12       12       22       24       24 </v>
   <v type="int" >       12        9        9       12       22 </v>
   <v type="int" >       12        9       12       12       22 </v>
   <v type="int" >       12        9       12       22       22 </v>
   <v type="int" >       12        9        9       19       22 </v>
   <v type="int" >       12        9       19       19       22 </v>
   <v type="int" >       12        9       19       22       22 </v>
   <v type="int" >       12        5        5        9       19 </v>
   <v type="int" >       12        5        9        9       19 </v>
   <v type="int" >       12        5        9       19       19 </v>
   <v type="int" >       24        5        5        5        9 </v>
   <v type="int" >       12       13       14       15       25 </v>
   <v type="int" >       12       13       14       24       25 </v>
   <v type="int" >       12       13       23       24       25 </v>
   <v type="int" >       12       11       12       14       24 </v>
   <v type="int" >       12       11       13       14       24 </v>
   <v type="int" >       12       11       13       23       24 </v>
   <v type="int" >       12       11       12       22       24 </v>
   <v type="int" >       12       11       21       22       24 </v>
   <v type="int" >       12       11       21       23       24 </v>
   <v type="int" >       12        8        9       12       22 </v>
   <v type="int" >       12        8       11       12       22 </v>
   <v type="int" >       12        8       11       21       22 </v>
   <v type="int" >       12        8        9       19       22 </v>
   <v type="int" >       12        8       18       19       22 </v>
   <v type="int" >       12        8       18       21       22 </v>
   <v type="int" >       12        4        5        9       19 </v>
   <v type="int" >       12        4        8        9       19 </v>
   <v type="int" >       12        4        8       18       19 </v>
   <v type="int" >       12        4        5        5        9 </v>
   <v type="int" >       12        4        4        5        9 </v>
   <v type="int" >       12        4        4        8        9 </v>
   <v type="int" >       12        4        5        9        9 </v>
   <v type="int" >       12        4        8        9        9 </v>
   <v type="int" >       12       10       11       13       23 </v>
   <v type="int" >       12       10       11       21       23 </v>
   <v type="int" >       12       10       20       21       23 </v>
   <v type="int" >       12        7        8       11       21 </v>
   <v type="int" >       12        7       10       11       21 </v>
   <v type="int" >       12        7       10       20       21 </v>
   <v type="int" >       12        7        8       18       21 </v>
   <v type="int" >       12        7       17       18       21 </v>
   <v type="int" >       12        7       17       20       21 </v>
   <v type="int" >       12        3        4        8       18 </v>
   <v type="int" >       12        3        7        8       18 </v>
   <v type="int" >       12        3        7       17       18 </v>
   <v type="int" >       12        3        4        4        8 </v>
   <v type="int" >       12        3        3        4        8 </v>
   <v type="int" >       12        3        3        7        8 </v>
   <v type="int" >       12        3        4        8        8 </v>
   <v type="int" >       12        3        7        8        8 </v>
   <v type="int" >       12        6        7       10       20 </v>
   <v type="int" >       12        6        7       17       20 </v>
   <v type="int" >       12        6       16       17       20 </v>
   <v type="int" >       12        2        3        7       17 </v>
   <v type="int" >       12        2        6        7       17 </v>
   <v type="int" >       12        2        6       16       17 </v>
   <v type="int" >       12        2        3        3        7 </v>
   <v type="int" >       12        2        2        3        7 </v>
   <v type="int" >       12        2        2        6        7 </v>
   <v type="int" >       12        2        3        7        7 </v>
   <v type="int" >       12        2        6        7        7 </v>
   <v type="int" >       12        1        2        6       16 </v>
   <v type="int" >       12        1        1        2        6 </v>
   <v type="int" >       12        1        2        6        6 </v>
   <v type="int" >       12        1        1        1        2 </v>
   <v type="int" >       12       16       17       17       20 </v>
   <v type="int" >       12       17       17       20       20 </v>
   <v type="int" >       12       17       20       20       26 </v>
   <v type="int" >       12       17       18       20       21 </v>
   <v type="int" >       12       17       20       20       21 </v>
   <v type="int" >       12       20       20       21       26 </v>
   <v type="int" >       12       18       20       21       21 </v>
   <v type="int" >       24       20       21       21       27 </v>
   <v type="int" >       24       20       21       26       27 </v>
   <v type="int" >       12       18       19       21       22 </v>
   <v type="int" >       12       18       21       21       22 </v>
   <v type="int" >       12       21       21       22       27 </v>
   <v type="int" >       12       19       21       22       22 </v>
   <v type="int" >       12       21       22       22       28 </v>
   <v type="int" >       12       21       22       27       28 </v>
   <v type="int" >        6       19       19       22       22 </v>
   <v type="int" >       12       19       22       22       22 </v>
   <v type="int" >       12       22       22       22       28 </v>
   <v type="int" >        6       22       22       28       28 </v>
   <v type="int" >        6        6        6        7        7 </v>
   <v type="int" >       12        6        7        7        7 </v>
   <v type="int" >       12        7        7        7       10 </v>
   <v type="int" >        6        7        7       10       10 </v>
   <v type="int" >       12       20       21       23       26 </v>
   <v type="int" >       12       21       23       26       27 </v>
   <v type="int" >       12       23       26       27       29 </v>
   <v type="int" >       12       21       22       24       27 </v>
   <v type="int" >       12       21       23       24       27 </v>
   <v type="int" >       12       23       24       27       29 </v>
   <v type="int" >       12       22       24       27       28 </v>
   <v type="int" >       12       24       27       28       30 </v>
   <v type="int" >       12       24       27       29       30 </v>
   <v type="int" >       12       22       22       24       28 </v>
   <v type="int" >       12       22       24       24       28 </v>
   <v type="int" >       12       24       24       28       30 </v>
   <v type="int" >       12       22       24       28       28 </v>
   <v type="int" >       12       24       28       28       30 </v>
   <v type="int" >       12       24       28       30       30 </v>
   <v type="int" >       12       21       22       23       28 </v>
   <v type="int" >       12       22       23       24       28 </v>
   <v type="int" >       12       23       24       28       30 </v>
   <v type="int" >       12       21       23       27       28 </v>
   <v type="int" >       12       23       27       28       29 </v>
   <v type="int" >       12       23       28       29       30 </v>
   <v type="int" >       12       21       21       23       27 </v>
   <v type="int" >       12       21       23       27       29 </v>
   <v type="int" >       12       21       26       27       27 </v>
   <v type="int" >       12       21       27       27       29 </v>
   <v type="int" >       12       17       18       20       26 </v>
   <v type="int" >       12       18       20       21       26 </v>
   <v type="int" >       12       18       21       26       27 </v>
   <v type="int" >       12        7        7        8       10 </v>
   <v type="int" >       12        7        8        8       10 </v>
   <v type="int" >       12        8        8       10       11 </v>
   <v type="int" >       12        7        8       10       10 </v>
   <v type="int" >       12        8       10       10       11 </v>
   <v type="int" >       12        8       10       11       11 </v>
   <v type="int" >       12       23       24       25       29 </v>
   <v type="int" >       12       24       25       29       30 </v>
   <v type="int" >       12       25       29       30       31 </v>
   <v type="int" >       24       24       24       25       30 </v>
   <v type="int" >       12       24       25       25       30 </v>
   <v type="int" >       12       25       25       30       31 </v>
   <v type="int" >       12       24       25       30       30 </v>
   <v type="int" >       12       25       30       30       31 </v>
   <v type="int" >       12       25       30       31       31 </v>
   <v type="int" >       12       23       24       24       30 </v>
   <v type="int" >       12       24       25       30       31 </v>
   <v type="int" >       12       23       24       29       30 </v>
   <v type="int" >       12       24       29       30       30 </v>
   <v type="int" >       24       24       30       30       31 </v>
   <v type="int" >       12       21       22       23       29 </v>
   <v type="int" >       12       22       23       24       29 </v>
   <v type="int" >       12       22       24       29       30 </v>
   <v type="int" >       12       21       22       27       29 </v>
   <v type="int" >       12       22       27       28       29 </v>
   <v type="int" >       12       22       28       29       30 </v>
   <v type="int" >       12       18       19       21       27 </v>
   <v type="int" >       12       19       21       22       27 </v>
   <v type="int" >       12       19       22       27       28 </v>
   <v type="int" >       12        8        8        9       11 </v>
   <v type="int" >       12        8        9        9       11 </v>
   <v type="int" >       12        9        9       11       12 </v>
   <v type="int" >       12        8        9       11       11 </v>
   <v type="int" >       12        9       11       11       12 </v>
   <v type="int" >       12        9       11       12       12 </v>
   <v type="int" >       12       25       25       25       31 </v>
   <v type="int" >       12       25       25       31       31 </v>
   <v type="int" >       12       25       31       31       31 </v>
   <v type="int" >       12       24       24       25       31 </v>
   <v type="int" >       12       24       25       25       31 </v>
   <v type="int" >       12       24       25       31       31 </v>
   <v type="int" >       12       24       24       30       31 </v>
   <v type="int" >       12       24       30       31       31 </v>
   <v type="int" >       12       22       22       24       30 </v>
   <v type="int" >       12       22       24       24       30 </v>
   <v type="int" >       12       22       24       30       30 </v>
   <v type="int" >       12       22       22       28       30 </v>
   <v type="int" >       12       22       28       28       30 </v>
   <v type="int" >       12       22       28       30       30 </v>
   <v type="int" >       12       19       19       22       28 </v>
   <v type="int" >       12       19       22       22       28 </v>
   <v type="int" >       12       19       22       28       28 </v>
   <v type="int" >       24        9        9        9       12 </v>
   <v type="int" >       24        9        9       12       12 </v>
   <v type="int" >       24        9       12       12       12 </v>
   <v type="int" >       12       23       24       25       31 </v>
   <v type="int" >       12       23       24       30       31 </v>
   <v type="int" >       12       23       29       30       31 </v>
   <v type="int" >       12       21       22       24       30 </v>
   <v type="int" >       12       21       23       24       30 </v>
   <v type="int" >       12       21       23       29       30 </v>
   <v type="int" >       12       21       22       28       30 </v>
   <v type="int" >       12       21       27       28       30 </v>
   <v type="int" >       12       21       27       29       30 </v>
   <v type="int" >       12       18       19       22       28 </v>
   <v type="int" >       12       18       21       22       28 </v>
   <v type="int" >       12       18       21       27       28 </v>
   <v type="int" >       12        8        9        9       12 </v>
   <v type="int" >       12        8        8        9       12 </v>
   <v type="int" >       12        8        8       11       12 </v>
   <v type="int" >       12        8        9       12       12 </v>
   <v type="int" >       12        8       11       12       12 </v>
   <v type="int" >       12        8       11       11       12 </v>
   <v type="int" >       12       20       21       23       29 </v>
   <v type="int" >       12       20       21       27       29 </v>
   <v type="int" >       12       20       26       27       29 </v>
   <v type="int" >       12       17       18       21       27 </v>
   <v type="int" >       12       17       20       21       27 </v>
   <v type="int" >       12       17       20       26       27 </v>
   <v type="int" >       12        7        8        8       11 </v>
   <v type="int" >       12        7        7        8       11 </v>
   <v type="int" >       12        7        7       10       11 </v>
   <v type="int" >       12        7        8       11       11 </v>
   <v type="int" >       12        7       10       11       11 </v>
   <v type="int" >       12        7       10       10       11 </v>
   <v type="int" >       12       16       17       20       26 </v>
   <v type="int" >       12        6        7        7       10 </v>
   <v type="int" >       12        6        6        7       10 </v>
   <v type="int" >       12        6        7       10       10 </v>
   <v type="int" >       12        2        2        2        3 </v>
   <v type="int" >       12        2        2        3        3 </v>
   <v type="int" >       12        2        3        3        3 </v>
   <v type="int" >       12       26       27       27       29 </v>
   <v type="int" >       12       27       27       29       29 </v>
   <v type="int" >       12       27       29       29       32 </v>
   <v type="int" >       12       27       28       29       30 </v>
   <v type="int" >       12       27       29       29       30 </v>
   <v type="int" >       12       29       29       30       32 </v>
   <v type="int" >       12       28       29       30       30 </v>
   <v type="int" >       24       29       30       30       33 </v>
   <v type="int" >       24       29       30       32       33 </v>
   <v type="int" >        6       28       28       30       30 </v>
   <v type="int" >       12       28       30       30       30 </v>
   <v type="int" >       12       30       30       30       33 </v>
   <v type="int" >        6       30       30       33       33 </v>
   <v type="int" >        6       10       10       11       11 </v>
   <v type="int" >       12       10       11       11       11 </v>
   <v type="int" >       12       11       11       11       13 </v>
   <v type="int" >        6       11       11       13       13 </v>
   <v type="int" >       12       29       30       31       32 </v>
   <v type="int" >       12       30       31       32       33 </v>
   <v type="int" >       12       31       32       33       34 </v>
   <v type="int" >       24       30       30       31       33 </v>
   <v type="int" >       12       30       31       31       33 </v>
   <v type="int" >       12       31       31       33       34 </v>
   <v type="int" >       12       30       31       33       33 </v>
   <v type="int" >       12       31       33       33       34 </v>
   <v type="int" >       12       31       33       34       34 </v>
   <v type="int" >       12       30       31       33       34 </v>
   <v type="int" >       12       30       32       33       33 </v>
   <v type="int" >       24       30       33       33       34 </v>
   <v type="int" >       12       27       28       29       32 </v>
   <v type="int" >       12       28       29       30       32 </v>
   <v type="int" >       12       28       30       32       33 </v>
   <v type="int" >       12       11       11       12       13 </v>
   <v type="int" >       12       11       12       12       13 </v>
   <v type="int" >       12       12       12       13       14 </v>
   <v type="int" >       12       11       12       13       13 </v>
   <v type="int" >       12       12       13       13       14 </v>
   <v type="int" >       12       12       13       14       14 </v>
   <v type="int" >       12       31       31       31       34 </v>
   <v type="int" >       12       31       31       34       34 </v>
   <v type="int" >       12       31       34       34       34 </v>
   <v type="int" >       12       30       30       31       34 </v>
   <v type="int" >       12       30       31       31       34 </v>
   <v type="int" >       12       30       31       34       34 </v>
   <v type="int" >       12       30       30       33       34 </v>
   <v type="int" >       12       30       33       34       34 </v>
   <v type="int" >       12       28       28       30       33 </v>
   <v type="int" >       12       28       30       30       33 </v>
   <v type="int" >       12       28       30       33       33 </v>
   <v type="int" >       24       12       12       12       14 </v>
   <v type="int" >       24       12       12       14       14 </v>
   <v type="int" >       24       12       14       14       14 </v>
   <v type="int" >       12       29       30       31       34 </v>
   <v type="int" >       12       29       30       33       34 </v>
   <v type="int" >       12       29       32       33       34 </v>
   <v type="int" >       12       27       28       30       33 </v>
   <v type="int" >       12       27       29       30       33 </v>
   <v type="int" >       12       27       29       32       33 </v>
   <v type="int" >       12       11       12       12       14 </v>
   <v type="int" >       12       11       11       12       14 </v>
   <v type="int" >       12       11       11       13       14 </v>
   <v type="int" >       12       11       12       14       14 </v>
   <v type="int" >       12       11       13       14       14 </v>
   <v type="int" >       12       11       13       13       14 </v>
   <v type="int" >       12       26       27       29       32 </v>
   <v type="int" >       12       10       11       11       13 </v>
   <v type="int" >       12       10       10       11       13 </v>
   <v type="int" >       12       10       11       13       13 </v>
   <v type="int" >       12        3        3        3        4 </v>
   <v type="int" >       12        3        3        4        4 </v>
   <v type="int" >       12        3        4        4        4 </v>
   <v type="int" >       12       32       33       33       34 </v>
   <v type="int" >       18       33       33       34       34 </v>
   <v type="int" >       24       33       34       34       35 </v>
   <v type="int" >       12       33       34       34       34 </v>
   <v type="int" >       24       34       34       34       35 </v>
   <v type="int" >       18       34       34       35       35 </v>
   <v type="int" >        6       13       13       14       14 </v>
   <v type="int" >       12       13       14       14       14 </v>
   <v type="int" >       36       14       14       14       15 </v>
   <v type="int" >       30       14       14       15       15 </v>
   <v type="int" >       12       34       35       35       35 </v>
   <v type="int" >       12       33       33       34       35 </v>
   <v type="int" >       12       33       34       35       35 </v>
   <v type="int" >       24       14       15       15       15 </v>
   <v type="int" >       12       32       33       34       35 </v>
   <v type="int" >       12       13       14       14       15 </v>
   <v type="int" >       12       13       13       14       15 </v>
   <v type="int" >       12       13       14       15       15 </v>
   <v type="int" >       12        4        4        4        5 </v>
   <v type="int" >       12        4        4        5        5 </v>
   <v type="int" >       12        4        5        5        5 </v>
   <v type="int" >        6       35       35       35       35 </v>
   <v type="int" >       18       15       15       15       15 </v>
   <v type="int" >       18        5        5        5        5 </v>
   <v type="int" >        6        1        1        1        1 </v>
  </varray>
  <i name="volumeweight">      0.00016667 </i>
 </kpoints>
 <parameters>
  <separator name="general" >
   <i type="string" name="SYSTEM">unknown system</i>
   <i type="logical" name="LCOMPAT"> F  </i>
  </separator>
  <separator name="electronic" >
   <i type="string" name="PREC">accura</i>
   <i name="ENMAX">    420.00000000</i>
   <i name="ENAUG">    578.34200000</i>
   <i name="EDIFF">      0.00000010</i>
   <i type="int" name="IALGO">    38</i>
   <i type="int" name="IWAVPR">    10</i>
   <i type="int" name="NBANDS">    24</i>
   <i name="NELECT">     28.00000000</i>
   <i type="int" name="TURBO">     0</i>
   <i type="int" name="IRESTART">     0</i>
   <i type="int" name="NREBOOT">     0</i>
   <i type="int" name="NMIN">     0</i>
   <i name="EREF">      0.00000000</i>
   <separator name="electronic smearing" >
    <i type="int" name="ISMEAR">    -5</i>
    <i name="SIGMA">      0.05000000</i>
    <i name="KSPACING">      0.50000000</i>
    <i type="logical" name="KGAMMA"> T  </i>
   </separator>
   <separator name="electronic projectors" >
    <i type="logical" name="LREAL"> T  </i>
    <v name="ROPT">     -0.00025000</v>
    <i type="int" name="LMAXPAW">  -100</i>
    <i type="int" name="LMAXMIX">     2</i>
    <i type="logical" name="NLSPLINE"> F  </i>
   </separator>
   <separator name="electronic startup" >
    <i type="int" name="ISTART">     0</i>
    <i type="int" name="ICHARG">     2</i>
    <i type="int" name="INIWAV">     1</i>
   </separator>
   <separator name="electronic spin" >
    <i type="int" name="ISPIN">     2</i>
    <i type="logical" name="LNONCOLLINEAR"> F  </i>
    <v name="MAGMOM">      5.00000000      5.00000000</v>
    <i name="NUPDOWN">     -1.00000000</i>
    <i type="logical" name="LSORBIT"> F  </i>
    <v name="SAXIS">      0.00000000      0.00000000      1.00000000</v>
    <i type="logical" name="LSPIRAL"> F  </i>
    <v name="QSPIRAL">      0.00000000      0.00000000      0.00000000</v>
    <i type="logical" name="LZEROZ"> F  </i>
   </separator>
   <separator name="electronic exchange-correlation" >
    <i type="logical" name="LASPH"> F  </i>
    <i type="logical" name="LMETAGGA"> F  </i>
   </separator>
   <separator name="electronic convergence" >
    <i type="int" name="NELM">   100</i>
    <i type="int" name="NELMDL">    -5</i>
    <i type="int" name="NELMIN">     2</i>
    <i name="ENINI">    420.00000000</i>
    <separator name="electronic convergence detail" >
     <i type="logical" name="LDIAG"> T  </i>
     <i type="logical" name="LSUBROT"> F  </i>
     <i name="WEIMIN">      0.00000000</i>
     <i name="EBREAK">      0.00000000</i>
     <i name="DEPER">      0.30000000</i>
     <i type="int" name="NRMM">     4</i>
     <i name="TIME">      0.40000000</i>
    </separator>
   </separator>
   <separator name="electronic mixer" >
    <i name="AMIX">      0.40000000</i>
    <i name="BMIX">      1.00000000</i>
    <i name="AMIN">      0.10000000</i>
    <i name="AMIX_MAG">      1.60000000</i>
    <i name="BMIX_MAG">      1.00000000</i>
    <separator name="electronic mixer details" >
     <i type="int" name="IMIX">     4</i>
     <i type="logical" name="MIXFIRST"> F  </i>
     <i type="int" name="MAXMIX">   -45</i>
     <i name="WC">    100.00000000</i>
     <i type="int" name="INIMIX">     1</i>
     <i type="int" name="MIXPRE">     1</i>
     <i type="int" name="MREMOVE">     5</i>
    </separator>
   </separator>
   <separator name="electronic dipolcorrection" >
    <i type="logical" name="LDIPOL"> F  </i>
    <i type="logical" name="LMONO"> F  </i>
    <i type="int" name="IDIPOL">     0</i>
    <i name="EPSILON">      1.00000000</i>
    <v name="DIPOL">   -100.00000000   -100.00000000   -100.00000000</v>
    <i name="EFIELD">      0.00000000</i>
   </separator>
  </separator>
  <separator name="grids" >
   <i type="int" name="NGX">    20</i>
   <i type="int" name="NGY">    20</i>
   <i type="int" name="NGZ">    20</i>
   <i type="int" name="NGXF">    40</i>
   <i type="int" name="NGYF">    40</i>
   <i type="int" name="NGZF">    40</i>
   <i type="logical" name="ADDGRID"> F  </i>
  </separator>
  <separator name="ionic" >
   <i type="int" name="NSW">     0</i>
   <i type="int" name="IBRION">    -1</i>
   <i type="int" name="MDALGO">     0</i>
   <i type="int" name="ISIF">     3</i>
   <i name="PSTRESS">      0.00000000</i>
   <i name="EDIFFG">      0.00000100</i>
   <i type="int" name="NFREE">     0</i>
   <i name="POTIM">      0.50000000</i>
   <i name="SMASS">     -3.00000000</i>
   <i name="SCALEE">      1.00000000</i>
  </separator>
  <separator name="ionic md" >
   <i name="TEBEG">      0.00010000</i>
   <i name="TEEND">      0.00010000</i>
   <i type="int" name="NBLOCK">     1</i>
   <i type="int" name="KBLOCK">     1</i>
   <i type="int" name="NPACO">   256</i>
   <i name="APACO">     16.00000000</i>
  </separator>
  <separator name="symmetry" >
   <i type="int" name="ISYM">     2</i>
   <i name="SYMPREC">      0.00001000</i>
  </separator>
  <separator name="dos" >
   <i type="int" name="LORBIT">    11</i>
   <v name="RWIGS">     -1.00000000</v>
   <i type="int" name="NEDOS">   301</i>
   <i name="EMIN">     10.00000000</i>
   <i name="EMAX">    -10.00000000</i>
   <i name="EFERMI">      0.00000000</i>
  </separator>
  <separator name="writing" >
   <i type="int" name="NWRITE">     2</i>
   <i type="logical" name="LWAVE"> F  </i>
   <i type="logical" name="LDOWNSAMPLE"> F  </i>
   <i type="logical" name="LCHARG"> F  </i>
   <i type="logical" name="LPARD"> F  </i>
   <i type="logical" name="LVTOT"> F  </i>
   <i type="logical" name="LVHAR"> F  </i>
   <i type="logical" name="LELF"> F  </i>
   <i type="logical" name="LOPTICS"> F  </i>
   <v name="STM">      0.00000000      0.00000000      0.00000000      0.00000000      0.00000000      0.00000000      0.00000000</v>
  </separator>
  <separator name="performance" >
   <i type="int" name="NPAR">     6</i>
   <i type="int" name="NSIM">     4</i>
   <i type="int" name="NBLK">    -1</i>
   <i type="logical" name="LPLANE"> T  </i>
   <i type="logical" name="LSCALAPACK"> T  </i>
   <i type="logical" name="LSCAAWARE"> T  </i>
   <i type="logical" name="LSCALU"> F  </i>
   <i type="logical" name="LASYNC"> F  </i>
   <i type="logical" name="LORBITALREAL"> F  </i>
  </separator>
  <separator name="miscellaneous" >
   <i type="int" name="IDIOT">     3</i>
   <i type="int" name="ISPECIAL">     0</i>
   <i type="logical" name="LMUSIC"> F  </i>
   <v name="POMASS">     55.84700000</v>
   <v name="DARWINR">      0.00000000</v>
   <v name="DARWINV">      1.00000000</v>
   <i type="logical" name="LCORR"> T  </i>
  </separator>
  <i type="logical" name="GGA_COMPAT"> T  </i>
  <i type="logical" name="LBERRY"> F  </i>
  <i type="int" name="ICORELEVEL">     0</i>
  <i type="logical" name="LDAU"> F  </i>
  <i type="int" name="I_CONSTRAINED_M">     0</i>
  <separator name="electronic exchange-correlation" >
   <i type="string" name="GGA">--</i>
   <i type="int" name="VOSKOWN">     0</i>
   <i type="logical" name="LHFCALC"> F  </i>
   <i type="string" name="PRECFOCK"></i>
   <i type="logical" name="LSYMGRAD"> F  </i>
   <i type="logical" name="LHFONE"> F  </i>
   <i type="logical" name="LRHFCALC"> F  </i>
   <i type="logical" name="LTHOMAS"> F  </i>
   <i type="logical" name="LMODELHF"> F  </i>
   <i name="ENCUT4O">     -1.00000000</i>
   <i type="int" name="EXXOEP">     0</i>
   <i type="int" name="FOURORBIT">     0</i>
   <i name="AEXX">      0.00000000</i>
   <i name="HFALPHA">      0.00000000</i>
   <i name="MCALPHA">      0.00000000</i>
   <i name="ALDAX">      1.00000000</i>
   <i name="AGGAX">      1.00000000</i>
   <i name="ALDAC">      1.00000000</i>
   <i name="AGGAC">      1.00000000</i>
   <i type="int" name="NKREDX">     1</i>
   <i type="int" name="NKREDY">     1</i>
   <i type="int" name="NKREDZ">     1</i>
   <i type="logical" name="SHIFTRED"> F  </i>
   <i type="logical" name="ODDONLY"> F  </i>
   <i type="logical" name="EVENONLY"> F  </i>
   <i type="int" name="LMAXFOCK">     0</i>
   <i type="int" name="NMAXFOCKAE">     0</i>
   <i type="logical" name="LFOCKAEDFT"> F  </i>
   <i name="HFSCREEN">      0.00000000</i>
   <i name="HFSCREENC">      0.00000000</i>
   <i type="int" name="NBANDSGWLOW">     0</i>
  </separator>
  <separator name="vdW DFT" >
   <i type="logical" name="LUSE_VDW"> F  </i>
   <i name="Zab_VDW">     -0.84910000</i>
   <i name="PARAM1">      0.12340000</i>
   <i name="PARAM2">      1.00000000</i>
   <i name="PARAM3">      0.00000000</i>
  </separator>
  <separator name="model GW" >
   <i type="int" name="MODEL_GW">     0</i>
   <i name="MODEL_EPS0">      6.87226868</i>
   <i name="MODEL_ALPHA">      1.00000000</i>
  </separator>
  <separator name="linear response parameters" >
   <i type="logical" name="LEPSILON"> F  </i>
   <i type="logical" name="LRPA"> F  </i>
   <i type="logical" name="LNABLA"> F  </i>
   <i type="logical" name="LVEL"> F  </i>
   <i type="int" name="KINTER">     0</i>
   <i name="CSHIFT">      0.10000000</i>
   <i name="OMEGAMAX">     -1.00000000</i>
   <i name="DEG_THRESHOLD">      0.00200000</i>
   <i name="RTIME">     -0.10000000</i>
   <i name="WPLASMAI">      0.00000000</i>
   <v name="DFIELD">      0.00000000      0.00000000      0.00000000</v>
   <v name="WPLASMA">      0.00000000      0.00000000      0.00000000      0.00000000      0.00000000      0.00000000      0.00000000      0.00000000      0.00000000</v>
  </separator>
  <separator name="orbital magnetization" >
   <i type="logical" name="NUCIND"> F  </i>
   <v name="MAGPOS">      0.00000000      0.00000000      0.00000000</v>
   <i type="logical" name="LNICSALL"> T  </i>
   <i type="logical" name="ORBITALMAG"> F  </i>
   <i type="logical" name="LMAGBLOCH"> F  </i>
   <i type="logical" name="LCHIMAG"> F  </i>
   <i type="logical" name="LGAUGE"> T  </i>
   <i type="int" name="MAGATOM">     0</i>
   <v name="MAGDIPOL">      0.00000000      0.00000000      0.00000000</v>
   <v name="AVECCONST">      0.00000000      0.00000000      0.00000000</v>
  </separator>
  <separator name="response functions" >
   <i type="logical" name="LADDER"> F  </i>
   <i type="logical" name="LRPAFORCE"> F  </i>
   <i type="logical" name="LFXC"> F  </i>
   <i type="logical" name="LHARTREE"> T  </i>
   <i type="int" name="IBSE">     0</i>
   <v type="int" name="KPOINT">    -1     0     0     0</v>
   <i type="logical" name="LTCTE"> F  </i>
   <i type="logical" name="LTETE"> F  </i>
   <i type="logical" name="LTRIPLET"> F  </i>
   <i type="logical" name="LFXCEPS"> F  </i>
   <i type="logical" name="LFXHEG"> F  </i>
   <i type="int" name="NATURALO">     2</i>
   <i type="logical" name="L2ORDER"> F  </i>
   <i type="logical" name="LMP2LT"> F  </i>
   <i type="logical" name="LUSEW"> F  </i>
   <i name="ENCUTGW">     -2.00000000</i>
   <i name="ENCUTGWSOFT">     -2.00000000</i>
   <i name="ENCUTLF">     -1.00000000</i>
   <i type="int" name="LMAXMP2">    -1</i>
   <i name="SCISSOR">      0.00000000</i>
   <i type="int" name="NOMEGA">     0</i>
   <i type="int" name="NOMEGAR">     0</i>
   <i type="int" name="NBANDSGW">    -1</i>
   <i type="int" name="NBANDSO">    -1</i>
   <i type="int" name="NBANDSV">    -1</i>
   <i type="int" name="NELM">   100</i>
   <i type="int" name="NELMHF">     1</i>
   <i type="int" name="DIM">     3</i>
   <i type="int" name="ANTIRES">     0</i>
   <i name="OMEGAMAX">    -30.00000000</i>
   <i name="OMEGAMIN">    -30.00000000</i>
   <i name="OMEGATL">   -200.00000000</i>
   <i type="int" name="OMEGAGRID">   140</i>
   <i name="CSHIFT">     -0.10000000</i>
   <i type="logical" name="SELFENERGY"> F  </i>
   <i type="logical" name="LSPECTRAL"> F  </i>
   <i type="logical" name="LSPECTRALGW"> F  </i>
   <i type="logical" name="LSINGLES"> F  </i>
   <i type="logical" name="LFERMIGW"> F  </i>
   <i type="logical" name="ODDONLYGW"> F  </i>
   <i type="logical" name="EVENONLYGW"> F  </i>
   <i type="int" name="NKREDLFX">     1</i>
   <i type="int" name="NKREDLFY">     1</i>
   <i type="int" name="NKREDLFZ">     1</i>
   <i type="int" name="MAXMEM">  2800</i>
   <i type="int" name="TELESCOPE">     0</i>
   <i type="int" name="TAUPAR">     1</i>
   <i type="int" name="OMEGAPAR">    -1</i>
   <i name="LAMBDA">      1.00000000</i>
  </separator>
  <separator name="External order field" >
   <i name="OFIELD_KAPPA">      0.00000000</i>
   <v name="OFIELD_K">      0.00000000      0.00000000      0.00000000</v>
   <i name="OFIELD_Q6_NEAR">      0.00000000</i>
   <i name="OFIELD_Q6_FAR">      0.00000000</i>
   <i name="OFIELD_A">      0.00000000</i>
  </separator>
 </parameters>
 <atominfo>
  <atoms>       2 </atoms>
  <types>       1 </types>
  <array name="atoms" >
   <dimension dim="1">ion</dimension>
   <field type="string">element</field>
   <field type="int">atomtype</field>
   <set>
    <rc><c>Fe</c><c>   1</c></rc>
    <rc><c>Fe</c><c>   1</c></rc>
   </set>
  </array>
  <array name="atomtypes" >
   <dimension dim="1">type</dimension>
   <field type="int">atomspertype</field>
   <field type="string">element</field>
   <field>mass</field>
   <field>valence</field>
   <field type="string">pseudopotential</field>
   <set>
    <rc><c>   2</c><c>Fe</c><c>     55.84700000</c><c>     14.00000000</c><c>  PAW_PBE Fe_pv 02Aug2007               </c></rc>
   </set>
  </array>
 </atominfo>
 <structure name="initialpos" >
  <crystal>
   <varray name="basis" >
    <v>       2.84005200       0.00000000       0.00000000 </v>
    <v>       0.00000000       2.84005200       0.00000000 </v>
    <v>       0.00000000       0.00000000       2.84005200 </v>
   </varray>
   <i name="volume">     22.90756226 </i>
   <varray name="rec_basis" >
    <v>       0.35210623       0.00000000       0.00000000 </v>
    <v>       0.00000000       0.35210623       0.00000000 </v>
    <v>       0.00000000       0.00000000       0.35210623 </v>
   </varray>
  </crystal>
  <varray name="positions" >
   <v>       0.00000000       0.00000000       0.00000000 </v>
   <v>       0.50000000       0.50000000       0.50000000 </v>
  </varray>
 </structure>
 <calculation>
  <scstep>
   <time name="dav">    0.40    0.42</time>
   <time name="total">    0.45    0.46</time>
   <energy>
    <i name="alphaZ">    218.87048721 </i>
    <i name="ewald">  -3616.56080017 </i>
    <i name="hartreedc">  -1162.86386254 </i>
    <i name="XCdc">    147.54620390 </i>
    <i name="pawpsdc">   3997.93860218 </i>
    <i name="pawaedc">  -4177.34792201 </i>
    <i name="eentropy">      0.00000000 </i>
    <i name="bandstr">   -134.64831385 </i>
    <i name="atom">   4914.79540123 </i>
    <i name="e_fr_energy">    187.72979595 </i>
    <i name="e_wo_entrp">    187.72979595 </i>
    <i name="e_0_energy">    187.72979595 </i>
   </energy>
  </scstep>
  <scstep>
   <time name="dav">    0.38    0.38</time>
   <time name="total">    0.41    0.41</time>
   <energy>
    <i name="e_fr_energy">    -10.97526811 </i>
    <i name="e_wo_entrp">    -10.97526811 </i>
    <i name="e_0_energy">    -10.97526811 </i>
   </energy>
  </scstep>
  <scstep>
   <time name="dav">    0.41    0.41</time>
   <time name="total">    0.45    0.45</time>
   <energy>
    <i name="e_fr_energy">    -16.22798016 </i>
    <i name="e_wo_entrp">    -16.22798016 </i>
    <i name="e_0_energy">    -16.22798016 </i>
   </energy>
  </scstep>
  <scstep>
   <time name="dav">    0.42    0.42</time>
   <time name="total">    0.45    0.45</time>
   <energy>
    <i name="e_fr_energy">    -16.26896729 </i>
    <i name="e_wo_entrp">    -16.26896729 </i>
    <i name="e_0_energy">    -16.26896729 </i>
   </energy>
  </scstep>
  <scstep>
   <time name="dav">    0.42    0.42</time>
   <time name="total">    0.46    0.46</time>
   <energy>
    <i name="e_fr_energy">    -16.26969532 </i>
    <i name="e_wo_entrp">    -16.26969532 </i>
    <i name="e_0_energy">    -16.26969532 </i>
   </energy>
  </scstep>
  <scstep>
   <time name="dav">    0.37    0.38</time>
   <time name="total">    0.43    0.43</time>
   <energy>
    <i name="e_fr_energy">    -16.43473249 </i>
    <i name="e_wo_entrp">    -16.43473249 </i>
    <i name="e_0_energy">    -16.43473249 </i>
   </energy>
  </scstep>
  <scstep>
   <time name="dav">    0.37    0.37</time>
   <time name="total">    0.42    0.42</time>
   <energy>
    <i name="e_fr_energy">    -16.50568717 </i>
    <i name="e_wo_entrp">    -16.50568717 </i>
    <i name="e_0_energy">    -16.50568717 </i>
   </energy>
  </scstep>
  <scstep>
   <time name="dav">    0.41    0.41</time>
   <time name="total">    0.47    0.47</time>
   <energy>
    <i name="e_fr_energy">    -16.51747693 </i>
    <i name="e_wo_entrp">    -16.51747693 </i>
    <i name="e_0_energy">    -16.51747693 </i>
   </energy>
  </scstep>
  <scstep>
   <time name="dav">    0.39    0.39</time>
   <time name="total">    0.45    0.45</time>
   <energy>
    <i name="e_fr_energy">    -16.51003733 </i>
    <i name="e_wo_entrp">    -16.51003733 </i>
    <i name="e_0_energy">    -16.51003733 </i>
   </energy>
  </scstep>
  <scstep>
   <time name="dav">    0.38    0.38</time>
   <time name="total">    0.43    0.43</time>
   <energy>
    <i name="e_fr_energy">    -16.50998291 </i>
    <i name="e_wo_entrp">    -16.50998291 </i>
    <i name="e_0_energy">    -16.50998291 </i>
   </energy>
  </scstep>
  <scstep>
   <time name="dav">    0.39    0.39</time>
   <time name="total">    0.44    0.44</time>
   <energy>
    <i name="e_fr_energy">    -16.51005104 </i>
    <i name="e_wo_entrp">    -16.51005104 </i>
    <i name="e_0_energy">    -16.51005104 </i>
   </energy>
  </scstep>
  <scstep>
   <time name="dav">    0.42    0.42</time>
   <time name="total">    0.47    0.47</time>
   <energy>
    <i name="e_fr_energy">    -16.51005809 </i>
    <i name="e_wo_entrp">    -16.51005809 </i>
    <i name="e_0_energy">    -16.51005809 </i>
   </energy>
  </scstep>
  <scstep>
   <time name="dav">    0.38    0.38</time>
   <time name="total">    0.43    0.43</time>
   <energy>
    <i name="e_fr_energy">    -16.51005027 </i>
    <i name="e_wo_entrp">    -16.51005027 </i>
    <i name="e_0_energy">    -16.51005027 </i>
   </energy>
  </scstep>
  <scstep>
   <time name="dav">    0.33    0.33</time>
   <time name="total">    0.38    0.38</time>
   <energy>
    <i name="e_fr_energy">    -16.51004996 </i>
    <i name="e_wo_entrp">    -16.51004996 </i>
    <i name="e_0_energy">    -16.51004996 </i>
   </energy>
  </scstep>
  <scstep>
   <time name="dav">    0.25    0.25</time>
   <time name="total">    0.30    0.30</time>
   <energy>
    <i name="e_fr_energy">    -16.51005010 </i>
    <i name="e_wo_entrp">    -16.51005010 </i>
    <i name="e_0_energy">    -16.51005010 </i>
   </energy>
  </scstep>
  <scstep>
   <time name="dav">    0.25    0.25</time>
   <time name="total">    0.30    0.30</time>
   <energy>
    <i name="e_fr_energy">    -16.51004987 </i>
    <i name="e_wo_entrp">    -16.51004987 </i>
    <i name="e_0_energy">    -16.51004987 </i>
   </energy>
  </scstep>
  <scstep>
   <time name="dav">    0.24    0.24</time>
   <time name="total">    0.30    0.30</time>
   <energy>
    <i name="e_fr_energy">    -16.51004999 </i>
    <i name="e_wo_entrp">    -16.51004999 </i>
    <i name="e_0_energy">    -16.51004999 </i>
   </energy>
  </scstep>
  <scstep>
   <time name="dav">    0.24    0.24</time>
   <time name="total">    0.29    0.29</time>
   <energy>
    <i name="alphaZ">    218.87048721 </i>
    <i name="ewald">  -3616.56080017 </i>
    <i name="hartreedc">  -1089.99286043 </i>
    <i name="XCdc">    140.87592111 </i>
    <i name="pawpsdc">   4374.58622574 </i>
    <i name="pawaedc">  -4559.87786825 </i>
    <i name="eentropy">      0.00000000 </i>
    <i name="bandstr">   -399.20655642 </i>
    <i name="atom">   4914.79540123 </i>
    <i name="e_fr_energy">    -16.51004998 </i>
    <i name="e_wo_entrp">    -16.51004998 </i>
    <i name="e_0_energy">    -16.51004998 </i>
   </energy>
  </scstep>
  <structure>
   <crystal>
    <varray name="basis" >
     <v>       2.84005200       0.00000000       0.00000000 </v>
     <v>       0.00000000       2.84005200       0.00000000 </v>
     <v>       0.00000000       0.00000000       2.84005200 </v>
    </varray>
    <i name="volume">     22.90756226 </i>
    <varray name="rec_basis" >
     <v>       0.35210623       0.00000000       0.00000000 </v>
     <v>       0.00000000       0.35210623       0.00000000 </v>
     <v>       0.00000000       0.00000000       0.35210623 </v>
    </varray>
   </crystal>
   <varray name="positions" >
    <v>       0.00000000       0.00000000       0.00000000 </v>
    <v>       0.50000000       0.50000000       0.50000000 </v>
   </varray>
  </structure>
  <varray name="forces" >
   <v>      -0.00000000       0.00000000      -0.00000000 </v>
   <v>       0.00000000      -0.00000000       0.00000000 </v>
  </varray>
  <varray name="stress" >
   <v>     -31.42062170       0.00000000      -0.00000000 </v>
   <v>      -0.00000000     -31.42062170       0.00000000 </v>
   <v>      -0.00000000       0.00000000     -31.42062170 </v>
  </varray>
  <energy>
   <i name="e_fr_energy">    -16.51004998 </i>
   <i name="e_wo_entrp">    -16.51004998 </i>
   <i name="e_0_energy">      0.00000000 </i>
  </energy>
  <time name="totalsc">    7.58    7.61</time>
  <eigenvalues>
   <array>
    <dimension dim="1">band</dimension>
    <dimension dim="2">kpoint</dimension>
    <dimension dim="3">spin</dimension>
    <field>eigene</field>
    <field>occ</field>
    <set>
     <set comment="spin 1">
      <set comment="kpoint 1">
       <r>  -44.5586    1.0000 </r>
       <r>  -44.5586    1.0000 </r>
       <r>  -44.5443    1.0000 </r>
       <r>  -44.2864    1.0000 </r>
       <r>  -44.2721    1.0000 </r>
       <r>  -44.2721    1.0000 </r>
       <r>    1.3954    1.0000 </r>
       <r>    4.9404    1.0000 </r>
       <r>    4.9404    1.0000 </r>
       <r>    7.3072    1.0000 </r>
       <r>    7.3072    1.0000 </r>
       <r>    7.4337    1.0000 </r>
       <r>    8.5829    1.0000 </r>
       <r>    8.5829    1.0000 </r>
       <r>    9.4962    1.0000 </r>
       <r>    9.6886    0.6016 </r>
       <r>    9.6886    0.0098 </r>
       <r>   19.1977    0.0000 </r>
       <r>   19.1977    0.0000 </r>
       <r>   19.4393    0.0000 </r>
       <r>   25.8114    0.0000 </r>
       <r>   25.8114    0.0000 </r>
       <r>   30.6898    0.0000 </r>
       <r>   33.3494    0.0000 </r>
      </set>
      <set comment="kpoint 2">
       <r>  -44.5645    1.0000 </r>
       <r>  -44.5438    1.0000 </r>
       <r>  -44.5220    1.0000 </r>
       <r>  -44.3181    1.0000 </r>
       <r>  -44.2848    1.0000 </r>
       <r>  -44.2774    1.0000 </r>
       <r>    1.7991    1.0000 </r>
       <r>    5.1083    1.0000 </r>
       <r>    5.1106    1.0000 </r>
       <r>    7.2489    1.0000 </r>
       <r>    7.2977    1.0000 </r>
       <r>    7.6020    1.0000 </r>
       <r>    8.4168    1.0000 </r>
       <r>    8.6579    1.0000 </r>
       <r>    9.1057    1.0000 </r>
       <r>    9.3740    1.0211 </r>
       <r>    9.6672    0.1366 </r>
       <r>   17.0971    0.0000 </r>
       <r>   19.9167    0.0000 </r>
       <r>   20.0934    0.0000 </r>
       <r>   25.9629    0.0000 </r>
       <r>   27.1440    0.0000 </r>
       <r>   31.5533    0.0000 </r>
       <r>   32.1434    0.0000 </r>
      </set>
      <set comment="kpoint 3">
       <r>  -44.5610    1.0000 </r>
       <r>  -44.5158    1.0000 </r>
       <r>  -44.4908    1.0000 </r>
       <r>  -44.3661    1.0000 </r>
       <r>  -44.3103    1.0000 </r>
       <r>  -44.2974    1.0000 </r>
       <r>    2.5647    1.0000 </r>
       <r>    5.3701    1.0000 </r>
       <r>    5.4297    1.0000 </r>
       <r>    7.2451    1.0000 </r>
       <r>    7.2901    1.0000 </r>
       <r>    7.8441    1.0000 </r>
       <r>    8.1104    1.0000 </r>
       <r>    8.6085    1.0000 </r>
       <r>    8.7971    1.0000 </r>
       <r>    8.8908    1.0000 </r>
       <r>    9.4875    1.0395 </r>
       <r>   14.5741    0.0000 </r>
       <r>   21.1861    0.0000 </r>
       <r>   21.3563    0.0000 </r>
       <r>   26.2955    0.0000 </r>
       <r>   27.9703    0.0000 </r>
       <r>   29.6294    0.0000 </r>
       <r>   31.2951    0.0000 </r>
      </set>
      <set comment="kpoint 4">
       <r>  -44.5466    1.0000 </r>
       <r>  -44.4778    1.0000 </r>
       <r>  -44.4529    1.0000 </r>
       <r>  -44.4209    1.0000 </r>
       <r>  -44.3456    1.0000 </r>
       <r>  -44.3285    1.0000 </r>
       <r>    3.5873    1.0000 </r>
       <r>    5.5419    1.0000 </r>
       <r>    5.8748    1.0000 </r>
       <r>    7.2484    1.0000 </r>
       <r>    7.3241    1.0000 </r>
       <r>    7.7706    1.0000 </r>
       <r>    8.1323    1.0000 </r>
       <r>    8.1527    1.0000 </r>
       <r>    8.3948    1.0000 </r>
       <r>    9.0218    1.0000 </r>
       <r>    9.2020    1.0386 </r>
       <r>   12.2823    0.0000 </r>
       <r>   22.7931    0.0000 </r>
       <r>   23.0052    0.0000 </r>
       <r>   26.8762    0.0000 </r>
       <r>   27.8752    0.0000 </r>
       <r>   28.6082    0.0000 </r>
       <r>   29.1458    0.0000 </r>
      </set>
      <set comment="kpoint 5">
       <r>  -44.5179    1.0000 </r>
       <r>  -44.4749    1.0000 </r>
       <r>  -44.4339    1.0000 </r>
       <r>  -44.4106    1.0000 </r>
       <r>  -44.3883    1.0000 </r>
       <r>  -44.3676    1.0000 </r>
       <r>    4.6399    1.0000 </r>
       <r>    5.3585    1.0000 </r>
       <r>    6.3970    1.0000 </r>
       <r>    6.9197    1.0000 </r>
       <r>    7.5015    1.0000 </r>
       <r>    7.7335    1.0000 </r>
       <r>    7.7645    1.0000 </r>
       <r>    7.9874    1.0000 </r>
       <r>    8.5012    1.0000 </r>
       <r>    8.8593    1.0000 </r>
       <r>    9.4845    0.9857 </r>
       <r>   10.5198    0.0000 </r>
       <r>   24.5315    0.0000 </r>
       <r>   24.9025    0.0000 </r>
       <r>   26.2265    0.0000 </r>
       <r>   26.9652    0.0000 </r>
       <r>   27.8215    0.0000 </r>
       <r>   29.2506    0.0000 </r>
      </set>
      <set comment="kpoint 6">
       <r>  -44.5785    1.0000 </r>
       <r>  -44.5349    1.0000 </r>
       <r>  -44.4891    1.0000 </r>
       <r>  -44.3599    1.0000 </r>
       <r>  -44.2953    1.0000 </r>
       <r>  -44.2719    1.0000 </r>
       <r>    2.1870    1.0000 </r>
       <r>    5.2413    1.0000 </r>
       <r>    5.3003    1.0000 </r>
       <r>    7.0964    1.0000 </r>
       <r>    7.2400    1.0000 </r>
       <r>    7.8725    1.0000 </r>
       <r>    8.4411    1.0000 </r>
       <r>    8.6131    1.0000 </r>
       <r>    8.6264    1.0000 </r>
       <r>    9.1513    1.0069 </r>
       <r>    9.7363    0.0316 </r>
       <r>   17.1947    0.0000 </r>
       <r>   18.2788    0.0000 </r>
       <r>   20.6488    0.0000 </r>
       <r>   26.6287    0.0000 </r>
       <r>   28.5398    0.0000 </r>
       <r>   29.9221    0.0000 </r>
       <r>   31.9698    0.0000 </r>
      </set>
      <set comment="kpoint 7">
       <r>  -44.5873    1.0000 </r>
       <r>  -44.5091    1.0000 </r>
       <r>  -44.4511    1.0000 </r>
       <r>  -44.4145    1.0000 </r>
       <r>  -44.3183    1.0000 </r>
       <r>  -44.2793    1.0000 </r>
       <r>    2.9136    1.0000 </r>
       <r>    5.4577    1.0000 </r>
       <r>    5.6232    1.0000 </r>
       <r>    6.9909    1.0000 </r>
       <r>    7.1849    1.0000 </r>
       <r>    8.1078    1.0000 </r>
       <r>    8.2025    1.0000 </r>
       <r>    8.2850    1.0000 </r>
       <r>    8.7234    1.0000 </r>
       <r>    8.7270    1.0000 </r>
       <r>    9.6902    0.2892 </r>
       <r>   14.9826    0.0000 </r>
       <r>   19.0102    0.0000 </r>
       <r>   21.7936    0.0000 </r>
       <r>   27.0200    0.0000 </r>
       <r>   27.7474    0.0000 </r>
       <r>   29.9236    0.0000 </r>
       <r>   30.6408    0.0000 </r>
      </set>
      <set comment="kpoint 8">
       <r>  -44.5831    1.0000 </r>
       <r>  -44.4735    1.0000 </r>
       <r>  -44.4722    1.0000 </r>
       <r>  -44.4105    1.0000 </r>
       <r>  -44.3507    1.0000 </r>
       <r>  -44.3001    1.0000 </r>
       <r>    3.8563    1.0000 </r>
       <r>    5.5974    1.0000 </r>
       <r>    6.0139    1.0000 </r>
       <r>    6.9673    1.0000 </r>
       <r>    7.1212    1.0000 </r>
       <r>    7.6692    1.0000 </r>
       <r>    8.0957    1.0000 </r>
       <r>    8.3396    1.0000 </r>
       <r>    8.5665    1.0000 </r>
       <r>    8.9656    1.0000 </r>
       <r>    9.4986    0.9240 </r>
       <r>   12.6525    0.0000 </r>
       <r>   20.3745    0.0000 </r>
       <r>   23.3101    0.0000 </r>
       <r>   25.6596    0.0000 </r>
       <r>   27.5888    0.0000 </r>
       <r>   28.7781    0.0000 </r>
       <r>   30.9253    0.0000 </r>
      </set>
      <set comment="kpoint 9">
       <r>  -44.5622    1.0000 </r>
       <r>  -44.5244    1.0000 </r>
       <r>  -44.4324    1.0000 </r>
       <r>  -44.3900    1.0000 </r>
       <r>  -44.3693    1.0000 </r>
       <r>  -44.3314    1.0000 </r>
       <r>    4.7809    1.0000 </r>
       <r>    5.4053    1.0000 </r>
       <r>    6.4389    1.0000 </r>
       <r>    6.8172    1.0000 </r>
       <r>    7.1523    1.0000 </r>
       <r>    7.3581    1.0000 </r>
       <r>    8.0573    1.0000 </r>
       <r>    8.1308    1.0000 </r>
       <r>    8.8913    1.0000 </r>
       <r>    9.2099    1.0000 </r>
       <r>    9.5424    0.7801 </r>
       <r>   10.7645    0.0000 </r>
       <r>   21.9634    0.0000 </r>
       <r>   23.7281    0.0000 </r>
       <r>   25.0456    0.0000 </r>
       <r>   26.8816    0.0000 </r>
       <r>   28.4940    0.0000 </r>
       <r>   29.8465    0.0000 </r>
      </set>
      <set comment="kpoint 10">
       <r>  -44.6106    1.0000 </r>
       <r>  -44.4884    1.0000 </r>
       <r>  -44.4740    1.0000 </r>
       <r>  -44.4081    1.0000 </r>
       <r>  -44.3361    1.0000 </r>
       <r>  -44.2718    1.0000 </r>
       <r>    3.5369    1.0000 </r>
       <r>    5.5125    1.0000 </r>
       <r>    6.0165    1.0000 </r>
       <r>    6.7742    1.0000 </r>
       <r>    7.1559    1.0000 </r>
       <r>    7.6009    1.0000 </r>
       <r>    8.4288    1.0000 </r>
       <r>    8.4305    1.0000 </r>
       <r>    8.6252    1.0000 </r>
       <r>    8.6675    1.0000 </r>
       <r>    9.8096   -0.0340 </r>
       <r>   14.8623    0.0000 </r>
       <r>   17.4637    0.0000 </r>
       <r>   22.7528    0.0000 </r>
       <r>   25.3825    0.0000 </r>
       <r>   27.3659    0.0000 </r>
       <r>   30.0594    0.0000 </r>
       <r>   32.3855    0.0000 </r>
      </set>
      <set comment="kpoint 11">
       <r>  -44.6196    1.0000 </r>
       <r>  -44.5327    1.0000 </r>
       <r>  -44.4594    1.0000 </r>
       <r>  -44.3664    1.0000 </r>
       <r>  -44.3615    1.0000 </r>
       <r>  -44.2787    1.0000 </r>
       <r>    4.2624    1.0000 </r>
       <r>    5.4697    1.0000 </r>
       <r>    6.4696    1.0000 </r>
       <r>    6.6669    1.0000 </r>
       <r>    7.1918    1.0000 </r>
       <r>    7.2450    1.0000 </r>
       <r>    8.2749    1.0000 </r>
       <r>    8.4071    1.0000 </r>
       <r>    8.8123    1.0000 </r>
       <r>    9.0717    1.0219 </r>
       <r>    9.7597    0.0040 </r>
       <r>   13.0476    0.0000 </r>
       <r>   18.1016    0.0000 </r>
       <r>   23.1666    0.0000 </r>
       <r>   24.0643    0.0000 </r>
       <r>   27.8474    0.0000 </r>
       <r>   28.7844    0.0000 </r>
       <r>   31.4396    0.0000 </r>
      </set>
      <set comment="kpoint 12">
       <r>  -44.6100    1.0000 </r>
       <r>  -44.5804    1.0000 </r>
       <r>  -44.4262    1.0000 </r>
       <r>  -44.3925    1.0000 </r>
       <r>  -44.3291    1.0000 </r>
       <r>  -44.2991    1.0000 </r>
       <r>    4.8666    1.0000 </r>
       <r>    5.2609    1.0000 </r>
       <r>    6.6849    1.0000 </r>
       <r>    6.7732    1.0000 </r>
       <r>    7.0144    1.0000 </r>
       <r>    7.2257    1.0000 </r>
       <r>    8.3147    1.0000 </r>
       <r>    8.3977    1.0000 </r>
       <r>    9.1829    1.0000 </r>
       <r>    9.5486    0.9517 </r>
       <r>    9.7298    0.0306 </r>
       <r>   11.1094    0.0000 </r>
       <r>   19.4871    0.0000 </r>
       <r>   21.1916    0.0000 </r>
       <r>   25.5941    0.0000 </r>
       <r>   27.2056    0.0000 </r>
       <r>   28.6459    0.0000 </r>
       <r>   29.8676    0.0000 </r>
      </set>
      <set comment="kpoint 13">
       <r>  -44.6425    1.0000 </r>
       <r>  -44.5873    1.0000 </r>
       <r>  -44.4399    1.0000 </r>
       <r>  -44.3769    1.0000 </r>
       <r>  -44.3279    1.0000 </r>
       <r>  -44.2716    1.0000 </r>
       <r>    4.6031    1.0000 </r>
       <r>    5.2520    1.0000 </r>
       <r>    6.4703    1.0000 </r>
       <r>    6.7927    1.0000 </r>
       <r>    7.0712    1.0000 </r>
       <r>    7.8008    1.0000 </r>
       <r>    8.3311    1.0000 </r>
       <r>    8.5843    1.0000 </r>
       <r>    8.7341    1.0000 </r>
       <r>    9.5063    0.9630 </r>
       <r>    9.8601   -0.0050 </r>
       <r>   12.6722    0.0000 </r>
       <r>   17.0733    0.0000 </r>
       <r>   20.9310    0.0000 </r>
       <r>   25.1084    0.0000 </r>
       <r>   28.2068    0.0000 </r>
       <r>   28.4076    0.0000 </r>
       <r>   30.7454    0.0000 </r>
      </set>
      <set comment="kpoint 14">
       <r>  -44.6461    1.0000 </r>
       <r>  -44.6269    1.0000 </r>
       <r>  -44.4181    1.0000 </r>
       <r>  -44.3963    1.0000 </r>
       <r>  -44.2980    1.0000 </r>
       <r>  -44.2785    1.0000 </r>
       <r>    4.8287    1.0000 </r>
       <r>    5.0289    1.0000 </r>
       <r>    6.4188    1.0000 </r>
       <r>    6.5281    1.0000 </r>
       <r>    7.6354    1.0000 </r>
       <r>    8.0170    1.0000 </r>
       <r>    8.4793    1.0000 </r>
       <r>    8.6107    1.0000 </r>
       <r>    9.2360    1.0000 </r>
       <r>    9.7491    0.3170 </r>
       <r>   10.0501    0.0000 </r>
       <r>   11.2873    0.0000 </r>
       <r>   17.6503    0.0000 </r>
       <r>   19.0547    0.0000 </r>
       <r>   26.3147    0.0000 </r>
       <r>   27.4983    0.0000 </r>
       <r>   28.8166    0.0000 </r>
       <r>   29.7244    0.0000 </r>
      </set>
      <set comment="kpoint 15">
       <r>  -44.6627    1.0000 </r>
       <r>  -44.6561    1.0000 </r>
       <r>  -44.4097    1.0000 </r>
       <r>  -44.4022    1.0000 </r>
       <r>  -44.2785    1.0000 </r>
       <r>  -44.2718    1.0000 </r>
       <r>    4.7970    1.0000 </r>
       <r>    4.8586    1.0000 </r>
       <r>    6.2896    1.0000 </r>
       <r>    6.3270    1.0000 </r>
       <r>    8.3626    1.0000 </r>
       <r>    8.6006    1.0000 </r>
       <r>    8.6216    1.0000 </r>
       <r>    8.7829    1.0000 </r>
       <r>    9.2767    1.0000 </r>
       <r>    9.7038    0.2838 </r>
       <r>   10.4356    0.0000 </r>
       <r>   10.9856    0.0000 </r>
       <r>   16.9410    0.0000 </r>
       <r>   17.5271    0.0000 </r>
       <r>   27.0335    0.0000 </r>
       <r>   27.4874    0.0000 </r>
       <r>   29.0820    0.0000 </r>
       <r>   29.4263    0.0000 </r>
      </set>
      <set comment="kpoint 16">
       <r>  -44.5625    1.0000 </r>
       <r>  -44.5625    1.0000 </r>
       <r>  -44.4529    1.0000 </r>
       <r>  -44.3973    1.0000 </r>
       <r>  -44.2857    1.0000 </r>
       <r>  -44.2857    1.0000 </r>
       <r>    2.5643    1.0000 </r>
       <r>    5.4289    1.0000 </r>
       <r>    5.4289    1.0000 </r>
       <r>    7.0393    1.0000 </r>
       <r>    7.0393    1.0000 </r>
       <r>    8.0880    1.0000 </r>
       <r>    8.1885    1.0000 </r>
       <r>    8.5307    1.0000 </r>
       <r>    8.5307    1.0000 </r>
       <r>    9.4267    0.9998 </r>
       <r>    9.4267    1.1123 </r>
       <r>   17.8401    0.0000 </r>
       <r>   17.8401    0.0000 </r>
       <r>   19.2341    0.0000 </r>
       <r>   28.7880    0.0000 </r>
       <r>   28.7880    0.0000 </r>
       <r>   29.7387    0.0000 </r>
       <r>   29.7387    0.0000 </r>
      </set>
      <set comment="kpoint 17">
       <r>  -44.5827    1.0000 </r>
       <r>  -44.5329    1.0000 </r>
       <r>  -44.4486    1.0000 </r>
       <r>  -44.4152    1.0000 </r>
       <r>  -44.3133    1.0000 </r>
       <r>  -44.2854    1.0000 </r>
       <r>    3.2634    1.0000 </r>
       <r>    5.6678    1.0000 </r>
       <r>    5.7021    1.0000 </r>
       <r>    6.9063    1.0000 </r>
       <r>    6.9376    1.0000 </r>
       <r>    7.5752    1.0000 </r>
       <r>    8.3849    1.0000 </r>
       <r>    8.5872    1.0000 </r>
       <r>    8.6853    1.0000 </r>
       <r>    8.9737    1.0000 </r>
       <r>    9.5079    0.9529 </r>
       <r>   15.4690    0.0000 </r>
       <r>   18.9542    0.0000 </r>
       <r>   19.8740    0.0000 </r>
       <r>   27.5256    0.0000 </r>
       <r>   28.5406    0.0000 </r>
       <r>   29.3034    0.0000 </r>
       <r>   30.5088    0.0000 </r>
      </set>
      <set comment="kpoint 18">
       <r>  -44.5887    1.0000 </r>
       <r>  -44.5017    1.0000 </r>
       <r>  -44.4925    1.0000 </r>
       <r>  -44.3783    1.0000 </r>
       <r>  -44.3512    1.0000 </r>
       <r>  -44.2958    1.0000 </r>
       <r>    4.1471    1.0000 </r>
       <r>    5.8211    1.0000 </r>
       <r>    5.9810    1.0000 </r>
       <r>    6.7980    1.0000 </r>
       <r>    6.9321    1.0000 </r>
       <r>    7.2701    1.0000 </r>
       <r>    8.2288    1.0000 </r>
       <r>    8.5478    1.0000 </r>
       <r>    8.8107    1.0000 </r>
       <r>    9.1297    1.0000 </r>
       <r>    9.4084    0.9273 </r>
       <r>   13.1237    0.0000 </r>
       <r>   20.3540    0.0000 </r>
       <r>   21.0623    0.0000 </r>
       <r>   25.4922    0.0000 </r>
       <r>   26.4557    0.0000 </r>
       <r>   30.1156    0.0000 </r>
       <r>   31.4541    0.0000 </r>
      </set>
      <set comment="kpoint 19">
       <r>  -44.5769    1.0000 </r>
       <r>  -44.5472    1.0000 </r>
       <r>  -44.4452    1.0000 </r>
       <r>  -44.3966    1.0000 </r>
       <r>  -44.3444    1.0000 </r>
       <r>  -44.3165    1.0000 </r>
       <r>    4.9798    1.0000 </r>
       <r>    5.5632    1.0000 </r>
       <r>    6.3122    1.0000 </r>
       <r>    6.5961    1.0000 </r>
       <r>    7.0963    1.0000 </r>
       <r>    7.2072    1.0000 </r>
       <r>    8.1565    1.0000 </r>
       <r>    8.2578    1.0000 </r>
       <r>    8.9757    1.0000 </r>
       <r>    9.1953    1.0000 </r>
       <r>    9.9056   -0.0488 </r>
       <r>   11.2099    0.0000 </r>
       <r>   21.9284    0.0000 </r>
       <r>   22.5734    0.0000 </r>
       <r>   23.6371    0.0000 </r>
       <r>   24.3837    0.0000 </r>
       <r>   31.2417    0.0000 </r>
       <r>   32.1286    0.0000 </r>
      </set>
      <set comment="kpoint 20">
       <r>  -44.5934    1.0000 </r>
       <r>  -44.5238    1.0000 </r>
       <r>  -44.4965    1.0000 </r>
       <r>  -44.3785    1.0000 </r>
       <r>  -44.3276    1.0000 </r>
       <r>  -44.2872    1.0000 </r>
       <r>    3.8848    1.0000 </r>
       <r>    5.7549    1.0000 </r>
       <r>    6.0655    1.0000 </r>
       <r>    6.7021    1.0000 </r>
       <r>    6.8502    1.0000 </r>
       <r>    7.0969    1.0000 </r>
       <r>    8.4929    1.0000 </r>
       <r>    8.6504    1.0000 </r>
       <r>    8.8052    1.0000 </r>
       <r>    9.0820    1.0000 </r>
       <r>    9.4863    0.8382 </r>
       <r>   15.5497    0.0000 </r>
       <r>   17.5322    0.0000 </r>
       <r>   20.3314    0.0000 </r>
       <r>   25.5625    0.0000 </r>
       <r>   27.9316    0.0000 </r>
       <r>   30.2203    0.0000 </r>
       <r>   30.2793    0.0000 </r>
      </set>
      <set comment="kpoint 21">
       <r>  -44.6058    1.0000 </r>
       <r>  -44.5447    1.0000 </r>
       <r>  -44.4894    1.0000 </r>
       <r>  -44.3599    1.0000 </r>
       <r>  -44.3461    1.0000 </r>
       <r>  -44.2910    1.0000 </r>
       <r>    4.5895    1.0000 </r>
       <r>    5.7268    1.0000 </r>
       <r>    6.3768    1.0000 </r>
       <r>    6.5827    1.0000 </r>
       <r>    6.9027    1.0000 </r>
       <r>    6.9092    1.0000 </r>
       <r>    8.4445    1.0000 </r>
       <r>    8.5444    1.0000 </r>
       <r>    8.7793    1.0000 </r>
       <r>    9.4418    1.0000 </r>
       <r>    9.6500    0.1956 </r>
       <r>   13.7011    0.0000 </r>
       <r>   18.2662    0.0000 </r>
       <r>   21.4227    0.0000 </r>
       <r>   23.3768    0.0000 </r>
       <r>   26.4163    0.0000 </r>
       <r>   30.0165    0.0000 </r>
       <r>   30.7684    0.0000 </r>
      </set>
      <set comment="kpoint 22">
       <r>  -44.6033    1.0000 </r>
       <r>  -44.5825    1.0000 </r>
       <r>  -44.4461    1.0000 </r>
       <r>  -44.4011    1.0000 </r>
       <r>  -44.3202    1.0000 </r>
       <r>  -44.3017    1.0000 </r>
       <r>    5.1414    1.0000 </r>
       <r>    5.5061    1.0000 </r>
       <r>    6.4620    1.0000 </r>
       <r>    6.5134    1.0000 </r>
       <r>    7.0565    1.0000 </r>
       <r>    7.0711    1.0000 </r>
       <r>    8.4054    1.0000 </r>
       <r>    8.4222    1.0000 </r>
       <r>    8.9794    1.0000 </r>
       <r>    9.2465    1.0149 </r>
       <r>   10.4642   -0.0553 </r>
       <r>   11.8105    0.0000 </r>
       <r>   19.6864    0.0000 </r>
       <r>   21.4016    0.0000 </r>
       <r>   22.8355    0.0000 </r>
       <r>   24.5258    0.0000 </r>
       <r>   30.5805    0.0000 </r>
       <r>   31.0081    0.0000 </r>
      </set>
      <set comment="kpoint 23">
       <r>  -44.6238    1.0000 </r>
       <r>  -44.5865    1.0000 </r>
       <r>  -44.4669    1.0000 </r>
       <r>  -44.3784    1.0000 </r>
       <r>  -44.3207    1.0000 </r>
       <r>  -44.2894    1.0000 </r>
       <r>    4.9327    1.0000 </r>
[...]
       </set>
       <set comment="band 12">
        <r>  0.0000  0.0481  0.0133  0.0131  0.0390  0.0384  0.0266  0.1405  0.0725 </r>
        <r>  0.0000  0.0481  0.0133  0.0131  0.0390  0.0384  0.0266  0.1405  0.0725 </r>
       </set>
       <set comment="band 13">
        <r>  0.0000  0.0014  0.0005  0.0002  0.0332  0.0146  0.1234  0.0917  0.2223 </r>
        <r>  0.0000  0.0014  0.0005  0.0002  0.0332  0.0146  0.1234  0.0917  0.2223 </r>
       </set>
       <set comment="band 14">
        <r>  0.0000  0.0000  0.0009  0.0012  0.0598  0.0784  0.2223  0.0013  0.1234 </r>
        <r>  0.0000  0.0000  0.0009  0.0012  0.0598  0.0784  0.2223  0.0013  0.1234 </r>
       </set>
       <set comment="band 15">
        <r>  0.0000  0.0000  0.0000  0.0000  0.0211  0.0101  0.4039  0.0043  0.0490 </r>
        <r>  0.0000  0.0000  0.0000  0.0000  0.0211  0.0101  0.4039  0.0043  0.0490 </r>
       </set>
       <set comment="band 16">
        <r>  0.0000  0.0000  0.0000  0.0000  0.0026  0.0136  0.0490  0.0194  0.4039 </r>
        <r>  0.0000  0.0000  0.0000  0.0000  0.0026  0.0136  0.0490  0.0194  0.4039 </r>
       </set>
       <set comment="band 17">
        <r>  0.0250  0.0199  0.0199  0.0199  0.1216  0.1216  0.0000  0.1216  0.0000 </r>
        <r>  0.0250  0.0199  0.0199  0.0199  0.1216  0.1216  0.0000  0.1216  0.0000 </r>
       </set>
       <set comment="band 18">
        <r>  0.0000  0.0627  0.0060  0.1057  0.0059  0.1033  0.0028  0.0613  0.0508 </r>
        <r>  0.0000  0.0627  0.0060  0.1057  0.0059  0.1033  0.0028  0.0613  0.0508 </r>
       </set>
       <set comment="band 19">
        <r>  0.0000  0.0536  0.1103  0.0106  0.1077  0.0103  0.0508  0.0524  0.0028 </r>
        <r>  0.0000  0.0536  0.1103  0.0106  0.1077  0.0103  0.0508  0.0524  0.0028 </r>
       </set>
       <set comment="band 20">
        <r>  0.2672  0.0000  0.0000  0.0000  0.0373  0.0373  0.0000  0.0373  0.0000 </r>
        <r>  0.2672  0.0000  0.0000  0.0000  0.0373  0.0373  0.0000  0.0373  0.0000 </r>
       </set>
       <set comment="band 21">
        <r>  0.0000  0.0823  0.0856  0.0045  0.0778  0.0041  0.0160  0.0748  0.0055 </r>
        <r>  0.0000  0.0823  0.0856  0.0045  0.0778  0.0041  0.0160  0.0748  0.0055 </r>
       </set>
       <set comment="band 22">
        <r>  0.0000  0.0326  0.0293  0.1104  0.0266  0.1003  0.0055  0.0296  0.0160 </r>
        <r>  0.0000  0.0326  0.0293  0.1104  0.0266  0.1003  0.0055  0.0296  0.0160 </r>
       </set>
       <set comment="band 23">
        <r>  0.2450  0.0532  0.0532  0.0532  0.0018  0.0018  0.0000  0.0018  0.0000 </r>
        <r>  0.2450  0.0532  0.0532  0.0532  0.0018  0.0018  0.0000  0.0018  0.0000 </r>
       </set>
       <set comment="band 24">
        <r>  0.0490  0.0821  0.0821  0.0821  0.0283  0.0283  0.0000  0.0283  0.0000 </r>
        <r>  0.0490  0.0821  0.0821  0.0821  0.0283  0.0283  0.0000  0.0283  0.0000 </r>
       </set>
      </set>
      <set comment="kpoint 33">
       <set comment="band 1">
        <r>  0.0000  0.1310  0.1310  0.2341  0.0000  0.0000  0.0000  0.0000  0.0000 </r>
        <r>  0.0000  0.1310  0.1310  0.2341  0.0000  0.0000  0.0000  0.0000  0.0000 </r>
       </set>
       <set comment="band 2">
        <r>  0.0000  0.1039  0.1039  0.2885  0.0000  0.0001  0.0000  0.0000  0.0000 </r>
        <r>  0.0000  0.1039  0.1039  0.2885  0.0000  0.0001  0.0000  0.0000  0.0000 </r>
       </set>
       <set comment="band 3">
        <r>  0.0000  0.2486  0.2486  0.0000  0.0001  0.0000  0.0000  0.0001  0.0000 </r>
        <r>  0.0000  0.2486  0.2486  0.0000  0.0001  0.0000  0.0000  0.0001  0.0000 </r>
       </set>
       <set comment="band 4">
        <r>  0.0000  0.2489  0.2489  0.0000  0.0001  0.0000  0.0000  0.0001  0.0000 </r>
        <r>  0.0000  0.2489  0.2489  0.0000  0.0001  0.0000  0.0000  0.0001  0.0000 </r>
       </set>
       <set comment="band 5">
        <r>  0.0000  0.1177  0.1177  0.2632  0.0000  0.0001  0.0000  0.0000  0.0000 </r>
        <r>  0.0000  0.1177  0.1177  0.2632  0.0000  0.0001  0.0000  0.0000  0.0000 </r>
       </set>
       <set comment="band 6">
        <r>  0.0000  0.1450  0.1450  0.2088  0.0000  0.0000  0.0000  0.0000  0.0000 </r>
        <r>  0.0000  0.1450  0.1450  0.2088  0.0000  0.0000  0.0000  0.0000  0.0000 </r>
       </set>
       <set comment="band 7">
        <r>  0.0459  0.0252  0.0252  0.0113  0.1267  0.0025  0.0032  0.1267  0.0096 </r>
        <r>  0.0459  0.0252  0.0252  0.0113  0.1267  0.0025  0.0032  0.1267  0.0096 </r>
       </set>
       <set comment="band 8">
        <r>  0.0268  0.0108  0.0108  0.0011  0.1524  0.0488  0.0030  0.1524  0.0089 </r>
        <r>  0.0268  0.0108  0.0108  0.0011  0.1524  0.0488  0.0030  0.1524  0.0089 </r>
       </set>
       <set comment="band 9">
        <r>  0.0000  0.0194  0.0194  0.0000  0.1695  0.0000  0.0317  0.1695  0.0106 </r>
        <r>  0.0000  0.0194  0.0194  0.0000  0.1695  0.0000  0.0317  0.1695  0.0106 </r>
       </set>
       <set comment="band 10">
        <r>  0.0000  0.0281  0.0281  0.0000  0.1424  0.0000  0.0486  0.1424  0.0162 </r>
        <r>  0.0000  0.0281  0.0281  0.0000  0.1424  0.0000  0.0486  0.1424  0.0162 </r>
       </set>
       <set comment="band 11">
        <r>  0.0064  0.0025  0.0025  0.0522  0.0082  0.3292  0.0001  0.0082  0.0002 </r>
        <r>  0.0064  0.0025  0.0025  0.0522  0.0082  0.3292  0.0001  0.0082  0.0002 </r>
       </set>
       <set comment="band 12">
        <r>  0.0019  0.0092  0.0092  0.0634  0.0021  0.2760  0.0073  0.0021  0.0218 </r>
        <r>  0.0019  0.0092  0.0092  0.0634  0.0021  0.2760  0.0073  0.0021  0.0218 </r>
       </set>
       <set comment="band 13">
        <r>  0.0000  0.0003  0.0003  0.0000  0.0451  0.0000  0.2976  0.0451  0.0992 </r>
        <r>  0.0000  0.0003  0.0003  0.0000  0.0451  0.0000  0.2976  0.0451  0.0992 </r>
       </set>
       <set comment="band 14">
        <r>  0.0000  0.0001  0.0001  0.0000  0.0288  0.0000  0.3227  0.0288  0.1076 </r>
        <r>  0.0000  0.0001  0.0001  0.0000  0.0288  0.0000  0.3227  0.0288  0.1076 </r>
       </set>
       <set comment="band 15">
        <r>  0.0005  0.0001  0.0001  0.0006  0.0171  0.0289  0.1063  0.0171  0.3190 </r>
        <r>  0.0005  0.0001  0.0001  0.0006  0.0171  0.0289  0.1063  0.0171  0.3190 </r>
       </set>
       <set comment="band 16">
        <r>  0.0004  0.0000  0.0000  0.0001  0.0103  0.0000  0.1173  0.0103  0.3520 </r>
        <r>  0.0004  0.0000  0.0000  0.0001  0.0103  0.0000  0.1173  0.0103  0.3520 </r>
       </set>
       <set comment="band 17">
        <r>  0.0297  0.0216  0.0216  0.0427  0.0915  0.1260  0.0015  0.0915  0.0044 </r>
        <r>  0.0297  0.0216  0.0216  0.0427  0.0915  0.1260  0.0015  0.0915  0.0044 </r>
       </set>
       <set comment="band 18">
        <r>  0.0210  0.0248  0.0248  0.0800  0.0612  0.1103  0.0066  0.0612  0.0199 </r>
        <r>  0.0210  0.0248  0.0248  0.0800  0.0612  0.1103  0.0066  0.0612  0.0199 </r>
       </set>
       <set comment="band 19">
        <r>  0.0000  0.0895  0.0895  0.0000  0.0849  0.0000  0.0286  0.0849  0.0095 </r>
        <r>  0.0000  0.0895  0.0895  0.0000  0.0849  0.0000  0.0286  0.0849  0.0095 </r>
       </set>
       <set comment="band 20">
        <r>  0.2320  0.0017  0.0017  0.0348  0.0264  0.0509  0.0000  0.0264  0.0001 </r>
        <r>  0.2320  0.0017  0.0017  0.0348  0.0264  0.0509  0.0000  0.0264  0.0001 </r>
       </set>
       <set comment="band 21">
        <r>  0.0000  0.0893  0.0893  0.0000  0.0826  0.0000  0.0211  0.0826  0.0070 </r>
        <r>  0.0000  0.0893  0.0893  0.0000  0.0826  0.0000  0.0211  0.0826  0.0070 </r>
       </set>
       <set comment="band 22">
        <r>  0.1599  0.0007  0.0007  0.1012  0.0255  0.0524  0.0005  0.0255  0.0016 </r>
        <r>  0.1599  0.0007  0.0007  0.1012  0.0255  0.0524  0.0005  0.0255  0.0016 </r>
       </set>
       <set comment="band 23">
        <r>  0.1180  0.0857  0.0857  0.0171  0.0121  0.0431  0.0011  0.0121  0.0032 </r>
        <r>  0.1180  0.0857  0.0857  0.0171  0.0121  0.0431  0.0011  0.0121  0.0032 </r>
       </set>
       <set comment="band 24">
        <r>  0.0730  0.0849  0.0849  0.0489  0.0226  0.0370  0.0002  0.0226  0.0007 </r>
        <r>  0.0730  0.0849  0.0849  0.0489  0.0226  0.0370  0.0002  0.0226  0.0007 </r>
       </set>
      </set>
      <set comment="kpoint 34">
       <set comment="band 1">
        <r>  0.0000  0.2222  0.0519  0.2222  0.0000  0.0001  0.0000  0.0001  0.0000 </r>
        <r>  0.0000  0.2222  0.0519  0.2222  0.0000  0.0001  0.0000  0.0001  0.0000 </r>
       </set>
       <set comment="band 2">
        <r>  0.0000  0.2482  0.0000  0.2482  0.0000  0.0001  0.0000  0.0001  0.0000 </r>
        <r>  0.0000  0.2482  0.0000  0.2482  0.0000  0.0001  0.0000  0.0001  0.0000 </r>
       </set>
       <set comment="band 3">
        <r>  0.0000  0.0372  0.4229  0.0372  0.0001  0.0000  0.0000  0.0000  0.0000 </r>
        <r>  0.0000  0.0372  0.4229  0.0372  0.0001  0.0000  0.0000  0.0000  0.0000 </r>
       </set>
       <set comment="band 4">
        <r>  0.0000  0.0260  0.4456  0.0260  0.0001  0.0000  0.0000  0.0000  0.0000 </r>
        <r>  0.0000  0.0260  0.4456  0.0260  0.0001  0.0000  0.0000  0.0000  0.0000 </r>
       </set>
       <set comment="band 5">
        <r>  0.0000  0.2491  0.0000  0.2491  0.0000  0.0001  0.0000  0.0001  0.0000 </r>
        <r>  0.0000  0.2491  0.0000  0.2491  0.0000  0.0001  0.0000  0.0001  0.0000 </r>
       </set>
       <set comment="band 6">
        <r>  0.0000  0.2119  0.0746  0.2119  0.0000  0.0000  0.0000  0.0000  0.0000 </r>
        <r>  0.0000  0.2119  0.0746  0.2119  0.0000  0.0000  0.0000  0.0000  0.0000 </r>
       </set>
       <set comment="band 7">
        <r>  0.0191  0.0005  0.0315  0.0005  0.2658  0.0362  0.0218  0.0362  0.0000 </r>
        <r>  0.0191  0.0005  0.0315  0.0005  0.2658  0.0362  0.0218  0.0362  0.0000 </r>
       </set>
       <set comment="band 8">
        <r>  0.0234  0.0027  0.0441  0.0027  0.2942  0.0011  0.0273  0.0011  0.0000 </r>
        <r>  0.0234  0.0027  0.0441  0.0027  0.2942  0.0011  0.0273  0.0011  0.0000 </r>
       </set>
       <set comment="band 9">
        <r>  0.0000  0.0139  0.0000  0.0139  0.0000  0.2001  0.0000  0.2001  0.0032 </r>
        <r>  0.0000  0.0139  0.0000  0.0139  0.0000  0.2001  0.0000  0.2001  0.0032 </r>
       </set>
       <set comment="band 10">
        <r>  0.0001  0.0137  0.0131  0.0137  0.0406  0.1615  0.0168  0.1615  0.0000 </r>
        <r>  0.0001  0.0137  0.0131  0.0137  0.0406  0.1615  0.0168  0.1615  0.0000 </r>
       </set>
       <set comment="band 11">
        <r>  0.0048  0.0441  0.0000  0.0441  0.0144  0.1384  0.0039  0.1384  0.0000 </r>
        <r>  0.0048  0.0441  0.0000  0.0441  0.0144  0.1384  0.0039  0.1384  0.0000 </r>
       </set>
       <set comment="band 12">
        <r>  0.0000  0.0469  0.0000  0.0469  0.0000  0.1399  0.0000  0.1399  0.0134 </r>
        <r>  0.0000  0.0469  0.0000  0.0469  0.0000  0.1399  0.0000  0.1399  0.0134 </r>
       </set>
       <set comment="band 13">
        <r>  0.0003  0.0000  0.0002  0.0000  0.0502  0.0026  0.4336  0.0026  0.0000 </r>
        <r>  0.0003  0.0000  0.0002  0.0000  0.0502  0.0026  0.4336  0.0026  0.0000 </r>
       </set>
       <set comment="band 14">
        <r>  0.0002  0.0000  0.0001  0.0000  0.0427  0.0008  0.4450  0.0008  0.0000 </r>
        <r>  0.0002  0.0000  0.0001  0.0000  0.0427  0.0008  0.4450  0.0008  0.0000 </r>
       </set>
       <set comment="band 15">
        <r>  0.0000  0.0001  0.0000  0.0001  0.0000  0.0101  0.0000  0.0101  0.4704 </r>
        <r>  0.0000  0.0001  0.0000  0.0001  0.0000  0.0101  0.0000  0.0101  0.4704 </r>
       </set>
       <set comment="band 16">
        <r>  0.0000  0.0000  0.0000  0.0000  0.0000  0.0022  0.0000  0.0022  0.4865 </r>
        <r>  0.0000  0.0000  0.0000  0.0000  0.0000  0.0022  0.0000  0.0022  0.4865 </r>
       </set>
       <set comment="band 17">
        <r>  0.0247  0.0518  0.0134  0.0518  0.0494  0.1096  0.0012  0.1096  0.0000 </r>
        <r>  0.0247  0.0518  0.0134  0.0518  0.0494  0.1096  0.0012  0.1096  0.0000 </r>
       </set>
       <set comment="band 18">
        <r>  0.0000  0.0794  0.0000  0.0794  0.0000  0.1149  0.0000  0.1149  0.0083 </r>
        <r>  0.0000  0.0794  0.0000  0.0794  0.0000  0.1149  0.0000  0.1149  0.0083 </r>
       </set>
       <set comment="band 19">
        <r>  0.0991  0.0059  0.0800  0.0059  0.1796  0.0017  0.0205  0.0017  0.0000 </r>
        <r>  0.0991  0.0059  0.0800  0.0059  0.1796  0.0017  0.0205  0.0017  0.0000 </r>
       </set>
       <set comment="band 20">
        <r>  0.0892  0.0268  0.0582  0.0268  0.1384  0.0142  0.0157  0.0142  0.0000 </r>
        <r>  0.0892  0.0268  0.0582  0.0268  0.1384  0.0142  0.0157  0.0142  0.0000 </r>
       </set>
       <set comment="band 21">
        <r>  0.1381  0.0378  0.0332  0.0378  0.0002  0.0587  0.0034  0.0587  0.0000 </r>
        <r>  0.1381  0.0378  0.0332  0.0378  0.0002  0.0587  0.0034  0.0587  0.0000 </r>
       </set>
       <set comment="band 22">
        <r>  0.0000  0.0874  0.0000  0.0874  0.0000  0.0867  0.0000  0.0867  0.0026 </r>
        <r>  0.0000  0.0874  0.0000  0.0874  0.0000  0.0867  0.0000  0.0867  0.0026 </r>
       </set>
       <set comment="band 23">
        <r>  0.2255  0.0023  0.1336  0.0023  0.0182  0.0013  0.0047  0.0013  0.0000 </r>
        <r>  0.2255  0.0023  0.1336  0.0023  0.0182  0.0013  0.0047  0.0013  0.0000 </r>
       </set>
       <set comment="band 24">
        <r>  0.1094  0.0462  0.0933  0.0462  0.0206  0.0285  0.0014  0.0285  0.0000 </r>
        <r>  0.1094  0.0462  0.0933  0.0462  0.0206  0.0285  0.0014  0.0285  0.0000 </r>
       </set>
      </set>
      <set comment="kpoint 35">
       <set comment="band 1">
        <r>  0.0000  0.1655  0.1655  0.1655  0.0000  0.0000  0.0000  0.0000  0.0000 </r>
        <r>  0.0000  0.1655  0.1655  0.1655  0.0000  0.0000  0.0000  0.0000  0.0000 </r>
       </set>
       <set comment="band 2">
        <r>  0.0000  0.2564  0.1096  0.1310  0.0000  0.0000  0.0000  0.0001  0.0000 </r>
        <r>  0.0000  0.2564  0.1096  0.1310  0.0000  0.0000  0.0000  0.0001  0.0000 </r>
       </set>
       <set comment="band 3">
        <r>  0.0000  0.0749  0.2218  0.2003  0.0001  0.0001  0.0000  0.0000  0.0000 </r>
        <r>  0.0000  0.0749  0.2218  0.2003  0.0001  0.0001  0.0000  0.0000  0.0000 </r>
       </set>
       <set comment="band 4">
        <r>  0.0000  0.0658  0.2164  0.2155  0.0001  0.0001  0.0000  0.0000  0.0000 </r>
        <r>  0.0000  0.0658  0.2164  0.2155  0.0001  0.0001  0.0000  0.0000  0.0000 </r>
       </set>
       <set comment="band 5">
        <r>  0.0000  0.2660  0.1154  0.1163  0.0000  0.0000  0.0000  0.0001  0.0000 </r>
        <r>  0.0000  0.2660  0.1154  0.1163  0.0000  0.0000  0.0000  0.0001  0.0000 </r>
       </set>
       <set comment="band 6">
        <r>  0.0000  0.1660  0.1660  0.1660  0.0000  0.0000  0.0000  0.0000  0.0000 </r>
        <r>  0.0000  0.1660  0.1660  0.1660  0.0000  0.0000  0.0000  0.0000  0.0000 </r>
       </set>
       <set comment="band 7">
        <r>  0.0055  0.0117  0.0117  0.0117  0.1269  0.1269  0.0000  0.1269  0.0000 </r>
        <r>  0.0055  0.0117  0.0117  0.0117  0.1269  0.1269  0.0000  0.1269  0.0000 </r>
       </set>
       <set comment="band 8">
        <r>  0.0000  0.0159  0.0075  0.0222  0.0602  0.1786  0.0013  0.1281  0.0039 </r>
        <r>  0.0000  0.0159  0.0075  0.0222  0.0602  0.1786  0.0013  0.1281  0.0039 </r>
       </set>
       <set comment="band 9">
        <r>  0.0000  0.0145  0.0229  0.0082  0.1844  0.0661  0.0039  0.1165  0.0013 </r>
        <r>  0.0000  0.0145  0.0229  0.0082  0.1844  0.0661  0.0039  0.1165  0.0013 </r>
       </set>
       <set comment="band 10">
        <r>  0.0089  0.0262  0.0262  0.0262  0.1011  0.1011  0.0000  0.1011  0.0000 </r>
        <r>  0.0089  0.0262  0.0262  0.0262  0.1011  0.1011  0.0000  0.1011  0.0000 </r>
       </set>
       <set comment="band 11">
        <r>  0.0000  0.0094  0.0169  0.0411  0.0822  0.1994  0.0031  0.0459  0.0051 </r>
        <r>  0.0000  0.0094  0.0169  0.0411  0.0822  0.1994  0.0031  0.0459  0.0051 </r>
       </set>
       <set comment="band 12">
        <r>  0.0000  0.0355  0.0280  0.0039  0.1361  0.0189  0.0051  0.1724  0.0031 </r>
        <r>  0.0000  0.0355  0.0280  0.0039  0.1361  0.0189  0.0051  0.1724  0.0031 </r>
       </set>
       <set comment="band 13">
        <r>  0.0000  0.0000  0.0000  0.0000  0.0055  0.0047  0.3305  0.0018  0.1486 </r>
        <r>  0.0000  0.0000  0.0000  0.0000  0.0055  0.0047  0.3305  0.0018  0.1486 </r>
       </set>
       <set comment="band 14">
        <r>  0.0000  0.0000  0.0000  0.0000  0.0025  0.0033  0.1486  0.0062  0.3305 </r>
        <r>  0.0000  0.0000  0.0000  0.0000  0.0025  0.0033  0.1486  0.0062  0.3305 </r>
       </set>
       <set comment="band 15">
        <r>  0.0000  0.0000  0.0000  0.0000  0.0036  0.0013  0.3533  0.0025  0.1305 </r>
        <r>  0.0000  0.0000  0.0000  0.0000  0.0036  0.0013  0.3533  0.0025  0.1305 </r>
       </set>
       <set comment="band 16">
        <r>  0.0000  0.0000  0.0000  0.0000  0.0013  0.0036  0.1305  0.0024  0.3533 </r>
        <r>  0.0000  0.0000  0.0000  0.0000  0.0013  0.0036  0.1305  0.0024  0.3533 </r>
       </set>
       <set comment="band 17">
        <r>  0.0278  0.0451  0.0451  0.0451  0.0781  0.0781  0.0000  0.0781  0.0000 </r>
        <r>  0.0278  0.0451  0.0451  0.0451  0.0781  0.0781  0.0000  0.0781  0.0000 </r>
       </set>
       <set comment="band 18">
        <r>  0.0000  0.1035  0.0072  0.0612  0.0087  0.0742  0.0003  0.1255  0.0049 </r>
        <r>  0.0000  0.1035  0.0072  0.0612  0.0087  0.0742  0.0003  0.1255  0.0049 </r>
       </set>
       <set comment="band 19">
        <r>  0.0000  0.0111  0.1074  0.0534  0.1302  0.0647  0.0049  0.0134  0.0003 </r>
        <r>  0.0000  0.0111  0.1074  0.0534  0.1302  0.0647  0.0049  0.0134  0.0003 </r>
       </set>
       <set comment="band 20">
        <r>  0.1936  0.0188  0.0188  0.0188  0.0420  0.0420  0.0000  0.0420  0.0000 </r>
        <r>  0.1936  0.0188  0.0188  0.0188  0.0420  0.0420  0.0000  0.0420  0.0000 </r>
       </set>
       <set comment="band 21">
        <r>  0.0000  0.1170  0.0218  0.0380  0.0236  0.0411  0.0007  0.1265  0.0029 </r>
        <r>  0.0000  0.1170  0.0218  0.0380  0.0236  0.0411  0.0007  0.1265  0.0029 </r>
       </set>
       <set comment="band 22">
        <r>  0.0000  0.0009  0.0961  0.0799  0.1039  0.0864  0.0029  0.0010  0.0007 </r>
        <r>  0.0000  0.0009  0.0961  0.0799  0.1039  0.0864  0.0029  0.0010  0.0007 </r>
       </set>
       <set comment="band 23">
        <r>  0.3402  0.0133  0.0133  0.0133  0.0007  0.0007  0.0000  0.0007  0.0000 </r>
        <r>  0.3402  0.0133  0.0133  0.0133  0.0007  0.0007  0.0000  0.0007  0.0000 </r>
       </set>
       <set comment="band 24">
        <r>  0.1772  0.0433  0.0433  0.0433  0.0227  0.0227  0.0000  0.0227  0.0000 </r>
        <r>  0.1772  0.0433  0.0433  0.0433  0.0227  0.0227  0.0000  0.0227  0.0000 </r>
       </set>
      </set>
     </set>
    </set>
   </array>
  </projected>
 </calculation>
 <structure name="finalpos" >
  <crystal>
   <varray name="basis" >
    <v>       2.84005200       0.00000000       0.00000000 </v>
    <v>       0.00000000       2.84005200       0.00000000 </v>
    <v>       0.00000000       0.00000000       2.84005200 </v>
   </varray>
   <i name="volume">     22.90756226 </i>
   <varray name="rec_basis" >
    <v>       0.35210623       0.00000000       0.00000000 </v>
    <v>       0.00000000       0.35210623       0.00000000 </v>
    <v>       0.00000000       0.00000000       0.35210623 </v>
   </varray>
  </crystal>
  <varray name="positions" >
   <v>       0.00000000       0.00000000       0.00000000 </v>
   <v>       0.50000000       0.50000000       0.50000000 </v>
  </varray>
 </structure>
</modeling>
