       N       E                     dE             d eps       ncg     rms          rms(c)
DAV:   1     0.261055563399E+03    0.26106E+03   -0.24428E+04  1932   0.264E+03
DAV:   2    -0.855250078026E+01   -0.26961E+03   -0.25881E+03  1944   0.482E+02
DAV:   3    -0.162005923526E+02   -0.76481E+01   -0.76180E+01  2088   0.872E+01
DAV:   4    -0.162676239132E+02   -0.67032E-01   -0.67021E-01  2316   0.777E+00
DAV:   5    -0.162688383972E+02   -0.12145E-02   -0.12145E-02  2088   0.986E-01    0.252E+01
DAV:   6    -0.164528874519E+02   -0.18405E+00   -0.75592E+00  1944   0.399E+01    0.675E+00
DAV:   7    -0.165125951242E+02   -0.59708E-01   -0.54609E-01  1956   0.937E+00    0.420E+00
DAV:   8    -0.165238508950E+02   -0.11256E-01   -0.14606E-02  2028   0.149E+00    0.130E+00
DAV:   9    -0.165154063727E+02    0.84445E-02   -0.46769E-03  2100   0.889E-01    0.316E-01
DAV:  10    -0.165153915205E+02    0.14852E-04   -0.22118E-03  2028   0.614E-01    0.437E-02
DAV:  11    -0.165154732034E+02   -0.81683E-04   -0.50162E-05  2112   0.665E-02    0.251E-02
DAV:  12    -0.165155266123E+02   -0.53409E-04   -0.39613E-06  2208   0.225E-02    0.985E-03
DAV:  13    -0.165155079182E+02    0.18694E-04   -0.57338E-07  2136   0.851E-03    0.462E-03
DAV:  14    -0.165154880485E+02    0.19870E-04   -0.28548E-07  1668   0.509E-03    0.887E-04
DAV:  15    -0.165154884604E+02   -0.41190E-06   -0.17972E-08  1032   0.133E-03    0.197E-04
DAV:  16    -0.165154878235E+02    0.63689E-06   -0.19084E-09  1008   0.451E-04    0.155E-04
DAV:  17    -0.165154880150E+02   -0.19149E-06   -0.27685E-10  1008   0.173E-04    0.398E-05
DAV:  18    -0.165154882199E+02   -0.20498E-06   -0.26946E-11   960   0.593E-05    0.889E-06
DAV:  19    -0.165154881942E+02    0.25752E-07   -0.31591E-12   960   0.213E-05
   1 F= -.16515488E+02 E0= -.16515488E+02  d E =0.000000E+00  mag=     4.3362
