<?xml version="1.0" encoding="ISO-8859-1"?>
<modeling>
 <generator>
  <i name="program" type="string">vasp </i>
  <i name="version" type="string">5.4.4.18Apr17-6-g9f103f2a35  </i>
  <i name="subversion" type="string">(build Apr 28 2018 00:24:27) complex            parallel </i>
  <i name="platform" type="string">LinuxIFC </i>
  <i name="date" type="string">2021 09 07 </i>
  <i name="time" type="string">01:12:08 </i>
 </generator>
 <incar>
  <i type="string" name="PREC">accurate</i>
  <i type="string" name="ALGO"> Normal</i>
  <i type="int" name="ISPIN">     2</i>
  <i type="int" name="NELM">   100</i>
  <i type="int" name="IBRION">    -1</i>
  <i name="EDIFF">      0.00000010</i>
  <i type="int" name="NSW">     0</i>
  <i type="int" name="ISIF">     3</i>
  <i name="ENCUT">    920.00000000</i>
  <v name="MAGMOM">      5.00000000      5.00000000</v>
  <i type="string" name="LREAL"> Auto</i>
  <i type="int" name="ISMEAR">    -5</i>
  <i name="SIGMA">      0.05000000</i>
  <i type="logical" name="LWAVE"> F  </i>
  <i type="logical" name="LCHARG"> F  </i>
  <i type="logical" name="LVHAR"> F  </i>
  <i type="int" name="LORBIT">    11</i>
  <i type="logical" name="LASPH"> F  </i>
  <i type="logical" name="LAECHG"> F  </i>
  <v type="int" name="KPOINT_BSE">    -1     0     0     0</v>
  <i type="int" name="NELM">   100</i>
  <i type="logical" name="LASPH"> F  </i>
  <i type="int" name="LMAXTAU">     0</i>
 </incar>
 <structure name="primitive_cell" >
  <crystal>
   <varray name="basis" >
    <v>       1.42002600       1.42002600       1.42002600 </v>
    <v>       1.42002600      -1.42002600      -1.42002600 </v>
    <v>      -1.42002600       1.42002600      -1.42002600 </v>
   </varray>
   <i name="volume">     11.45378113 </i>
   <varray name="rec_basis" >
    <v>       0.35210623       0.35210623       0.00000000 </v>
    <v>       0.35210623       0.00000000      -0.35210623 </v>
    <v>       0.00000000       0.35210623      -0.35210623 </v>
   </varray>
  </crystal>
  <varray name="positions" >
   <v>       0.00000000       0.00000000       0.00000000 </v>
  </varray>
 </structure>
 <varray name="primitive_index" >
  <v type="int" >        1 </v>
 </varray>
 <kpoints>
  <generation param="Auto">
   <i name="subdivisionlength">     20.00000000 </i>
   <v type="int" name="divisions">       7        7        7 </v>
   <v name="usershift">      0.00000000       0.00000000       0.00000000 </v>
   <v name="genvec1">      0.14285714       0.00000000       0.00000000 </v>
   <v name="genvec2">      0.00000000       0.14285714       0.00000000 </v>
   <v name="genvec3">      0.00000000       0.00000000       0.14285714 </v>
   <v name="shift">      0.00000000       0.00000000       0.00000000 </v>
  </generation>
  <varray name="kpointlist" >
   <v>       0.00000000       0.00000000       0.00000000 </v>
   <v>       0.14285714       0.00000000       0.00000000 </v>
   <v>       0.28571429       0.00000000       0.00000000 </v>
   <v>       0.42857143       0.00000000       0.00000000 </v>
   <v>       0.14285714       0.14285714       0.00000000 </v>
   <v>       0.28571429       0.14285714       0.00000000 </v>
   <v>       0.42857143       0.14285714       0.00000000 </v>
   <v>       0.28571429       0.28571429       0.00000000 </v>
   <v>       0.42857143       0.28571429       0.00000000 </v>
   <v>       0.42857143       0.42857143       0.00000000 </v>
   <v>       0.14285714       0.14285714       0.14285714 </v>
   <v>       0.28571429       0.14285714       0.14285714 </v>
   <v>       0.42857143       0.14285714       0.14285714 </v>
   <v>       0.28571429       0.28571429       0.14285714 </v>
   <v>       0.42857143       0.28571429       0.14285714 </v>
   <v>       0.42857143       0.42857143       0.14285714 </v>
   <v>       0.28571429       0.28571429       0.28571429 </v>
   <v>       0.42857143       0.28571429       0.28571429 </v>
   <v>       0.42857143       0.42857143       0.28571429 </v>
   <v>       0.42857143       0.42857143       0.42857143 </v>
  </varray>
  <varray name="weights" >
   <v>       0.00291545 </v>
   <v>       0.01749271 </v>
   <v>       0.01749271 </v>
   <v>       0.01749271 </v>
   <v>       0.03498542 </v>
   <v>       0.06997085 </v>
   <v>       0.06997085 </v>
   <v>       0.03498542 </v>
   <v>       0.06997085 </v>
   <v>       0.03498542 </v>
   <v>       0.02332362 </v>
   <v>       0.06997085 </v>
   <v>       0.06997085 </v>
   <v>       0.06997085 </v>
   <v>       0.13994169 </v>
   <v>       0.06997085 </v>
   <v>       0.02332362 </v>
   <v>       0.06997085 </v>
   <v>       0.06997085 </v>
   <v>       0.02332362 </v>
  </varray>
  <varray name="tetrahedronlist"  type="int" >
   <v type="int" >       12        1        2        2        5 </v>
   <v type="int" >       12        2        2        5        5 </v>
   <v type="int" >       12        2        5        5       11 </v>
   <v type="int" >       12        2        3        5        6 </v>
   <v type="int" >       12        2        5        5        6 </v>
   <v type="int" >       12        5        5        6       11 </v>
   <v type="int" >       12        3        5        6        6 </v>
   <v type="int" >       24        5        6        6       12 </v>
   <v type="int" >       24        5        6       11       12 </v>
   <v type="int" >       12        3        4        6        7 </v>
   <v type="int" >       12        3        6        6        7 </v>
   <v type="int" >       12        6        6        7       12 </v>
   <v type="int" >       12        4        6        7        7 </v>
   <v type="int" >       12        6        7        7       13 </v>
   <v type="int" >       12        6        7       12       13 </v>
   <v type="int" >        6        4        4        7        7 </v>
   <v type="int" >       12        4        7        7        7 </v>
   <v type="int" >       12        7        7        7       13 </v>
   <v type="int" >        6        7        7       13       13 </v>
   <v type="int" >       12        5        6        8       11 </v>
   <v type="int" >       12        6        8       11       12 </v>
   <v type="int" >       12        8       11       12       14 </v>
   <v type="int" >       12        6        7        9       12 </v>
   <v type="int" >       12        6        8        9       12 </v>
   <v type="int" >       12        8        9       12       14 </v>
   <v type="int" >       12        7        9       12       13 </v>
   <v type="int" >       12        9       12       13       15 </v>
   <v type="int" >       12        9       12       14       15 </v>
   <v type="int" >       12        7        7        9       13 </v>
   <v type="int" >       12        7        9        9       13 </v>
   <v type="int" >       12        9        9       13       15 </v>
   <v type="int" >       12        7        9       13       13 </v>
   <v type="int" >       12        9       13       13       15 </v>
   <v type="int" >       12        9       13       15       15 </v>
   <v type="int" >       12        6        7        8       13 </v>
   <v type="int" >       12        7        8        9       13 </v>
   <v type="int" >       12        8        9       13       15 </v>
   <v type="int" >       12        6        8       12       13 </v>
   <v type="int" >       12        8       12       13       14 </v>
   <v type="int" >       12        8       13       14       15 </v>
   <v type="int" >       12        6        6        8       12 </v>
   <v type="int" >       12        6        8       12       14 </v>
   <v type="int" >       12        6       11       12       12 </v>
   <v type="int" >       12        6       12       12       14 </v>
   <v type="int" >       12        2        3        5       11 </v>
   <v type="int" >       12        3        5        6       11 </v>
   <v type="int" >       12        3        6       11       12 </v>
   <v type="int" >       12        8        9       10       14 </v>
   <v type="int" >       12        9       10       14       15 </v>
   <v type="int" >       12       10       14       15       16 </v>
   <v type="int" >       24        9        9       10       15 </v>
   <v type="int" >       12        9       10       10       15 </v>
   <v type="int" >       12       10       10       15       16 </v>
   <v type="int" >       12        9       10       15       15 </v>
   <v type="int" >       12       10       15       15       16 </v>
   <v type="int" >       12       10       15       16       16 </v>
   <v type="int" >       12        8        9        9       15 </v>
   <v type="int" >       12        9       10       15       16 </v>
   <v type="int" >       12        8        9       14       15 </v>
   <v type="int" >       12        9       14       15       15 </v>
   <v type="int" >       24        9       15       15       16 </v>
   <v type="int" >       12        6        7        8       14 </v>
   <v type="int" >       12        7        8        9       14 </v>
   <v type="int" >       12        7        9       14       15 </v>
   <v type="int" >       12        6        7       12       14 </v>
   <v type="int" >       12        7       12       13       14 </v>
   <v type="int" >       12        7       13       14       15 </v>
   <v type="int" >       12        3        4        6       12 </v>
   <v type="int" >       12        4        6        7       12 </v>
   <v type="int" >       12        4        7       12       13 </v>
   <v type="int" >       12       10       10       10       16 </v>
   <v type="int" >       12       10       10       16       16 </v>
   <v type="int" >       12       10       16       16       16 </v>
   <v type="int" >       12        9        9       10       16 </v>
   <v type="int" >       12        9       10       10       16 </v>
   <v type="int" >       12        9       10       16       16 </v>
   <v type="int" >       12        9        9       15       16 </v>
   <v type="int" >       12        9       15       16       16 </v>
   <v type="int" >       12        7        7        9       15 </v>
   <v type="int" >       12        7        9        9       15 </v>
   <v type="int" >       12        7        9       15       15 </v>
   <v type="int" >       12        7        7       13       15 </v>
   <v type="int" >       12        7       13       13       15 </v>
   <v type="int" >       12        7       13       15       15 </v>
   <v type="int" >       12        4        4        7       13 </v>
   <v type="int" >       12        4        7        7       13 </v>
   <v type="int" >       12        4        7       13       13 </v>
   <v type="int" >       12        8        9       10       16 </v>
   <v type="int" >       12        8        9       15       16 </v>
   <v type="int" >       12        8       14       15       16 </v>
   <v type="int" >       12        6        7        9       15 </v>
   <v type="int" >       12        6        8        9       15 </v>
   <v type="int" >       12        6        8       14       15 </v>
   <v type="int" >       12        6        7       13       15 </v>
   <v type="int" >       12        6       12       13       15 </v>
   <v type="int" >       12        6       12       14       15 </v>
   <v type="int" >       12        3        4        7       13 </v>
   <v type="int" >       12        3        6        7       13 </v>
   <v type="int" >       12        3        6       12       13 </v>
   <v type="int" >       12        5        6        8       14 </v>
   <v type="int" >       12        5        6       12       14 </v>
   <v type="int" >       12        5       11       12       14 </v>
   <v type="int" >       12        2        3        6       12 </v>
   <v type="int" >       12        2        5        6       12 </v>
   <v type="int" >       12        2        5       11       12 </v>
   <v type="int" >       12        1        2        5       11 </v>
   <v type="int" >       12       11       12       12       14 </v>
   <v type="int" >       12       12       12       14       14 </v>
   <v type="int" >       12       12       14       14       17 </v>
   <v type="int" >       12       12       13       14       15 </v>
   <v type="int" >       12       12       14       14       15 </v>
   <v type="int" >       12       14       14       15       17 </v>
   <v type="int" >       12       13       14       15       15 </v>
   <v type="int" >       24       14       15       15       18 </v>
   <v type="int" >       24       14       15       17       18 </v>
   <v type="int" >        6       13       13       15       15 </v>
   <v type="int" >       12       13       15       15       15 </v>
   <v type="int" >       12       15       15       15       18 </v>
   <v type="int" >        6       15       15       18       18 </v>
   <v type="int" >       12       14       15       16       17 </v>
   <v type="int" >       12       15       16       17       18 </v>
   <v type="int" >       12       16       17       18       19 </v>
   <v type="int" >       24       15       15       16       18 </v>
   <v type="int" >       12       15       16       16       18 </v>
   <v type="int" >       12       16       16       18       19 </v>
   <v type="int" >       12       15       16       18       18 </v>
   <v type="int" >       12       16       18       18       19 </v>
   <v type="int" >       12       16       18       19       19 </v>
   <v type="int" >       12       15       16       18       19 </v>
   <v type="int" >       12       15       17       18       18 </v>
   <v type="int" >       24       15       18       18       19 </v>
   <v type="int" >       12       12       13       14       17 </v>
   <v type="int" >       12       13       14       15       17 </v>
   <v type="int" >       12       13       15       17       18 </v>
   <v type="int" >       12       16       16       16       19 </v>
   <v type="int" >       12       16       16       19       19 </v>
   <v type="int" >       12       16       19       19       19 </v>
   <v type="int" >       12       15       15       16       19 </v>
   <v type="int" >       12       15       16       16       19 </v>
   <v type="int" >       12       15       16       19       19 </v>
   <v type="int" >       12       15       15       18       19 </v>
   <v type="int" >       12       15       18       19       19 </v>
   <v type="int" >       12       13       13       15       18 </v>
   <v type="int" >       12       13       15       15       18 </v>
   <v type="int" >       12       13       15       18       18 </v>
   <v type="int" >       12       14       15       16       19 </v>
   <v type="int" >       12       14       15       18       19 </v>
   <v type="int" >       12       14       17       18       19 </v>
   <v type="int" >       12       12       13       15       18 </v>
   <v type="int" >       12       12       14       15       18 </v>
   <v type="int" >       12       12       14       17       18 </v>
   <v type="int" >       12       11       12       14       17 </v>
   <v type="int" >       12       17       18       18       19 </v>
   <v type="int" >       18       18       18       19       19 </v>
   <v type="int" >       24       18       19       19       20 </v>
   <v type="int" >       12       18       19       19       19 </v>
   <v type="int" >       24       19       19       19       20 </v>
   <v type="int" >       18       19       19       20       20 </v>
   <v type="int" >       12       19       20       20       20 </v>
   <v type="int" >       12       18       18       19       20 </v>
   <v type="int" >       12       18       19       20       20 </v>
   <v type="int" >       12       17       18       19       20 </v>
   <v type="int" >        6       20       20       20       20 </v>
  </varray>
  <i name="volumeweight">      0.00048591 </i>
 </kpoints>
 <parameters>
  <separator name="general" >
   <i type="string" name="SYSTEM">unknown system</i>
   <i type="logical" name="LCOMPAT"> F  </i>
  </separator>
  <separator name="electronic" >
   <i type="string" name="PREC">accura</i>
   <i name="ENMAX">    920.00000000</i>
   <i name="ENAUG">    578.34200000</i>
   <i name="EDIFF">      0.00000010</i>
   <i type="int" name="IALGO">    38</i>
   <i type="int" name="IWAVPR">    10</i>
   <i type="int" name="NBANDS">    24</i>
   <i name="NELECT">     28.00000000</i>
   <i type="int" name="TURBO">     0</i>
   <i type="int" name="IRESTART">     0</i>
   <i type="int" name="NREBOOT">     0</i>
   <i type="int" name="NMIN">     0</i>
   <i name="EREF">      0.00000000</i>
   <separator name="electronic smearing" >
    <i type="int" name="ISMEAR">    -5</i>
    <i name="SIGMA">      0.05000000</i>
    <i name="KSPACING">      0.50000000</i>
    <i type="logical" name="KGAMMA"> T  </i>
   </separator>
   <separator name="electronic projectors" >
    <i type="logical" name="LREAL"> T  </i>
    <v name="ROPT">     -0.00025000</v>
    <i type="int" name="LMAXPAW">  -100</i>
    <i type="int" name="LMAXMIX">     2</i>
    <i type="logical" name="NLSPLINE"> F  </i>
   </separator>
   <separator name="electronic startup" >
    <i type="int" name="ISTART">     0</i>
    <i type="int" name="ICHARG">     2</i>
    <i type="int" name="INIWAV">     1</i>
   </separator>
   <separator name="electronic spin" >
    <i type="int" name="ISPIN">     2</i>
    <i type="logical" name="LNONCOLLINEAR"> F  </i>
    <v name="MAGMOM">      5.00000000      5.00000000</v>
    <i name="NUPDOWN">     -1.00000000</i>
    <i type="logical" name="LSORBIT"> F  </i>
    <v name="SAXIS">      0.00000000      0.00000000      1.00000000</v>
    <i type="logical" name="LSPIRAL"> F  </i>
    <v name="QSPIRAL">      0.00000000      0.00000000      0.00000000</v>
    <i type="logical" name="LZEROZ"> F  </i>
   </separator>
   <separator name="electronic exchange-correlation" >
    <i type="logical" name="LASPH"> F  </i>
    <i type="logical" name="LMETAGGA"> F  </i>
   </separator>
   <separator name="electronic convergence" >
    <i type="int" name="NELM">   100</i>
    <i type="int" name="NELMDL">    -5</i>
    <i type="int" name="NELMIN">     2</i>
    <i name="ENINI">    920.00000000</i>
    <separator name="electronic convergence detail" >
     <i type="logical" name="LDIAG"> T  </i>
     <i type="logical" name="LSUBROT"> F  </i>
     <i name="WEIMIN">      0.00000000</i>
     <i name="EBREAK">      0.00000000</i>
     <i name="DEPER">      0.30000000</i>
     <i type="int" name="NRMM">     4</i>
     <i name="TIME">      0.40000000</i>
    </separator>
   </separator>
   <separator name="electronic mixer" >
    <i name="AMIX">      0.40000000</i>
    <i name="BMIX">      1.00000000</i>
    <i name="AMIN">      0.10000000</i>
    <i name="AMIX_MAG">      1.60000000</i>
    <i name="BMIX_MAG">      1.00000000</i>
    <separator name="electronic mixer details" >
     <i type="int" name="IMIX">     4</i>
     <i type="logical" name="MIXFIRST"> F  </i>
     <i type="int" name="MAXMIX">   -45</i>
     <i name="WC">    100.00000000</i>
     <i type="int" name="INIMIX">     1</i>
     <i type="int" name="MIXPRE">     1</i>
     <i type="int" name="MREMOVE">     5</i>
    </separator>
   </separator>
   <separator name="electronic dipolcorrection" >
    <i type="logical" name="LDIPOL"> F  </i>
    <i type="logical" name="LMONO"> F  </i>
    <i type="int" name="IDIPOL">     0</i>
    <i name="EPSILON">      1.00000000</i>
    <v name="DIPOL">   -100.00000000   -100.00000000   -100.00000000</v>
    <i name="EFIELD">      0.00000000</i>
   </separator>
  </separator>
  <separator name="grids" >
   <i type="int" name="NGX">    28</i>
   <i type="int" name="NGY">    28</i>
   <i type="int" name="NGZ">    28</i>
   <i type="int" name="NGXF">    56</i>
   <i type="int" name="NGYF">    56</i>
   <i type="int" name="NGZF">    56</i>
   <i type="logical" name="ADDGRID"> F  </i>
  </separator>
  <separator name="ionic" >
   <i type="int" name="NSW">     0</i>
   <i type="int" name="IBRION">    -1</i>
   <i type="int" name="MDALGO">     0</i>
   <i type="int" name="ISIF">     3</i>
   <i name="PSTRESS">      0.00000000</i>
   <i name="EDIFFG">      0.00000100</i>
   <i type="int" name="NFREE">     0</i>
   <i name="POTIM">      0.50000000</i>
   <i name="SMASS">     -3.00000000</i>
   <i name="SCALEE">      1.00000000</i>
  </separator>
  <separator name="ionic md" >
   <i name="TEBEG">      0.00010000</i>
   <i name="TEEND">      0.00010000</i>
   <i type="int" name="NBLOCK">     1</i>
   <i type="int" name="KBLOCK">     1</i>
   <i type="int" name="NPACO">   256</i>
   <i name="APACO">     16.00000000</i>
  </separator>
  <separator name="symmetry" >
   <i type="int" name="ISYM">     2</i>
   <i name="SYMPREC">      0.00001000</i>
  </separator>
  <separator name="dos" >
   <i type="int" name="LORBIT">    11</i>
   <v name="RWIGS">     -1.00000000</v>
   <i type="int" name="NEDOS">   301</i>
   <i name="EMIN">     10.00000000</i>
   <i name="EMAX">    -10.00000000</i>
   <i name="EFERMI">      0.00000000</i>
  </separator>
  <separator name="writing" >
   <i type="int" name="NWRITE">     2</i>
   <i type="logical" name="LWAVE"> F  </i>
   <i type="logical" name="LDOWNSAMPLE"> F  </i>
   <i type="logical" name="LCHARG"> F  </i>
   <i type="logical" name="LPARD"> F  </i>
   <i type="logical" name="LVTOT"> F  </i>
   <i type="logical" name="LVHAR"> F  </i>
   <i type="logical" name="LELF"> F  </i>
   <i type="logical" name="LOPTICS"> F  </i>
   <v name="STM">      0.00000000      0.00000000      0.00000000      0.00000000      0.00000000      0.00000000      0.00000000</v>
  </separator>
  <separator name="performance" >
   <i type="int" name="NPAR">     6</i>
   <i type="int" name="NSIM">     4</i>
   <i type="int" name="NBLK">    -1</i>
   <i type="logical" name="LPLANE"> T  </i>
   <i type="logical" name="LSCALAPACK"> T  </i>
   <i type="logical" name="LSCAAWARE"> F  </i>
   <i type="logical" name="LSCALU"> F  </i>
   <i type="logical" name="LASYNC"> F  </i>
   <i type="logical" name="LORBITALREAL"> F  </i>
  </separator>
  <separator name="miscellaneous" >
   <i type="int" name="IDIOT">     3</i>
   <i type="int" name="ISPECIAL">     0</i>
   <i type="logical" name="LMUSIC"> F  </i>
   <v name="POMASS">     55.84700000</v>
   <v name="DARWINR">      0.00000000</v>
   <v name="DARWINV">      1.00000000</v>
   <i type="logical" name="LCORR"> T  </i>
  </separator>
  <i type="logical" name="GGA_COMPAT"> T  </i>
  <i type="logical" name="LBERRY"> F  </i>
  <i type="int" name="ICORELEVEL">     0</i>
  <i type="logical" name="LDAU"> F  </i>
  <i type="int" name="I_CONSTRAINED_M">     0</i>
  <separator name="electronic exchange-correlation" >
   <i type="string" name="GGA">--</i>
   <i type="int" name="VOSKOWN">     0</i>
   <i type="logical" name="LHFCALC"> F  </i>
   <i type="string" name="PRECFOCK"></i>
   <i type="logical" name="LSYMGRAD"> F  </i>
   <i type="logical" name="LHFONE"> F  </i>
   <i type="logical" name="LRHFCALC"> F  </i>
   <i type="logical" name="LTHOMAS"> F  </i>
   <i type="logical" name="LMODELHF"> F  </i>
   <i name="ENCUT4O">     -1.00000000</i>
   <i type="int" name="EXXOEP">     0</i>
   <i type="int" name="FOURORBIT">     0</i>
   <i name="AEXX">      0.00000000</i>
   <i name="HFALPHA">      0.00000000</i>
   <i name="MCALPHA">      0.00000000</i>
   <i name="ALDAX">      1.00000000</i>
   <i name="AGGAX">      1.00000000</i>
   <i name="ALDAC">      1.00000000</i>
   <i name="AGGAC">      1.00000000</i>
   <i type="int" name="NKREDX">     1</i>
   <i type="int" name="NKREDY">     1</i>
   <i type="int" name="NKREDZ">     1</i>
   <i type="logical" name="SHIFTRED"> F  </i>
   <i type="logical" name="ODDONLY"> F  </i>
   <i type="logical" name="EVENONLY"> F  </i>
   <i type="int" name="LMAXFOCK">     0</i>
   <i type="int" name="NMAXFOCKAE">     0</i>
   <i type="logical" name="LFOCKAEDFT"> F  </i>
   <i name="HFSCREEN">      0.00000000</i>
   <i name="HFSCREENC">      0.00000000</i>
   <i type="int" name="NBANDSGWLOW">     0</i>
  </separator>
  <separator name="vdW DFT" >
   <i type="logical" name="LUSE_VDW"> F  </i>
   <i name="Zab_VDW">     -0.84910000</i>
   <i name="PARAM1">      0.12340000</i>
   <i name="PARAM2">      1.00000000</i>
   <i name="PARAM3">      0.00000000</i>
  </separator>
  <separator name="model GW" >
   <i type="int" name="MODEL_GW">     0</i>
   <i name="MODEL_EPS0">      6.87226868</i>
   <i name="MODEL_ALPHA">      1.00000000</i>
  </separator>
  <separator name="linear response parameters" >
   <i type="logical" name="LEPSILON"> F  </i>
   <i type="logical" name="LRPA"> F  </i>
   <i type="logical" name="LNABLA"> F  </i>
   <i type="logical" name="LVEL"> F  </i>
   <i type="int" name="KINTER">     0</i>
   <i name="CSHIFT">      0.10000000</i>
   <i name="OMEGAMAX">     -1.00000000</i>
   <i name="DEG_THRESHOLD">      0.00200000</i>
   <i name="RTIME">     -0.10000000</i>
   <i name="WPLASMAI">      0.00000000</i>
   <v name="DFIELD">      0.00000000      0.00000000      0.00000000</v>
   <v name="WPLASMA">      0.00000000      0.00000000      0.00000000      0.00000000      0.00000000      0.00000000      0.00000000      0.00000000      0.00000000</v>
  </separator>
  <separator name="orbital magnetization" >
   <i type="logical" name="NUCIND"> F  </i>
   <v name="MAGPOS">      0.00000000      0.00000000      0.00000000</v>
   <i type="logical" name="LNICSALL"> T  </i>
   <i type="logical" name="ORBITALMAG"> F  </i>
   <i type="logical" name="LMAGBLOCH"> F  </i>
   <i type="logical" name="LCHIMAG"> F  </i>
   <i type="logical" name="LGAUGE"> T  </i>
   <i type="int" name="MAGATOM">     0</i>
   <v name="MAGDIPOL">      0.00000000      0.00000000      0.00000000</v>
   <v name="AVECCONST">      0.00000000      0.00000000      0.00000000</v>
  </separator>
  <separator name="response functions" >
   <i type="logical" name="LADDER"> F  </i>
   <i type="logical" name="LRPAFORCE"> F  </i>
   <i type="logical" name="LFXC"> F  </i>
   <i type="logical" name="LHARTREE"> T  </i>
   <i type="int" name="IBSE">     0</i>
   <v type="int" name="KPOINT">    -1     0     0     0</v>
   <i type="logical" name="LTCTE"> F  </i>
   <i type="logical" name="LTETE"> F  </i>
   <i type="logical" name="LTRIPLET"> F  </i>
   <i type="logical" name="LFXCEPS"> F  </i>
   <i type="logical" name="LFXHEG"> F  </i>
   <i type="int" name="NATURALO">     2</i>
   <i type="logical" name="L2ORDER"> F  </i>
   <i type="logical" name="LMP2LT"> F  </i>
   <i type="logical" name="LUSEW"> F  </i>
   <i name="ENCUTGW">     -2.00000000</i>
   <i name="ENCUTGWSOFT">     -2.00000000</i>
   <i name="ENCUTLF">     -1.00000000</i>
   <i type="int" name="LMAXMP2">    -1</i>
   <i name="SCISSOR">      0.00000000</i>
   <i type="int" name="NOMEGA">     0</i>
   <i type="int" name="NOMEGAR">     0</i>
   <i type="int" name="NBANDSGW">    -1</i>
   <i type="int" name="NBANDSO">    -1</i>
   <i type="int" name="NBANDSV">    -1</i>
   <i type="int" name="NELM">   100</i>
   <i type="int" name="NELMHF">     1</i>
   <i type="int" name="DIM">     3</i>
   <i type="int" name="ANTIRES">     0</i>
   <i name="OMEGAMAX">    -30.00000000</i>
   <i name="OMEGAMIN">    -30.00000000</i>
   <i name="OMEGATL">   -200.00000000</i>
   <i type="int" name="OMEGAGRID">   140</i>
   <i name="CSHIFT">     -0.10000000</i>
   <i type="logical" name="SELFENERGY"> F  </i>
   <i type="logical" name="LSPECTRAL"> F  </i>
   <i type="logical" name="LSPECTRALGW"> F  </i>
   <i type="logical" name="LSINGLES"> F  </i>
   <i type="logical" name="LFERMIGW"> F  </i>
   <i type="logical" name="ODDONLYGW"> F  </i>
   <i type="logical" name="EVENONLYGW"> F  </i>
   <i type="int" name="NKREDLFX">     1</i>
   <i type="int" name="NKREDLFY">     1</i>
   <i type="int" name="NKREDLFZ">     1</i>
   <i type="int" name="MAXMEM">  2800</i>
   <i type="int" name="TELESCOPE">     0</i>
   <i type="int" name="TAUPAR">     1</i>
   <i type="int" name="OMEGAPAR">    -1</i>
   <i name="LAMBDA">      1.00000000</i>
  </separator>
  <separator name="External order field" >
   <i name="OFIELD_KAPPA">      0.00000000</i>
   <v name="OFIELD_K">      0.00000000      0.00000000      0.00000000</v>
   <i name="OFIELD_Q6_NEAR">      0.00000000</i>
   <i name="OFIELD_Q6_FAR">      0.00000000</i>
   <i name="OFIELD_A">      0.00000000</i>
  </separator>
 </parameters>
 <atominfo>
  <atoms>       2 </atoms>
  <types>       1 </types>
  <array name="atoms" >
   <dimension dim="1">ion</dimension>
   <field type="string">element</field>
   <field type="int">atomtype</field>
   <set>
    <rc><c>Fe</c><c>   1</c></rc>
    <rc><c>Fe</c><c>   1</c></rc>
   </set>
  </array>
  <array name="atomtypes" >
   <dimension dim="1">type</dimension>
   <field type="int">atomspertype</field>
   <field type="string">element</field>
   <field>mass</field>
   <field>valence</field>
   <field type="string">pseudopotential</field>
   <set>
    <rc><c>   2</c><c>Fe</c><c>     55.84700000</c><c>     14.00000000</c><c>  PAW_PBE Fe_pv 02Aug2007               </c></rc>
   </set>
  </array>
 </atominfo>
 <structure name="initialpos" >
  <crystal>
   <varray name="basis" >
    <v>       2.84005200       0.00000000       0.00000000 </v>
    <v>       0.00000000       2.84005200       0.00000000 </v>
    <v>       0.00000000       0.00000000       2.84005200 </v>
   </varray>
   <i name="volume">     22.90756226 </i>
   <varray name="rec_basis" >
    <v>       0.35210623       0.00000000       0.00000000 </v>
    <v>       0.00000000       0.35210623       0.00000000 </v>
    <v>       0.00000000       0.00000000       0.35210623 </v>
   </varray>
  </crystal>
  <varray name="positions" >
   <v>       0.00000000       0.00000000       0.00000000 </v>
   <v>       0.50000000       0.50000000       0.50000000 </v>
  </varray>
 </structure>
 <calculation>
  <scstep>
   <time name="dav">    0.30    0.31</time>
   <time name="total">    0.34    0.35</time>
   <energy>
    <i name="alphaZ">    218.87048721 </i>
    <i name="ewald">  -3616.56080017 </i>
    <i name="hartreedc">  -1162.86386254 </i>
    <i name="XCdc">    147.54621443 </i>
    <i name="pawpsdc">   3997.93860218 </i>
    <i name="pawaedc">  -4177.34792201 </i>
    <i name="eentropy">      0.00000000 </i>
    <i name="bandstr">    -61.37294730 </i>
    <i name="atom">   4914.84579160 </i>
    <i name="e_fr_energy">    261.05556340 </i>
    <i name="e_wo_entrp">    261.05556340 </i>
    <i name="e_0_energy">    261.05556340 </i>
   </energy>
  </scstep>
  <scstep>
   <time name="dav">    0.29    0.30</time>
   <time name="total">    0.30    0.31</time>
   <energy>
    <i name="e_fr_energy">     -8.55250078 </i>
    <i name="e_wo_entrp">     -8.55250078 </i>
    <i name="e_0_energy">     -8.55250078 </i>
   </energy>
  </scstep>
  <scstep>
   <time name="dav">    0.32    0.32</time>
   <time name="total">    0.33    0.33</time>
   <energy>
    <i name="e_fr_energy">    -16.20059235 </i>
    <i name="e_wo_entrp">    -16.20059235 </i>
    <i name="e_0_energy">    -16.20059235 </i>
   </energy>
  </scstep>
  <scstep>
   <time name="dav">    0.34    0.34</time>
   <time name="total">    0.35    0.36</time>
   <energy>
    <i name="e_fr_energy">    -16.26762391 </i>
    <i name="e_wo_entrp">    -16.26762391 </i>
    <i name="e_0_energy">    -16.26762391 </i>
   </energy>
  </scstep>
  <scstep>
   <time name="dav">    0.31    0.31</time>
   <time name="total">    0.34    0.34</time>
   <energy>
    <i name="e_fr_energy">    -16.26883840 </i>
    <i name="e_wo_entrp">    -16.26883840 </i>
    <i name="e_0_energy">    -16.26883840 </i>
   </energy>
  </scstep>
  <scstep>
   <time name="dav">    0.29    0.29</time>
   <time name="total">    0.33    0.33</time>
   <energy>
    <i name="e_fr_energy">    -16.45288745 </i>
    <i name="e_wo_entrp">    -16.45288745 </i>
    <i name="e_0_energy">    -16.45288745 </i>
   </energy>
  </scstep>
  <scstep>
   <time name="dav">    0.29    0.29</time>
   <time name="total">    0.33    0.33</time>
   <energy>
    <i name="e_fr_energy">    -16.51259512 </i>
    <i name="e_wo_entrp">    -16.51259512 </i>
    <i name="e_0_energy">    -16.51259512 </i>
   </energy>
  </scstep>
  <scstep>
   <time name="dav">    0.30    0.30</time>
   <time name="total">    0.34    0.34</time>
   <energy>
    <i name="e_fr_energy">    -16.52385090 </i>
    <i name="e_wo_entrp">    -16.52385090 </i>
    <i name="e_0_energy">    -16.52385090 </i>
   </energy>
  </scstep>
  <scstep>
   <time name="dav">    0.32    0.32</time>
   <time name="total">    0.37    0.37</time>
   <energy>
    <i name="e_fr_energy">    -16.51540637 </i>
    <i name="e_wo_entrp">    -16.51540637 </i>
    <i name="e_0_energy">    -16.51540637 </i>
   </energy>
  </scstep>
  <scstep>
   <time name="dav">    0.30    0.30</time>
   <time name="total">    0.34    0.35</time>
   <energy>
    <i name="e_fr_energy">    -16.51539152 </i>
    <i name="e_wo_entrp">    -16.51539152 </i>
    <i name="e_0_energy">    -16.51539152 </i>
   </energy>
  </scstep>
  <scstep>
   <time name="dav">    0.31    0.31</time>
   <time name="total">    0.36    0.36</time>
   <energy>
    <i name="e_fr_energy">    -16.51547320 </i>
    <i name="e_wo_entrp">    -16.51547320 </i>
    <i name="e_0_energy">    -16.51547320 </i>
   </energy>
  </scstep>
  <scstep>
   <time name="dav">    0.32    0.33</time>
   <time name="total">    0.37    0.37</time>
   <energy>
    <i name="e_fr_energy">    -16.51552661 </i>
    <i name="e_wo_entrp">    -16.51552661 </i>
    <i name="e_0_energy">    -16.51552661 </i>
   </energy>
  </scstep>
  <scstep>
   <time name="dav">    0.32    0.32</time>
   <time name="total">    0.36    0.36</time>
   <energy>
    <i name="e_fr_energy">    -16.51550792 </i>
    <i name="e_wo_entrp">    -16.51550792 </i>
    <i name="e_0_energy">    -16.51550792 </i>
   </energy>
  </scstep>
  <scstep>
   <time name="dav">    0.26    0.26</time>
   <time name="total">    0.31    0.31</time>
   <energy>
    <i name="e_fr_energy">    -16.51548805 </i>
    <i name="e_wo_entrp">    -16.51548805 </i>
    <i name="e_0_energy">    -16.51548805 </i>
   </energy>
  </scstep>
  <scstep>
   <time name="dav">    0.20    0.20</time>
   <time name="total">    0.24    0.24</time>
   <energy>
    <i name="e_fr_energy">    -16.51548846 </i>
    <i name="e_wo_entrp">    -16.51548846 </i>
    <i name="e_0_energy">    -16.51548846 </i>
   </energy>
  </scstep>
  <scstep>
   <time name="dav">    0.19    0.19</time>
   <time name="total">    0.24    0.24</time>
   <energy>
    <i name="e_fr_energy">    -16.51548782 </i>
    <i name="e_wo_entrp">    -16.51548782 </i>
    <i name="e_0_energy">    -16.51548782 </i>
   </energy>
  </scstep>
  <scstep>
   <time name="dav">    0.19    0.19</time>
   <time name="total">    0.24    0.24</time>
   <energy>
    <i name="e_fr_energy">    -16.51548801 </i>
    <i name="e_wo_entrp">    -16.51548801 </i>
    <i name="e_0_energy">    -16.51548801 </i>
   </energy>
  </scstep>
  <scstep>
   <time name="dav">    0.19    0.19</time>
   <time name="total">    0.23    0.23</time>
   <energy>
    <i name="e_fr_energy">    -16.51548822 </i>
    <i name="e_wo_entrp">    -16.51548822 </i>
    <i name="e_0_energy">    -16.51548822 </i>
   </energy>
  </scstep>
  <scstep>
   <time name="dav">    0.19    0.19</time>
   <time name="total">    0.21    0.21</time>
   <energy>
    <i name="alphaZ">    218.87048721 </i>
    <i name="ewald">  -3616.56080017 </i>
    <i name="hartreedc">  -1088.79253015 </i>
    <i name="XCdc">    140.78225517 </i>
    <i name="pawpsdc">   4369.09621997 </i>
    <i name="pawaedc">  -4554.50130335 </i>
    <i name="eentropy">      0.00000000 </i>
    <i name="bandstr">   -400.25560848 </i>
    <i name="atom">   4914.84579160 </i>
    <i name="e_fr_energy">    -16.51548819 </i>
    <i name="e_wo_entrp">    -16.51548819 </i>
    <i name="e_0_energy">    -16.51548819 </i>
   </energy>
  </scstep>
  <structure>
   <crystal>
    <varray name="basis" >
     <v>       2.84005200       0.00000000       0.00000000 </v>
     <v>       0.00000000       2.84005200       0.00000000 </v>
     <v>       0.00000000       0.00000000       2.84005200 </v>
    </varray>
    <i name="volume">     22.90756226 </i>
    <varray name="rec_basis" >
     <v>       0.35210623       0.00000000       0.00000000 </v>
     <v>       0.00000000       0.35210623       0.00000000 </v>
     <v>       0.00000000       0.00000000       0.35210623 </v>
    </varray>
   </crystal>
   <varray name="positions" >
    <v>       0.00000000       0.00000000       0.00000000 </v>
    <v>       0.50000000       0.50000000       0.50000000 </v>
   </varray>
  </structure>
  <varray name="forces" >
   <v>       0.00000000      -0.00000000       0.00000000 </v>
   <v>      -0.00000000       0.00000000      -0.00000000 </v>
  </varray>
  <varray name="stress" >
   <v>     -24.31308116       0.00000000       0.00000000 </v>
   <v>       0.00000000     -24.31308116       0.00000000 </v>
   <v>      -0.00000000       0.00000000     -24.31308116 </v>
  </varray>
  <energy>
   <i name="e_fr_energy">    -16.51548819 </i>
   <i name="e_wo_entrp">    -16.51548819 </i>
   <i name="e_0_energy">      0.00000000 </i>
  </energy>
  <time name="totalsc">    6.25    6.29</time>
  <eigenvalues>
   <array>
    <dimension dim="1">band</dimension>
    <dimension dim="2">kpoint</dimension>
    <dimension dim="3">spin</dimension>
    <field>eigene</field>
    <field>occ</field>
    <set>
     <set comment="spin 1">
      <set comment="kpoint 1">
       <r>  -44.5860    1.0000 </r>
       <r>  -44.5860    1.0000 </r>
       <r>  -44.5860    1.0000 </r>
       <r>  -44.2998    1.0000 </r>
       <r>  -44.2998    1.0000 </r>
       <r>  -44.2998    1.0000 </r>
       <r>    1.2378    1.0000 </r>
       <r>    4.8521    1.0000 </r>
       <r>    4.8521    1.0000 </r>
       <r>    7.3187    1.0000 </r>
       <r>    7.3187    1.0000 </r>
       <r>    7.3187    1.0000 </r>
       <r>    8.5727    1.0000 </r>
       <r>    8.5727    1.0000 </r>
       <r>    9.7056    0.8191 </r>
       <r>    9.7056    0.6509 </r>
       <r>    9.7056   -0.0274 </r>
       <r>   19.4701    0.0000 </r>
       <r>   19.4701    0.0000 </r>
       <r>   19.4701    0.0000 </r>
       <r>   25.3136    0.0000 </r>
       <r>   25.3136    0.0000 </r>
       <r>   30.2081    0.0000 </r>
       <r>   33.9478    0.0000 </r>
      </set>
      <set comment="kpoint 2">
       <r>  -44.5835    1.0000 </r>
       <r>  -44.5711    1.0000 </r>
       <r>  -44.5711    1.0000 </r>
       <r>  -44.3260    1.0000 </r>
       <r>  -44.3132    1.0000 </r>
       <r>  -44.3132    1.0000 </r>
       <r>    1.6548    1.0000 </r>
       <r>    5.0273    1.0000 </r>
       <r>    5.0287    1.0000 </r>
       <r>    7.3184    1.0000 </r>
       <r>    7.3184    1.0000 </r>
       <r>    7.4313    1.0000 </r>
       <r>    8.3865    1.0000 </r>
       <r>    8.6452    1.0000 </r>
       <r>    9.3769    0.9904 </r>
       <r>    9.3769    0.9926 </r>
       <r>    9.5819    0.1525 </r>
       <r>   17.1270    0.0000 </r>
       <r>   20.2481    0.0000 </r>
       <r>   20.2481    0.0000 </r>
       <r>   25.4282    0.0000 </r>
       <r>   26.7242    0.0000 </r>
       <r>   31.7663    0.0000 </r>
       <r>   32.1305    0.0000 </r>
      </set>
      <set comment="kpoint 3">
       <r>  -44.5702    1.0000 </r>
       <r>  -44.5296    1.0000 </r>
       <r>  -44.5296    1.0000 </r>
       <r>  -44.3924    1.0000 </r>
       <r>  -44.3511    1.0000 </r>
       <r>  -44.3511    1.0000 </r>
       <r>    2.8198    1.0000 </r>
       <r>    5.3884    1.0000 </r>
       <r>    5.5296    1.0000 </r>
       <r>    7.3662    1.0000 </r>
       <r>    7.3662    1.0000 </r>
       <r>    7.7498    1.0000 </r>
       <r>    7.8620    1.0000 </r>
       <r>    8.6746    1.0000 </r>
       <r>    8.6746    1.0000 </r>
       <r>    8.8534    1.0000 </r>
       <r>    9.2382    1.2170 </r>
       <r>   13.5790    0.0000 </r>
       <r>   22.2776    0.0000 </r>
       <r>   22.2776    0.0000 </r>
       <r>   25.8048    0.0000 </r>
       <r>   27.6621    0.0000 </r>
       <r>   29.6469    0.0000 </r>
       <r>   31.5507    0.0000 </r>
      </set>
      <set comment="kpoint 4">
       <r>  -44.5342    1.0000 </r>
       <r>  -44.4708    1.0000 </r>
       <r>  -44.4708    1.0000 </r>
       <r>  -44.4708    1.0000 </r>
       <r>  -44.4071    1.0000 </r>
       <r>  -44.4071    1.0000 </r>
       <r>    4.3702    1.0000 </r>
       <r>    5.3941    1.0000 </r>
       <r>    6.2679    1.0000 </r>
       <r>    7.1027    1.0000 </r>
       <r>    7.5681    1.0000 </r>
       <r>    7.5681    1.0000 </r>
       <r>    8.0085    1.0000 </r>
       <r>    8.0085    1.0000 </r>
       <r>    8.2183    1.0000 </r>
       <r>    8.7495    1.0000 </r>
       <r>    9.3234    1.0317 </r>
       <r>   10.7458    0.0000 </r>
       <r>   25.0785    0.0000 </r>
       <r>   25.0785    0.0000 </r>
       <r>   26.5388    0.0000 </r>
       <r>   27.7732    0.0000 </r>
       <r>   28.3061    0.0000 </r>
       <r>   28.3061    0.0000 </r>
      </set>
      <set comment="kpoint 5">
       <r>  -44.6069    1.0000 </r>
       <r>  -44.5575    1.0000 </r>
       <r>  -44.5329    1.0000 </r>
       <r>  -44.3759    1.0000 </r>
       <r>  -44.3251    1.0000 </r>
       <r>  -44.2998    1.0000 </r>
       <r>    2.0553    1.0000 </r>
       <r>    5.1675    1.0000 </r>
       <r>    5.2240    1.0000 </r>
       <r>    7.1056    1.0000 </r>
       <r>    7.2753    1.0000 </r>
       <r>    7.7509    1.0000 </r>
       <r>    8.4092    1.0000 </r>
       <r>    8.5923    1.0000 </r>
       <r>    8.8425    1.0075 </r>
       <r>    9.0614    1.0124 </r>
       <r>    9.7552   -0.1070 </r>
       <r>   17.2630    0.0000 </r>
       <r>   18.3121    0.0000 </r>
       <r>   20.9366    0.0000 </r>
       <r>   26.1154    0.0000 </r>
       <r>   28.2551    0.0000 </r>
       <r>   30.2218    0.0000 </r>
       <r>   32.7686    0.0000 </r>
      </set>
      <set comment="kpoint 6">
       <r>  -44.6146    1.0000 </r>
       <r>  -44.5199    1.0000 </r>
       <r>  -44.4778    1.0000 </r>
       <r>  -44.4554    1.0000 </r>
       <r>  -44.3590    1.0000 </r>
       <r>  -44.3161    1.0000 </r>
       <r>    3.1546    1.0000 </r>
       <r>    5.4743    1.0000 </r>
       <r>    5.7082    1.0000 </r>
       <r>    6.9915    1.0000 </r>
       <r>    7.2054    1.0000 </r>
       <r>    8.0940    1.0000 </r>
       <r>    8.1478    1.0000 </r>
       <r>    8.2098    1.0000 </r>
       <r>    8.4620    1.0000 </r>
       <r>    8.7776    1.0000 </r>
       <r>    9.6271    0.2230 </r>
       <r>   14.0007    0.0000 </r>
       <r>   19.5917    0.0000 </r>
       <r>   22.8015    0.0000 </r>
       <r>   26.5686    0.0000 </r>
       <r>   27.1420    0.0000 </r>
       <r>   30.0375    0.0000 </r>
       <r>   30.8632    0.0000 </r>
      </set>
      <set comment="kpoint 7">
       <r>  -44.5919    1.0000 </r>
       <r>  -44.5353    1.0000 </r>
       <r>  -44.4667    1.0000 </r>
       <r>  -44.4166    1.0000 </r>
       <r>  -44.4093    1.0000 </r>
       <r>  -44.3588    1.0000 </r>
       <r>    4.5458    1.0000 </r>
       <r>    5.4412    1.0000 </r>
       <r>    6.3339    1.0000 </r>
       <r>    6.9394    1.0000 </r>
       <r>    7.0931    1.0000 </r>
       <r>    7.4659    1.0000 </r>
       <r>    8.0088    1.0000 </r>
       <r>    8.1022    1.0000 </r>
       <r>    8.7298    1.0000 </r>
       <r>    9.2394    1.0000 </r>
       <r>    9.3103    0.9286 </r>
       <r>   11.0089    0.0000 </r>
       <r>   21.7601    0.0000 </r>
       <r>   24.2900    0.0000 </r>
       <r>   25.4745    0.0000 </r>
       <r>   27.3528    0.0000 </r>
       <r>   28.6505    0.0000 </r>
       <r>   28.7719    0.0000 </r>
      </set>
      <set comment="kpoint 8">
       <r>  -44.6538    1.0000 </r>
       <r>  -44.5445    1.0000 </r>
       <r>  -44.4931    1.0000 </r>
       <r>  -44.4121    1.0000 </r>
       <r>  -44.3817    1.0000 </r>
       <r>  -44.2996    1.0000 </r>
       <r>    3.9681    1.0000 </r>
       <r>    5.4316    1.0000 </r>
       <r>    6.3325    1.0000 </r>
       <r>    6.6488    1.0000 </r>
       <r>    7.2911    1.0000 </r>
       <r>    7.3449    1.0000 </r>
       <r>    8.2119    1.0000 </r>
       <r>    8.4465    1.0000 </r>
       <r>    8.6618    1.0000 </r>
       <r>    8.8212    1.0154 </r>
       <r>    9.8675   -0.1357 </r>
       <r>   13.9358    0.0000 </r>
       <r>   17.2594    0.0000 </r>
       <r>   23.7038    0.0000 </r>
       <r>   24.3076    0.0000 </r>
       <r>   26.8680    0.0000 </r>
       <r>   29.8301    0.0000 </r>
       <r>   32.7443    0.0000 </r>
      </set>
      <set comment="kpoint 9">
       <r>  -44.6581    1.0000 </r>
       <r>  -44.6192    1.0000 </r>
       <r>  -44.4556    1.0000 </r>
       <r>  -44.4159    1.0000 </r>
       <r>  -44.3549    1.0000 </r>
       <r>  -44.3146    1.0000 </r>
       <r>    4.7262    1.0000 </r>
       <r>    5.1823    1.0000 </r>
       <r>    6.5646    1.0000 </r>
       <r>    6.8000    1.0000 </r>
       <r>    7.0475    1.0000 </r>
       <r>    7.5094    1.0000 </r>
       <r>    8.3059    1.0000 </r>
       <r>    8.4876    1.0000 </r>
       <r>    9.2563    1.0000 </r>
       <r>    9.3697    0.9799 </r>
       <r>    9.7554   -0.0058 </r>
       <r>   11.4408    0.0000 </r>
       <r>   18.3997    0.0000 </r>
       <r>   20.7314    0.0000 </r>
       <r>   26.6260    0.0000 </r>
       <r>   27.4031    0.0000 </r>
       <r>   28.4400    0.0000 </r>
       <r>   29.5567    0.0000 </r>
      </set>
      <set comment="kpoint 10">
       <r>  -44.6912    1.0000 </r>
       <r>  -44.6774    1.0000 </r>
       <r>  -44.4411    1.0000 </r>
       <r>  -44.4269    1.0000 </r>
       <r>  -44.3139    1.0000 </r>
       <r>  -44.2995    1.0000 </r>
       <r>    4.7393    1.0000 </r>
       <r>    4.8693    1.0000 </r>
       <r>    6.3022    1.0000 </r>
       <r>    6.3819    1.0000 </r>
       <r>    8.0852    1.0000 </r>
       <r>    8.5179    1.0000 </r>
       <r>    8.5600    1.0000 </r>
       <r>    8.7449    1.0000 </r>
       <r>    9.4117    1.0000 </r>
       <r>    9.8138    0.2132 </r>
       <r>    9.9587   -0.0004 </r>
       <r>   10.9757    0.0000 </r>
       <r>   16.9367    0.0000 </r>
       <r>   18.0538    0.0000 </r>
       <r>   27.5310    0.0000 </r>
       <r>   27.9192    0.0000 </r>
       <r>   28.3839    0.0000 </r>
       <r>   30.0199    0.0000 </r>
      </set>
      <set comment="kpoint 11">
       <r>  -44.5909    1.0000 </r>
       <r>  -44.5909    1.0000 </r>
       <r>  -44.4906    1.0000 </r>
       <r>  -44.4168    1.0000 </r>
       <r>  -44.3142    1.0000 </r>
       <r>  -44.3142    1.0000 </r>
       <r>    2.4446    1.0000 </r>
       <r>    5.3598    1.0000 </r>
       <r>    5.3598    1.0000 </r>
       <r>    7.0489    1.0000 </r>
       <r>    7.0489    1.0000 </r>
       <r>    8.0913    1.0000 </r>
       <r>    8.1885    1.0000 </r>
       <r>    8.5017    1.0000 </r>
       <r>    8.5017    1.0035 </r>
       <r>    9.4308    0.9959 </r>
       <r>    9.4308    0.7598 </r>
       <r>   17.9313    0.0000 </r>
       <r>   17.9313    0.0000 </r>
       <r>   19.2466    0.0000 </r>
       <r>   28.5035    0.0000 </r>
       <r>   28.5035    0.0000 </r>
       <r>   30.0273    0.0000 </r>
       <r>   30.0273    0.0000 </r>
      </set>
      <set comment="kpoint 12">
       <r>  -44.6148    1.0000 </r>
       <r>  -44.5465    1.0000 </r>
       <r>  -44.4913    1.0000 </r>
       <r>  -44.4364    1.0000 </r>
       <r>  -44.3550    1.0000 </r>
       <r>  -44.3176    1.0000 </r>
       <r>    3.4969    1.0000 </r>
       <r>    5.7272    1.0000 </r>
       <r>    5.7308    1.0000 </r>
       <r>    6.9019    1.0000 </r>
       <r>    6.9026    1.0000 </r>
       <r>    7.4882    1.0000 </r>
       <r>    8.2757    1.0000 </r>
       <r>    8.6363    1.0000 </r>
       <r>    8.7499    1.0000 </r>
       <r>    8.7823    1.0000 </r>
       <r>    9.4823    0.5908 </r>
       <r>   14.4995    0.0000 </r>
       <r>   19.5883    0.0000 </r>
       <r>   20.3657    0.0000 </r>
       <r>   26.9185    0.0000 </r>
       <r>   28.0073    0.0000 </r>
       <r>   29.2908    0.0000 </r>
       <r>   30.6767    0.0000 </r>
      </set>
      <set comment="kpoint 13">
       <r>  -44.6070    1.0000 </r>
       <r>  -44.5626    1.0000 </r>
       <r>  -44.4835    1.0000 </r>
       <r>  -44.4151    1.0000 </r>
       <r>  -44.3851    1.0000 </r>
       <r>  -44.3432    1.0000 </r>
       <r>    4.7719    1.0000 </r>
       <r>    5.6168    1.0000 </r>
       <r>    6.2224    1.0000 </r>
       <r>    6.6495    1.0000 </r>
       <r>    7.0643    1.0000 </r>
       <r>    7.2322    1.0000 </r>
       <r>    8.1041    1.0000 </r>
       <r>    8.2627    1.0000 </r>
       <r>    8.9031    1.0000 </r>
       <r>    9.2206    1.0000 </r>
       <r>    9.6170    0.2323 </r>
       <r>   11.4750    0.0000 </r>
       <r>   21.7417    0.0000 </r>
       <r>   22.3721    0.0000 </r>
       <r>   24.1770    0.0000 </r>
       <r>   24.9753    0.0000 </r>
       <r>   30.7019    0.0000 </r>
       <r>   31.8505    0.0000 </r>
      </set>
      <set comment="kpoint 14">
       <r>  -44.6355    1.0000 </r>
       <r>  -44.5590    1.0000 </r>
       <r>  -44.5302    1.0000 </r>
       <r>  -44.3862    1.0000 </r>
       <r>  -44.3764    1.0000 </r>
       <r>  -44.3163    1.0000 </r>
       <r>    4.3234    1.0000 </r>
       <r>    5.6930    1.0000 </r>
       <r>    6.3434    1.0000 </r>
       <r>    6.5774    1.0000 </r>
       <r>    6.8812    1.0000 </r>
       <r>    6.8828    1.0000 </r>
       <r>    8.4852    1.0000 </r>
       <r>    8.5841    1.0000 </r>
       <r>    8.6573    1.0000 </r>
       <r>    9.4040    0.9945 </r>
       <r>    9.5008    0.2934 </r>
       <r>   14.7026    0.0000 </r>
       <r>   17.3433    0.0000 </r>
       <r>   21.1838    0.0000 </r>
       <r>   23.9219    0.0000 </r>
       <r>   27.5195    0.0000 </r>
       <r>   29.6578    0.0000 </r>
       <r>   30.3486    0.0000 </r>
      </set>
      <set comment="kpoint 15">
       <r>  -44.6449    1.0000 </r>
       <r>  -44.6179    1.0000 </r>
       <r>  -44.4793    1.0000 </r>
       <r>  -44.4227    1.0000 </r>
       <r>  -44.3478    1.0000 </r>
       <r>  -44.3243    1.0000 </r>
       <r>    5.0341    1.0000 </r>
       <r>    5.4404    1.0000 </r>
       <r>    6.4596    1.0000 </r>
       <r>    6.5113    1.0000 </r>
       <r>    7.0559    1.0000 </r>
       <r>    7.1926    1.0000 </r>
       <r>    8.4413    1.0000 </r>
       <r>    8.4618    1.0000 </r>
       <r>    8.8867    1.0000 </r>
       <r>    9.3230    0.9977 </r>
       <r>   10.3872   -0.0608 </r>
       <r>   12.2882    0.0000 </r>
       <r>   18.5772    0.0000 </r>
       <r>   20.9479    0.0000 </r>
       <r>   22.9540    0.0000 </r>
       <r>   25.2980    0.0000 </r>
       <r>   29.8009    0.0000 </r>
       <r>   30.5760    0.0000 </r>
      </set>
      <set comment="kpoint 16">
       <r>  -44.6710    1.0000 </r>
       <r>  -44.6617    1.0000 </r>
       <r>  -44.4573    1.0000 </r>
       <r>  -44.4358    1.0000 </r>
       <r>  -44.3255    1.0000 </r>
       <r>  -44.3181    1.0000 </r>
       <r>    5.0312    1.0000 </r>
       <r>    5.1349    1.0000 </r>
       <r>    6.2617    1.0000 </r>
       <r>    6.3178    1.0000 </r>
       <r>    7.8498    1.0000 </r>
       <r>    8.1504    1.0000 </r>
       <r>    8.5871    1.0000 </r>
       <r>    8.6398    1.0000 </r>
       <r>    8.7524    1.0000 </r>
       <r>    9.2031    1.0115 </r>
       <r>   11.3126   -0.0002 </r>
       <r>   12.3535    0.0000 </r>
       <r>   17.0014    0.0000 </r>
       <r>   18.2075    0.0000 </r>
       <r>   24.4136    0.0000 </r>
       <r>   25.9915    0.0000 </r>
       <r>   27.5272    0.0000 </r>
       <r>   28.7305    0.0000 </r>
      </set>
      <set comment="kpoint 17">
       <r>  -44.5918    1.0000 </r>
       <r>  -44.5845    1.0000 </r>
       <r>  -44.5845    1.0000 </r>
       <r>  -44.3636    1.0000 </r>
       <r>  -44.3636    1.0000 </r>
       <r>  -44.3575    1.0000 </r>
       <r>    5.1883    1.0000 </r>
       <r>    6.2368    1.0000 </r>
       <r>    6.3467    1.0000 </r>
       <r>    6.3467    1.0000 </r>
       <r>    6.4293    1.0000 </r>
       <r>    6.4293    1.0000 </r>
       <r>    8.6328    1.0000 </r>
       <r>    8.6328    1.0000 </r>
       <r>    8.9431    1.0000 </r>
       <r>    8.9431    1.0000 </r>
       <r>   10.4115   -0.1331 </r>
       <r>   16.4659    0.0000 </r>
       <r>   16.4659    0.0000 </r>
       <r>   18.9707    0.0000 </r>
       <r>   24.3172    0.0000 </r>
       <r>   24.3172    0.0000 </r>
       <r>   26.1032    0.0000 </r>
       <r>   31.6761    0.0000 </r>
      </set>
      <set comment="kpoint 18">
       <r>  -44.6185    1.0000 </r>
       <r>  -44.6181    1.0000 </r>
       <r>  -44.5120    1.0000 </r>
       <r>  -44.4332    1.0000 </r>
       <r>  -44.3509    1.0000 </r>
       <r>  -44.3465    1.0000 </r>
       <r>    5.6612    1.0000 </r>
       <r>    5.8300    1.0000 </r>
       <r>    6.3183    1.0000 </r>
       <r>    6.3255    1.0000 </r>
       <r>    6.7275    1.0000 </r>
       <r>    6.8898    1.0000 </r>
       <r>    8.5991    1.0000 </r>
       <r>    8.6497    1.0000 </r>
       <r>    8.7999    1.0000 </r>
       <r>    8.9692    1.0000 </r>
       <r>   11.6955   -0.0040 </r>
       <r>   13.7421    0.0000 </r>
       <r>   18.7307    0.0000 </r>
       <r>   19.9692    0.0000 </r>
       <r>   21.3580    0.0000 </r>
       <r>   22.1417    0.0000 </r>
       <r>   26.5322    0.0000 </r>
       <r>   28.7340    0.0000 </r>
      </set>
      <set comment="kpoint 19">
       <r>  -44.6209    1.0000 </r>
       <r>  -44.6149    1.0000 </r>
       <r>  -44.4950    1.0000 </r>
       <r>  -44.4518    1.0000 </r>
       <r>  -44.3706    1.0000 </r>
       <r>  -44.3597    1.0000 </r>
       <r>    5.7292    1.0000 </r>
       <r>    5.7468    1.0000 </r>
       <r>    6.2028    1.0000 </r>
       <r>    6.2732    1.0000 </r>
       <r>    7.1214    1.0000 </r>
       <r>    7.1792    1.0000 </r>
       <r>    8.7142    1.0000 </r>
       <r>    8.7182    1.0000 </r>
       <r>    8.7675    1.0000 </r>
       <r>    8.8504    1.0000 </r>
       <r>   13.1506   -0.0000 </r>
       <r>   14.5230    0.0000 </r>
       <r>   17.2495    0.0000 </r>
       <r>   18.8003    0.0000 </r>
       <r>   20.9954    0.0000 </r>
       <r>   22.8979    0.0000 </r>
       <r>   23.8523    0.0000 </r>
       <r>   25.7458    0.0000 </r>
      </set>
      <set comment="kpoint 20">
       <r>  -44.5737    1.0000 </r>
       <r>  -44.5349    1.0000 </r>
       <r>  -44.5349    1.0000 </r>
       <r>  -44.4477    1.0000 </r>
       <r>  -44.4477    1.0000 </r>
       <r>  -44.4087    1.0000 </r>
       <r>    6.0418    1.0000 </r>
       <r>    6.2656    1.0000 </r>
       <r>    6.2656    1.0000 </r>
       <r>    6.5782    1.0000 </r>
       <r>    6.5782    1.0000 </r>
       <r>    6.6151    1.0000 </r>
       <r>    8.7786    1.0000 </r>
       <r>    8.7786    1.0000 </r>
       <r>    8.7891    1.0000 </r>
       <r>    8.7891    1.0000 </r>
       <r>   15.0839    0.0000 </r>
       <r>   17.0457    0.0000 </r>
       <r>   17.0457    0.0000 </r>
       <r>   19.1012    0.0000 </r>
       <r>   19.8574    0.0000 </r>
       <r>   19.8574    0.0000 </r>
       <r>   21.2149    0.0000 </r>
       <r>   22.7580    0.0000 </r>
      </set>
     </set>
     <set comment="spin 2">
      <set comment="kpoint 1">
       <r>  -42.0512    1.0000 </r>
       <r>  -42.0512    1.0000 </r>
       <r>  -42.0512    1.0000 </r>
       <r>  -41.7370    1.0000 </r>
       <r>  -41.7370    1.0000 </r>
       <r>  -41.7370    1.0000 </r>
       <r>    1.3909    1.0000 </r>
       <r>    6.6035    1.0000 </r>
       <r>    6.6035    1.0000 </r>
       <r>    9.2658    1.0000 </r>
       <r>    9.2658    1.0000 </r>
       <r>    9.2658    0.9809 </r>
       <r>   11.2096    0.0000 </r>
       <r>   11.2096    0.0000 </r>
       <r>   11.9368    0.0000 </r>
       <r>   11.9368    0.0000 </r>
       <r>   11.9368    0.0000 </r>
       <r>   19.7252    0.0000 </r>
       <r>   19.7252    0.0000 </r>
       <r>   19.7252    0.0000 </r>
       <r>   26.2610    0.0000 </r>
       <r>   26.2610    0.0000 </r>
       <r>   31.2692    0.0000 </r>
       <r>   33.7264    0.0000 </r>
      </set>
      <set comment="kpoint 2">
       <r>  -42.0490    1.0000 </r>
       <r>  -42.0347    1.0000 </r>
       <r>  -42.0347    1.0000 </r>
       <r>  -41.7664    1.0000 </r>
       <r>  -41.7517    1.0000 </r>
       <r>  -41.7517    1.0000 </r>
       <r>    1.8111    1.0000 </r>
       <r>    6.7374    1.0000 </r>
       <r>    6.8125    1.0000 </r>
       <r>    9.2501    1.0000 </r>
       <r>    9.2501    1.0000 </r>
       <r>    9.3904    0.6137 </r>
       <r>   10.9693    0.0000 </r>
       <r>   11.2989    0.0000 </r>
       <r>   11.5070    0.0000 </r>
       <r>   11.5070    0.0000 </r>
       <r>   11.7968    0.0000 </r>
       <r>   17.7086    0.0000 </r>
       <r>   20.6072    0.0000 </r>
       <r>   20.6072    0.0000 </r>
       <r>   26.3406    0.0000 </r>
       <r>   27.4583    0.0000 </r>
       <r>   32.0819    0.0000 </r>
       <r>   32.7352    0.0000 </r>
      </set>
      <set comment="kpoint 3">
       <r>  -42.0356    1.0000 </r>
       <r>  -41.9891    1.0000 </r>
       <r>  -41.9891    1.0000 </r>
       <r>  -41.8406    1.0000 </r>
       <r>  -41.7932    1.0000 </r>
       <r>  -41.7932    1.0000 </r>
       <r>    3.0023    1.0000 </r>
       <r>    6.8802    1.0000 </r>
       <r>    7.4101    1.0000 </r>
       <r>    9.2651    1.0000 </r>
       <r>    9.2651    1.0000 </r>
       <r>    9.7437    0.1023 </r>
       <r>   10.2967    0.0000 </r>
       <r>   10.6548    0.0000 </r>
       <r>   10.6548    0.0000 </r>
       <r>   11.4088    0.0000 </r>
       <r>   11.5217    0.0000 </r>
       <r>   14.6546    0.0000 </r>
       <r>   22.7935    0.0000 </r>
       <r>   22.7935    0.0000 </r>
       <r>   26.6126    0.0000 </r>
       <r>   28.2670    0.0000 </r>
       <r>   29.8265    0.0000 </r>
       <r>   31.9498    0.0000 </r>
      </set>
      <set comment="kpoint 4">
       <r>  -41.9971    1.0000 </r>
       <r>  -41.9277    1.0000 </r>
       <r>  -41.9244    1.0000 </r>
       <r>  -41.9244    1.0000 </r>
       <r>  -41.8545    1.0000 </r>
       <r>  -41.8545    1.0000 </r>
       <r>    4.7086    1.0000 </r>
       <r>    6.2887    1.0000 </r>
       <r>    8.3047    1.0000 </r>
       <r>    9.3376    1.0000 </r>
       <r>    9.4459    1.0000 </r>
       <r>    9.4459    0.8754 </r>
       <r>    9.9054    0.0000 </r>
       <r>    9.9054    0.0000 </r>
       <r>   10.2652    0.0000 </r>
       <r>   10.8594    0.0000 </r>
       <r>   11.8408    0.0000 </r>
       <r>   12.6144    0.0000 </r>
       <r>   25.6803    0.0000 </r>
       <r>   25.6803    0.0000 </r>
       <r>   27.1767    0.0000 </r>
       <r>   28.1912    0.0000 </r>
       <r>   28.8963    0.0000 </r>
       <r>   28.8963    0.0000 </r>
      </set>
      <set comment="kpoint 5">
       <r>  -42.0749    1.0000 </r>
       <r>  -42.0198    1.0000 </r>
       <r>  -41.9930    1.0000 </r>
       <r>  -41.8215    1.0000 </r>
       <r>  -41.7647    1.0000 </r>
       <r>  -41.7370    1.0000 </r>
       <r>    2.2178    1.0000 </r>
       <r>    6.9332    1.0000 </r>
       <r>    6.9415    1.0000 </r>
       <r>    9.0076    1.0000 </r>
       <r>    9.1849    1.0000 </r>
       <r>    9.7389    0.0828 </r>
       <r>   10.8807    0.0000 </r>
       <r>   10.9810    0.0000 </r>
       <r>   11.1041    0.0000 </r>
       <r>   11.2322    0.0000 </r>
       <r>   11.9924    0.0000 </r>
       <r>   17.9257    0.0000 </r>
       <r>   18.9905    0.0000 </r>
       <r>   21.3527    0.0000 </r>
       <r>   26.9014    0.0000 </r>
       <r>   28.8082    0.0000 </r>
       <r>   30.4555    0.0000 </r>
       <r>   32.7223    0.0000 </r>
      </set>
      <set comment="kpoint 6">
       <r>  -42.0842    1.0000 </r>
       <r>  -41.9783    1.0000 </r>
       <r>  -41.9327    1.0000 </r>
       <r>  -41.9098    1.0000 </r>
       <r>  -41.8018    1.0000 </r>
       <r>  -41.7551    1.0000 </r>
       <r>    3.3612    1.0000 </r>
       <r>    7.0436    1.0000 </r>
       <r>    7.4817    1.0000 </r>
       <r>    8.8553    1.0000 </r>
       <r>    9.0647    1.0000 </r>
       <r>   10.0168    0.0732 </r>
       <r>   10.2437    0.0000 </r>
       <r>   10.4387    0.0000 </r>
       <r>   10.5857    0.0000 </r>
       <r>   11.4359    0.0000 </r>
       <r>   11.8406    0.0000 </r>
       <r>   15.0839    0.0000 </r>
       <r>   20.3908    0.0000 </r>
       <r>   23.3215    0.0000 </r>
       <r>   27.2301    0.0000 </r>
       <r>   27.6322    0.0000 </r>
       <r>   30.4812    0.0000 </r>
       <r>   31.0079    0.0000 </r>
      </set>
      <set comment="kpoint 7">
       <r>  -42.0602    1.0000 </r>
       <r>  -41.9982    1.0000 </r>
       <r>  -41.9198    1.0000 </r>
       <r>  -41.8656    1.0000 </r>
       <r>  -41.8568    1.0000 </r>
       <r>  -41.8021    1.0000 </r>
       <r>    4.9665    1.0000 </r>
       <r>    6.4324    1.0000 </r>
       <r>    8.2157    1.0000 </r>
       <r>    8.8363    1.0000 </r>
       <r>    8.9358    1.0000 </r>
       <r>    9.3234    0.9459 </r>
       <r>   10.1417    0.0000 </r>
       <r>   10.1626    0.0000 </r>
       <r>   10.8211    0.0000 </r>
       <r>   11.3951    0.0000 </r>
       <r>   11.7964    0.0000 </r>
       <r>   12.7789    0.0000 </r>
       <r>   22.5586    0.0000 </r>
       <r>   24.9774    0.0000 </r>
       <r>   26.0643    0.0000 </r>
       <r>   27.8378    0.0000 </r>
       <r>   29.0763    0.0000 </r>
       <r>   29.2390    0.0000 </r>
      </set>
      <set comment="kpoint 8">
       <r>  -42.1280    1.0000 </r>
       <r>  -42.0083    1.0000 </r>
       <r>  -41.9488    1.0000 </r>
       <r>  -41.8608    1.0000 </r>
       <r>  -41.8265    1.0000 </r>
       <r>  -41.7371    1.0000 </r>
       <r>    4.3211    1.0000 </r>
       <r>    6.9930    1.0000 </r>
       <r>    7.9593    1.0000 </r>
       <r>    8.4612    1.0000 </r>
       <r>    8.8910    1.0001 </r>
       <r>    9.1831    0.9514 </r>
       <r>   10.3008    0.0000 </r>
       <r>   10.9113    0.0000 </r>
       <r>   10.9257    0.0000 </r>
       <r>   11.3229    0.0000 </r>
       <r>   12.1187    0.0000 </r>
       <r>   14.9707    0.0000 </r>
       <r>   18.4086    0.0000 </r>
       <r>   24.4124    0.0000 </r>
       <r>   24.8454    0.0000 </r>
       <r>   27.3758    0.0000 </r>
       <r>   29.8970    0.0000 </r>
       <r>   33.4346    0.0000 </r>
      </set>
      <set comment="kpoint 9">
       <r>  -42.1335    1.0000 </r>
       <r>  -42.0910    1.0000 </r>
       <r>  -41.9075    1.0000 </r>
       <r>  -41.8639    1.0000 </r>
       <r>  -41.7980    1.0000 </r>
       <r>  -41.7537    1.0000 </r>
       <r>    5.5035    1.0000 </r>
       <r>    6.4427    1.0000 </r>
       <r>    8.3484    1.0000 </r>
       <r>    8.5904    1.0000 </r>
       <r>    8.6180    1.0050 </r>
       <r>    8.9151    1.0194 </r>
       <r>   10.5682    0.0000 </r>
       <r>   10.8136    0.0000 </r>
       <r>   11.5443    0.0000 </r>
       <r>   11.6405    0.0000 </r>
       <r>   11.9865    0.0000 </r>
       <r>   12.9388    0.0000 </r>
       <r>   19.4884    0.0000 </r>
       <r>   21.6381    0.0000 </r>
       <r>   27.1904    0.0000 </r>
       <r>   27.7107    0.0000 </r>
       <r>   28.5748    0.0000 </r>
       <r>   30.1408    0.0000 </r>
      </set>
      <set comment="kpoint 10">
       <r>  -42.1705    1.0000 </r>
       <r>  -42.1554    1.0000 </r>
       <r>  -41.8914    1.0000 </r>
       <r>  -41.8759    1.0000 </r>
       <r>  -41.7530    1.0000 </r>
       <r>  -41.7372    1.0000 </r>
       <r>    5.8884    1.0000 </r>
       <r>    6.1670    1.0000 </r>
       <r>    8.0523    1.0000 </r>
       <r>    8.1336    1.0000 </r>
       <r>    9.5915    0.8778 </r>
       <r>    9.7522    0.6199 </r>
       <r>   10.9379    0.0000 </r>
       <r>   11.0789    0.0000 </r>
       <r>   11.4396    0.0000 </r>
       <r>   12.0533    0.0000 </r>
       <r>   12.2213    0.0000 </r>
       <r>   12.2448    0.0000 </r>
       <r>   18.2820    0.0000 </r>
       <r>   19.2341    0.0000 </r>
       <r>   27.6433    0.0000 </r>
       <r>   27.9531    0.0000 </r>
       <r>   28.9299    0.0000 </r>
       <r>   30.5860    0.0000 </r>
      </set>
      <set comment="kpoint 11">
       <r>  -42.0573    1.0000 </r>
       <r>  -42.0573    1.0000 </r>
       <r>  -41.9464    1.0000 </r>
       <r>  -41.8667    1.0000 </r>
       <r>  -41.7528    1.0000 </r>
       <r>  -41.7528    1.0000 </r>
       <r>    2.6143    1.0000 </r>
       <r>    7.0985    1.0000 </r>
       <r>    7.0985    1.0000 </r>
       <r>    8.9324    1.0000 </r>
       <r>    8.9324    1.0000 </r>
       <r>   10.0725   -0.0066 </r>
       <r>   10.0948    0.0000 </r>
       <r>   11.1022    0.0000 </r>
       <r>   11.1022    0.0000 </r>
       <r>   11.5859    0.0000 </r>
       <r>   11.5859    0.0000 </r>
       <r>   18.6816    0.0000 </r>
       <r>   18.6816    0.0000 </r>
       <r>   19.8958    0.0000 </r>
       <r>   29.0277    0.0000 </r>
       <r>   29.0277    0.0000 </r>
       <r>   30.2638    0.0000 </r>
       <r>   30.2638    0.0000 </r>
      </set>
      <set comment="kpoint 12">
       <r>  -42.0844    1.0000 </r>
       <r>  -42.0083    1.0000 </r>
       <r>  -41.9492    1.0000 </r>
       <r>  -41.8869    1.0000 </r>
       <r>  -41.7976    1.0000 </r>
       <r>  -41.7567    1.0000 </r>
       <r>    3.7203    1.0000 </r>
       <r>    7.2639    1.0000 </r>
       <r>    7.5235    1.0000 </r>
       <r>    8.7197    1.0000 </r>
       <r>    8.7501    1.0000 </r>
       <r>    9.2994    0.8430 </r>
       <r>   10.6856    0.0000 </r>
       <r>   10.7570    0.0000 </r>
       <r>   10.8541    0.0000 </r>
       <r>   11.3776    0.0000 </r>
       <r>   11.6721    0.0000 </r>
       <r>   15.6155    0.0000 </r>
       <r>   20.4342    0.0000 </r>
       <r>   21.0673    0.0000 </r>
       <r>   27.3841    0.0000 </r>
       <r>   28.4607    0.0000 </r>
       <r>   29.7400    0.0000 </r>
       <r>   31.0789    0.0000 </r>
      </set>
      <set comment="kpoint 13">
       <r>  -42.0768    1.0000 </r>
       <r>  -42.0281    1.0000 </r>
       <r>  -41.9389    1.0000 </r>
       <r>  -41.8637    1.0000 </r>
       <r>  -41.8308    1.0000 </r>
       <r>  -41.7849    1.0000 </r>
       <r>    5.2444    1.0000 </r>
       <r>    6.6288    1.0000 </r>
       <r>    8.0641    1.0000 </r>
       <r>    8.4911    1.0000 </r>
       <r>    8.7962    1.0000 </r>
       <r>    9.0271    1.0192 </r>
       <r>   10.3756    0.0000 </r>
       <r>   10.3930    0.0000 </r>
       <r>   11.2261    0.0000 </r>
       <r>   11.4655    0.0000 </r>
       <r>   11.8528    0.0000 </r>
       <r>   13.1645    0.0000 </r>
       <r>   22.5653    0.0000 </r>
       <r>   23.0515    0.0000 </r>
       <r>   24.8557    0.0000 </r>
       <r>   25.5758    0.0000 </r>
       <r>   31.0570    0.0000 </r>
       <r>   32.2199    0.0000 </r>
      </set>
      <set comment="kpoint 14">
       <r>  -42.1077    1.0000 </r>
       <r>  -42.0242    1.0000 </r>
       <r>  -41.9905    1.0000 </r>
       <r>  -41.8318    1.0000 </r>
       <r>  -41.8211    1.0000 </r>
       <r>  -41.7555    1.0000 </r>
       <r>    4.6758    1.0000 </r>
       <r>    7.2668    1.0000 </r>
       <r>    7.9548    1.0000 </r>
       <r>    8.3594    1.0000 </r>
       <r>    8.5534    1.0001 </r>
       <r>    8.6347    1.0514 </r>
       <r>   10.7500    0.0000 </r>
       <r>   11.0022    0.0000 </r>
       <r>   11.3072    0.0000 </r>
       <r>   11.4276    0.0000 </r>
       <r>   11.7242    0.0000 </r>
       <r>   15.7865    0.0000 </r>
       <r>   18.4528    0.0000 </r>
       <r>   21.8940    0.0000 </r>
       <r>   24.5906    0.0000 </r>
       <r>   27.8514    0.0000 </r>
       <r>   30.3411    0.0000 </r>
       <r>   30.7007    0.0000 </r>
      </set>
      <set comment="kpoint 15">
       <r>  -42.1189    1.0000 </r>
       <r>  -42.0894    1.0000 </r>
       <r>  -41.9344    1.0000 </r>
       <r>  -41.8720    1.0000 </r>
       <r>  -41.7899    1.0000 </r>
       <r>  -41.7643    1.0000 </r>
       <r>    5.8271    1.0000 </r>
       <r>    6.7196    1.0000 </r>
       <r>    8.1994    1.0000 </r>
       <r>    8.2000    1.0000 </r>
       <r>    8.6016    1.0025 </r>
       <r>    8.6191    1.0158 </r>
       <r>   10.7486    0.0000 </r>
       <r>   10.8840    0.0000 </r>
       <r>   11.4700    0.0000 </r>
       <r>   11.6347    0.0000 </r>
       <r>   12.3047    0.0000 </r>
       <r>   13.7723    0.0000 </r>
       <r>   19.6112    0.0000 </r>
       <r>   21.8057    0.0000 </r>
       <r>   23.5892    0.0000 </r>
       <r>   25.8041    0.0000 </r>
       <r>   30.2669    0.0000 </r>
       <r>   30.8967    0.0000 </r>
      </set>
      <set comment="kpoint 16">
       <r>  -42.1481    1.0000 </r>
       <r>  -42.1379    1.0000 </r>
       <r>  -41.9099    1.0000 </r>
       <r>  -41.8862    1.0000 </r>
       <r>  -41.7656    1.0000 </r>
       <r>  -41.7576    1.0000 </r>
       <r>    6.2068    1.0000 </r>
       <r>    6.4561    1.0000 </r>
       <r>    7.9743    1.0000 </r>
       <r>    8.0272    1.0000 </r>
       <r>    9.1511    1.0190 </r>
       <r>    9.1773    1.0051 </r>
       <r>   11.0426    0.0000 </r>
       <r>   11.1349    0.0000 </r>
       <r>   11.4480    0.0000 </r>
       <r>   11.6042    0.0000 </r>
       <r>   12.9504    0.0000 </r>
       <r>   13.6616    0.0000 </r>
       <r>   18.2928    0.0000 </r>
       <r>   19.3243    0.0000 </r>
       <r>   24.9077    0.0000 </r>
       <r>   26.2991    0.0000 </r>
       <r>   28.1264    0.0000 </r>
       <r>   29.1356    0.0000 </r>
      </set>
      <set comment="kpoint 17">
       <r>  -42.0602    1.0000 </r>
       <r>  -42.0514    1.0000 </r>
       <r>  -42.0514    1.0000 </r>
       <r>  -41.8076    1.0000 </r>
       <r>  -41.8076    1.0000 </r>
       <r>  -41.8003    1.0000 </r>
       <r>    5.5975    1.0000 </r>
       <r>    7.8276    1.0000 </r>
       <r>    7.9254    1.0000 </r>
       <r>    7.9254    1.0000 </r>
       <r>    8.1368    1.0000 </r>
       <r>    8.1368    1.0076 </r>
       <r>   11.2404    0.0000 </r>
       <r>   11.2404    0.0000 </r>
       <r>   11.2446    0.0000 </r>
       <r>   11.2446    0.0000 </r>
       <r>   12.3388    0.0000 </r>
       <r>   17.5217    0.0000 </r>
       <r>   17.5217    0.0000 </r>
       <r>   19.8611    0.0000 </r>
       <r>   24.8842    0.0000 </r>
       <r>   24.8842    0.0000 </r>
       <r>   26.8160    0.0000 </r>
       <r>   32.1581    0.0000 </r>
      </set>
      <set comment="kpoint 18">
       <r>  -42.0898    1.0000 </r>
       <r>  -42.0891    1.0000 </r>
       <r>  -41.9713    1.0000 </r>
       <r>  -41.8843    1.0000 </r>
       <r>  -41.7936    1.0000 </r>
       <r>  -41.7884    1.0000 </r>
       <r>    6.5797    1.0000 </r>
       <r>    7.2083    1.0000 </r>
       <r>    7.8931    1.0000 </r>
       <r>    7.9513    1.0000 </r>
       <r>    8.1615    1.0000 </r>
       <r>    8.3392    1.0000 </r>
       <r>   11.0786    0.0000 </r>
       <r>   11.1384    0.0000 </r>
       <r>   11.4478    0.0000 </r>
       <r>   11.4482    0.0000 </r>
       <r>   13.4034    0.0000 </r>
       <r>   15.0802    0.0000 </r>
       <r>   19.6671    0.0000 </r>
       <r>   20.7718    0.0000 </r>
       <r>   22.1240    0.0000 </r>
       <r>   22.8280    0.0000 </r>
       <r>   27.0831    0.0000 </r>
       <r>   29.2223    0.0000 </r>
      </set>
      <set comment="kpoint 19">
       <r>  -42.0925    1.0000 </r>
       <r>  -42.0859    1.0000 </r>
       <r>  -41.9526    1.0000 </r>
       <r>  -41.9047    1.0000 </r>
       <r>  -41.8156    1.0000 </r>
       <r>  -41.8034    1.0000 </r>
       <r>    7.0052    1.0000 </r>
       <r>    7.1288    1.0000 </r>
       <r>    7.8199    1.0000 </r>
       <r>    7.8524    1.0000 </r>
       <r>    8.3199    1.0000 </r>
       <r>    8.4639    1.0000 </r>
       <r>   11.2710    0.0000 </r>
       <r>   11.3071    0.0000 </r>
       <r>   11.4636    0.0000 </r>
       <r>   11.4674    0.0000 </r>
       <r>   14.5600    0.0000 </r>
       <r>   15.6526    0.0000 </r>
       <r>   18.3818    0.0000 </r>
       <r>   19.7485    0.0000 </r>
       <r>   21.7002    0.0000 </r>
       <r>   23.4818    0.0000 </r>
       <r>   24.4877    0.0000 </r>
       <r>   26.2864    0.0000 </r>
      </set>
      <set comment="kpoint 20">
       <r>  -42.0402    1.0000 </r>
       <r>  -41.9973    1.0000 </r>
       <r>  -41.9973    1.0000 </r>
       <r>  -41.9008    1.0000 </r>
       <r>  -41.9008    1.0000 </r>
       <r>  -41.8576    1.0000 </r>
       <r>    7.5338    1.0000 </r>
       <r>    7.7629    1.0000 </r>
       <r>    7.7629    1.0000 </r>
       <r>    7.8023    1.0000 </r>
       <r>    7.9568    1.0000 </r>
       <r>    7.9568    1.0000 </r>
       <r>   11.4603    0.0000 </r>
       <r>   11.4603    0.0000 </r>
       <r>   11.4690    0.0000 </r>
       <r>   11.4690    0.0000 </r>
       <r>   16.2668    0.0000 </r>
       <r>   18.0120    0.0000 </r>
       <r>   18.0120    0.0000 </r>
       <r>   19.9663    0.0000 </r>
       <r>   20.6498    0.0000 </r>
       <r>   20.6498    0.0000 </r>
       <r>   21.9020    0.0000 </r>
       <r>   23.3867    0.0000 </r>
      </set>
     </set>
    </set>
   </array>
  </eigenvalues>
  <separator name="orbital magnetization" >
   <v name="MAGDIPOLOUT">      0.00000000      0.00000000      0.00000000</v>
  </separator>
  <dos>
   <i name="efermi">      9.54166587 </i>
   <total>
    <array>
     <dimension dim="1">gridpoints</dimension>
     <dimension dim="2">spin</dimension>
     <field>energy</field>
     <field>total</field>
     <field>integrated</field>
     <set>
      <set comment="spin 1">
       <r>   -48.6232     0.0000     0.0000 </r>
       <r>   -48.3348     0.0000     0.0000 </r>
       <r>   -48.0465     0.0000     0.0000 </r>
       <r>   -47.7582     0.0000     0.0000 </r>
       <r>   -47.4698     0.0000     0.0000 </r>
       <r>   -47.1815     0.0000     0.0000 </r>
       <r>   -46.8931     0.0000     0.0000 </r>
       <r>   -46.6048     0.0000     0.0000 </r>
       <r>   -46.3164     0.0000     0.0000 </r>
       <r>   -46.0281     0.0000     0.0000 </r>
       <r>   -45.7398     0.0000     0.0000 </r>
       <r>   -45.4514     0.0000     0.0000 </r>
       <r>   -45.1631     0.0000     0.0000 </r>
       <r>   -44.8747     0.0000     0.0000 </r>
       <r>   -44.5864    11.2297     1.4058 </r>
       <r>   -44.2980     0.0000     6.0000 </r>
       <r>   -44.0097     0.0000     6.0000 </r>
       <r>   -43.7214     0.0000     6.0000 </r>
       <r>   -43.4330     0.0000     6.0000 </r>
       <r>   -43.1447     0.0000     6.0000 </r>
       <r>   -42.8563     0.0000     6.0000 </r>
       <r>   -42.5680     0.0000     6.0000 </r>
       <r>   -42.2796     0.0000     6.0000 </r>
       <r>   -41.9913     0.0000     6.0000 </r>
       <r>   -41.7030     0.0000     6.0000 </r>
       <r>   -41.4146     0.0000     6.0000 </r>
       <r>   -41.1263     0.0000     6.0000 </r>
       <r>   -40.8379     0.0000     6.0000 </r>
       <r>   -40.5496     0.0000     6.0000 </r>
       <r>   -40.2612     0.0000     6.0000 </r>
       <r>   -39.9729     0.0000     6.0000 </r>
       <r>   -39.6846     0.0000     6.0000 </r>
       <r>   -39.3962     0.0000     6.0000 </r>
       <r>   -39.1079     0.0000     6.0000 </r>
       <r>   -38.8195     0.0000     6.0000 </r>
       <r>   -38.5312     0.0000     6.0000 </r>
       <r>   -38.2428     0.0000     6.0000 </r>
       <r>   -37.9545     0.0000     6.0000 </r>
       <r>   -37.6662     0.0000     6.0000 </r>
       <r>   -37.3778     0.0000     6.0000 </r>
       <r>   -37.0895     0.0000     6.0000 </r>
       <r>   -36.8011     0.0000     6.0000 </r>
       <r>   -36.5128     0.0000     6.0000 </r>
       <r>   -36.2244     0.0000     6.0000 </r>
       <r>   -35.9361     0.0000     6.0000 </r>
       <r>   -35.6477     0.0000     6.0000 </r>
       <r>   -35.3594     0.0000     6.0000 </r>
       <r>   -35.0711     0.0000     6.0000 </r>
       <r>   -34.7827     0.0000     6.0000 </r>
       <r>   -34.4944     0.0000     6.0000 </r>
       <r>   -34.2060     0.0000     6.0000 </r>
       <r>   -33.9177     0.0000     6.0000 </r>
       <r>   -33.6293     0.0000     6.0000 </r>
       <r>   -33.3410     0.0000     6.0000 </r>
       <r>   -33.0527     0.0000     6.0000 </r>
       <r>   -32.7643     0.0000     6.0000 </r>
       <r>   -32.4760     0.0000     6.0000 </r>
       <r>   -32.1876     0.0000     6.0000 </r>
       <r>   -31.8993     0.0000     6.0000 </r>
       <r>   -31.6109     0.0000     6.0000 </r>
       <r>   -31.3226     0.0000     6.0000 </r>
       <r>   -31.0343     0.0000     6.0000 </r>
       <r>   -30.7459     0.0000     6.0000 </r>
       <r>   -30.4576     0.0000     6.0000 </r>
       <r>   -30.1692     0.0000     6.0000 </r>
       <r>   -29.8809     0.0000     6.0000 </r>
       <r>   -29.5925     0.0000     6.0000 </r>
       <r>   -29.3042     0.0000     6.0000 </r>
       <r>   -29.0159     0.0000     6.0000 </r>
       <r>   -28.7275     0.0000     6.0000 </r>
       <r>   -28.4392     0.0000     6.0000 </r>
       <r>   -28.1508     0.0000     6.0000 </r>
       <r>   -27.8625     0.0000     6.0000 </r>
       <r>   -27.5741     0.0000     6.0000 </r>
       <r>   -27.2858     0.0000     6.0000 </r>
       <r>   -26.9975     0.0000     6.0000 </r>
       <r>   -26.7091     0.0000     6.0000 </r>
       <r>   -26.4208     0.0000     6.0000 </r>
       <r>   -26.1324     0.0000     6.0000 </r>
       <r>   -25.8441     0.0000     6.0000 </r>
       <r>   -25.5557     0.0000     6.0000 </r>
       <r>   -25.2674     0.0000     6.0000 </r>
       <r>   -24.9791     0.0000     6.0000 </r>
       <r>   -24.6907     0.0000     6.0000 </r>
       <r>   -24.4024     0.0000     6.0000 </r>
       <r>   -24.1140     0.0000     6.0000 </r>
       <r>   -23.8257     0.0000     6.0000 </r>
       <r>   -23.5373     0.0000     6.0000 </r>
       <r>   -23.2490     0.0000     6.0000 </r>
       <r>   -22.9606     0.0000     6.0000 </r>
       <r>   -22.6723     0.0000     6.0000 </r>
       <r>   -22.3840     0.0000     6.0000 </r>
       <r>   -22.0956     0.0000     6.0000 </r>
       <r>   -21.8073     0.0000     6.0000 </r>
       <r>   -21.5189     0.0000     6.0000 </r>
       <r>   -21.2306     0.0000     6.0000 </r>
       <r>   -20.9422     0.0000     6.0000 </r>
       <r>   -20.6539     0.0000     6.0000 </r>
       <r>   -20.3656     0.0000     6.0000 </r>
       <r>   -20.0772     0.0000     6.0000 </r>
       <r>   -19.7889     0.0000     6.0000 </r>
       <r>   -19.5005     0.0000     6.0000 </r>
       <r>   -19.2122     0.0000     6.0000 </r>
       <r>   -18.9238     0.0000     6.0000 </r>
       <r>   -18.6355     0.0000     6.0000 </r>
       <r>   -18.3472     0.0000     6.0000 </r>
       <r>   -18.0588     0.0000     6.0000 </r>
       <r>   -17.7705     0.0000     6.0000 </r>
       <r>   -17.4821     0.0000     6.0000 </r>
       <r>   -17.1938     0.0000     6.0000 </r>
[...]
       </set>
       <set comment="band 12">
        <r>  0.0000  0.0017  0.0038  0.0080  0.1109  0.2360  0.0140  0.0509  0.0194 </r>
        <r>  0.0000  0.0017  0.0038  0.0080  0.1109  0.2360  0.0140  0.0509  0.0194 </r>
       </set>
       <set comment="band 13">
        <r>  0.0000  0.0005  0.0021  0.0040  0.0884  0.1679  0.0958  0.0207  0.1043 </r>
        <r>  0.0000  0.0005  0.0021  0.0040  0.0884  0.1679  0.0958  0.0207  0.1043 </r>
       </set>
       <set comment="band 14">
        <r>  0.0000  0.0039  0.0023  0.0004  0.0963  0.0167  0.1043  0.1640  0.0958 </r>
        <r>  0.0000  0.0039  0.0023  0.0004  0.0963  0.0167  0.1043  0.1640  0.0958 </r>
       </set>
       <set comment="band 15">
        <r>  0.0000  0.0000  0.0000  0.0000  0.0006  0.0243  0.0089  0.0184  0.4332 </r>
        <r>  0.0000  0.0000  0.0000  0.0000  0.0006  0.0243  0.0089  0.0184  0.4332 </r>
       </set>
       <set comment="band 16">
        <r>  0.0000  0.0000  0.0000  0.0000  0.0282  0.0045  0.4332  0.0105  0.0089 </r>
        <r>  0.0000  0.0000  0.0000  0.0000  0.0282  0.0045  0.4332  0.0105  0.0089 </r>
       </set>
       <set comment="band 17">
        <r>  0.0114  0.0105  0.0105  0.0105  0.1425  0.1425  0.0000  0.1425  0.0000 </r>
        <r>  0.0114  0.0105  0.0105  0.0105  0.1425  0.1425  0.0000  0.1425  0.0000 </r>
       </set>
       <set comment="band 18">
        <r>  0.0000  0.0859  0.1004  0.0035  0.0641  0.0022  0.0738  0.0549  0.0192 </r>
        <r>  0.0000  0.0859  0.1004  0.0035  0.0641  0.0022  0.0738  0.0549  0.0192 </r>
       </set>
       <set comment="band 19">
        <r>  0.0000  0.0407  0.0261  0.1231  0.0167  0.0786  0.0192  0.0260  0.0738 </r>
        <r>  0.0000  0.0407  0.0261  0.1231  0.0167  0.0786  0.0192  0.0260  0.0738 </r>
       </set>
       <set comment="band 20">
        <r>  0.2516  0.0047  0.0047  0.0047  0.0379  0.0379  0.0000  0.0379  0.0000 </r>
        <r>  0.2516  0.0047  0.0047  0.0047  0.0379  0.0379  0.0000  0.0379  0.0000 </r>
       </set>
       <set comment="band 21">
        <r>  0.0000  0.0198  0.0835  0.0554  0.0710  0.0471  0.0278  0.0169  0.0074 </r>
        <r>  0.0000  0.0198  0.0835  0.0554  0.0710  0.0471  0.0278  0.0169  0.0074 </r>
       </set>
       <set comment="band 22">
        <r>  0.0000  0.0859  0.0223  0.0504  0.0190  0.0429  0.0074  0.0731  0.0278 </r>
        <r>  0.0000  0.0859  0.0223  0.0504  0.0190  0.0429  0.0074  0.0731  0.0278 </r>
       </set>
       <set comment="band 23">
        <r>  0.1773  0.0814  0.0814  0.0814  0.0084  0.0084  0.0000  0.0084  0.0000 </r>
        <r>  0.1773  0.0814  0.0814  0.0814  0.0084  0.0084  0.0000  0.0084  0.0000 </r>
       </set>
       <set comment="band 24">
        <r>  0.0140  0.1046  0.1046  0.1046  0.0251  0.0251  0.0000  0.0251  0.0000 </r>
        <r>  0.0140  0.1046  0.1046  0.1046  0.0251  0.0251  0.0000  0.0251  0.0000 </r>
       </set>
      </set>
      <set comment="kpoint 18">
       <set comment="band 1">
        <r>  0.0000  0.1259  0.1259  0.2442  0.0000  0.0000  0.0000  0.0000  0.0000 </r>
        <r>  0.0000  0.1259  0.1259  0.2442  0.0000  0.0000  0.0000  0.0000  0.0000 </r>
       </set>
       <set comment="band 2">
        <r>  0.0000  0.1011  0.1011  0.2937  0.0000  0.0000  0.0000  0.0000  0.0000 </r>
        <r>  0.0000  0.1011  0.1011  0.2937  0.0000  0.0000  0.0000  0.0000  0.0000 </r>
       </set>
       <set comment="band 3">
        <r>  0.0000  0.2486  0.2486  0.0000  0.0001  0.0000  0.0000  0.0001  0.0000 </r>
        <r>  0.0000  0.2486  0.2486  0.0000  0.0001  0.0000  0.0000  0.0001  0.0000 </r>
       </set>
       <set comment="band 4">
        <r>  0.0000  0.2490  0.2490  0.0000  0.0001  0.0000  0.0000  0.0001  0.0000 </r>
        <r>  0.0000  0.2490  0.2490  0.0000  0.0001  0.0000  0.0000  0.0001  0.0000 </r>
       </set>
       <set comment="band 5">
        <r>  0.0000  0.1229  0.1229  0.2531  0.0000  0.0000  0.0000  0.0000  0.0000 </r>
        <r>  0.0000  0.1229  0.1229  0.2531  0.0000  0.0000  0.0000  0.0000  0.0000 </r>
       </set>
       <set comment="band 6">
        <r>  0.0000  0.1478  0.1478  0.2034  0.0000  0.0000  0.0000  0.0000  0.0000 </r>
        <r>  0.0000  0.1478  0.1478  0.2034  0.0000  0.0000  0.0000  0.0000  0.0000 </r>
       </set>
       <set comment="band 7">
        <r>  0.0917  0.0211  0.0211  0.0309  0.0783  0.0001  0.0044  0.0783  0.0132 </r>
        <r>  0.0917  0.0211  0.0211  0.0309  0.0783  0.0001  0.0044  0.0783  0.0132 </r>
       </set>
       <set comment="band 8">
        <r>  0.0429  0.0076  0.0076  0.0145  0.1329  0.0229  0.0093  0.1329  0.0280 </r>
        <r>  0.0429  0.0076  0.0076  0.0145  0.1329  0.0229  0.0093  0.1329  0.0280 </r>
       </set>
       <set comment="band 9">
        <r>  0.0000  0.0238  0.0238  0.0000  0.1153  0.0000  0.0963  0.1153  0.0321 </r>
        <r>  0.0000  0.0238  0.0238  0.0000  0.1153  0.0000  0.0963  0.1153  0.0321 </r>
       </set>
       <set comment="band 10">
        <r>  0.0000  0.0146  0.0146  0.0000  0.1633  0.0000  0.0528  0.1633  0.0176 </r>
        <r>  0.0000  0.0146  0.0146  0.0000  0.1633  0.0000  0.0528  0.1633  0.0176 </r>
       </set>
       <set comment="band 11">
        <r>  0.0045  0.0014  0.0014  0.0350  0.0377  0.3092  0.0002  0.0377  0.0006 </r>
        <r>  0.0045  0.0014  0.0014  0.0350  0.0377  0.3092  0.0002  0.0377  0.0006 </r>
       </set>
       <set comment="band 12">
        <r>  0.0009  0.0078  0.0078  0.0537  0.0061  0.2642  0.0141  0.0061  0.0424 </r>
        <r>  0.0009  0.0078  0.0078  0.0537  0.0061  0.2642  0.0141  0.0061  0.0424 </r>
       </set>
       <set comment="band 13">
        <r>  0.0000  0.0009  0.0009  0.0000  0.0845  0.0000  0.2343  0.0845  0.0781 </r>
        <r>  0.0000  0.0009  0.0009  0.0000  0.0845  0.0000  0.2343  0.0845  0.0781 </r>
       </set>
       <set comment="band 14">
        <r>  0.0000  0.0001  0.0001  0.0000  0.0461  0.0000  0.2939  0.0461  0.0980 </r>
        <r>  0.0000  0.0001  0.0001  0.0000  0.0461  0.0000  0.2939  0.0461  0.0980 </r>
       </set>
       <set comment="band 15">
        <r>  0.0022  0.0003  0.0003  0.0019  0.0330  0.0826  0.0837  0.0330  0.2512 </r>
        <r>  0.0022  0.0003  0.0003  0.0019  0.0330  0.0826  0.0837  0.0330  0.2512 </r>
       </set>
       <set comment="band 16">
        <r>  0.0013  0.0000  0.0000  0.0002  0.0171  0.0014  0.1132  0.0171  0.3395 </r>
        <r>  0.0013  0.0000  0.0000  0.0002  0.0171  0.0014  0.1132  0.0171  0.3395 </r>
       </set>
       <set comment="band 17">
        <r>  0.0215  0.0135  0.0135  0.0291  0.1011  0.1564  0.0042  0.1011  0.0125 </r>
        <r>  0.0215  0.0135  0.0135  0.0291  0.1011  0.1564  0.0042  0.1011  0.0125 </r>
       </set>
       <set comment="band 18">
        <r>  0.0254  0.0192  0.0192  0.0761  0.0590  0.0991  0.0162  0.0590  0.0487 </r>
        <r>  0.0254  0.0192  0.0192  0.0761  0.0590  0.0991  0.0162  0.0590  0.0487 </r>
       </set>
       <set comment="band 19">
        <r>  0.0000  0.0933  0.0933  0.0000  0.0694  0.0000  0.0494  0.0694  0.0165 </r>
        <r>  0.0000  0.0933  0.0933  0.0000  0.0694  0.0000  0.0494  0.0694  0.0165 </r>
       </set>
       <set comment="band 20">
        <r>  0.2168  0.0118  0.0118  0.0295  0.0312  0.0395  0.0002  0.0312  0.0005 </r>
        <r>  0.2168  0.0118  0.0118  0.0295  0.0312  0.0395  0.0002  0.0312  0.0005 </r>
       </set>
       <set comment="band 21">
        <r>  0.0000  0.0884  0.0884  0.0000  0.0712  0.0000  0.0358  0.0712  0.0119 </r>
        <r>  0.0000  0.0884  0.0884  0.0000  0.0712  0.0000  0.0358  0.0712  0.0119 </r>
       </set>
       <set comment="band 22">
        <r>  0.1435  0.0066  0.0066  0.1071  0.0325  0.0329  0.0007  0.0325  0.0020 </r>
        <r>  0.1435  0.0066  0.0066  0.1071  0.0325  0.0329  0.0007  0.0325  0.0020 </r>
       </set>
       <set comment="band 23">
        <r>  0.0789  0.1103  0.1103  0.0138  0.0066  0.0502  0.0017  0.0066  0.0051 </r>
        <r>  0.0789  0.1103  0.1103  0.0138  0.0066  0.0502  0.0017  0.0066  0.0051 </r>
       </set>
       <set comment="band 24">
        <r>  0.0378  0.1085  0.1085  0.0518  0.0184  0.0366  0.0001  0.0184  0.0004 </r>
        <r>  0.0378  0.1085  0.1085  0.0518  0.0184  0.0366  0.0001  0.0184  0.0004 </r>
       </set>
      </set>
      <set comment="kpoint 19">
       <set comment="band 1">
        <r>  0.0000  0.2266  0.0428  0.2266  0.0000  0.0000  0.0000  0.0000  0.0000 </r>
        <r>  0.0000  0.2266  0.0428  0.2266  0.0000  0.0000  0.0000  0.0000  0.0000 </r>
       </set>
       <set comment="band 2">
        <r>  0.0000  0.2480  0.0000  0.2480  0.0000  0.0001  0.0000  0.0001  0.0000 </r>
        <r>  0.0000  0.2480  0.0000  0.2480  0.0000  0.0001  0.0000  0.0001  0.0000 </r>
       </set>
       <set comment="band 3">
        <r>  0.0000  0.0367  0.4241  0.0367  0.0001  0.0000  0.0000  0.0000  0.0000 </r>
        <r>  0.0000  0.0367  0.4241  0.0367  0.0001  0.0000  0.0000  0.0000  0.0000 </r>
       </set>
       <set comment="band 4">
        <r>  0.0000  0.0215  0.4550  0.0215  0.0001  0.0000  0.0000  0.0000  0.0000 </r>
        <r>  0.0000  0.0215  0.4550  0.0215  0.0001  0.0000  0.0000  0.0000  0.0000 </r>
       </set>
       <set comment="band 5">
        <r>  0.0000  0.2493  0.0000  0.2493  0.0000  0.0000  0.0000  0.0000  0.0000 </r>
        <r>  0.0000  0.2493  0.0000  0.2493  0.0000  0.0000  0.0000  0.0000  0.0000 </r>
       </set>
       <set comment="band 6">
        <r>  0.0000  0.2126  0.0736  0.2126  0.0000  0.0000  0.0000  0.0000  0.0000 </r>
        <r>  0.0000  0.2126  0.0736  0.2126  0.0000  0.0000  0.0000  0.0000  0.0000 </r>
       </set>
       <set comment="band 7">
        <r>  0.0464  0.0068  0.0325  0.0068  0.2443  0.0026  0.0403  0.0026  0.0000 </r>
        <r>  0.0464  0.0068  0.0325  0.0068  0.2443  0.0026  0.0403  0.0026  0.0000 </r>
       </set>
       <set comment="band 8">
        <r>  0.0314  0.0001  0.0256  0.0001  0.2633  0.0186  0.0473  0.0186  0.0000 </r>
        <r>  0.0314  0.0001  0.0256  0.0001  0.2633  0.0186  0.0473  0.0186  0.0000 </r>
       </set>
       <set comment="band 9">
        <r>  0.0000  0.0091  0.0000  0.0091  0.0000  0.2086  0.0000  0.2086  0.0045 </r>
        <r>  0.0000  0.0091  0.0000  0.0091  0.0000  0.2086  0.0000  0.2086  0.0045 </r>
       </set>
       <set comment="band 10">
        <r>  0.0000  0.0098  0.0083  0.0098  0.0111  0.1851  0.0220  0.1851  0.0000 </r>
        <r>  0.0000  0.0098  0.0083  0.0098  0.0111  0.1851  0.0220  0.1851  0.0000 </r>
       </set>
       <set comment="band 11">
        <r>  0.0075  0.0474  0.0003  0.0474  0.0378  0.1158  0.0114  0.1158  0.0000 </r>
        <r>  0.0075  0.0474  0.0003  0.0474  0.0378  0.1158  0.0114  0.1158  0.0000 </r>
       </set>
       <set comment="band 12">
        <r>  0.0000  0.0539  0.0000  0.0539  0.0000  0.1161  0.0000  0.1161  0.0377 </r>
        <r>  0.0000  0.0539  0.0000  0.0539  0.0000  0.1161  0.0000  0.1161  0.0377 </r>
       </set>
       <set comment="band 13">
        <r>  0.0009  0.0000  0.0003  0.0000  0.0870  0.0053  0.3883  0.0053  0.0000 </r>
        <r>  0.0009  0.0000  0.0003  0.0000  0.0870  0.0053  0.3883  0.0053  0.0000 </r>
       </set>
       <set comment="band 14">
        <r>  0.0007  0.0000  0.0002  0.0000  0.0697  0.0013  0.4150  0.0013  0.0000 </r>
        <r>  0.0007  0.0000  0.0002  0.0000  0.0697  0.0013  0.4150  0.0013  0.0000 </r>
       </set>
       <set comment="band 15">
        <r>  0.0000  0.0000  0.0000  0.0000  0.0000  0.0031  0.0000  0.0031  0.4843 </r>
        <r>  0.0000  0.0000  0.0000  0.0000  0.0000  0.0031  0.0000  0.0031  0.4843 </r>
       </set>
       <set comment="band 16">
        <r>  0.0000  0.0006  0.0000  0.0006  0.0000  0.0283  0.0000  0.0283  0.4324 </r>
        <r>  0.0000  0.0006  0.0000  0.0006  0.0000  0.0283  0.0000  0.0283  0.4324 </r>
       </set>
       <set comment="band 17">
        <r>  0.0227  0.0418  0.0085  0.0418  0.0544  0.1285  0.0020  0.1285  0.0000 </r>
        <r>  0.0227  0.0418  0.0085  0.0418  0.0544  0.1285  0.0020  0.1285  0.0000 </r>
       </set>
       <set comment="band 18">
        <r>  0.0000  0.0754  0.0000  0.0754  0.0000  0.1153  0.0000  0.1153  0.0226 </r>
        <r>  0.0000  0.0754  0.0000  0.0754  0.0000  0.1153  0.0000  0.1153  0.0226 </r>
       </set>
       <set comment="band 19">
        <r>  0.1301  0.0062  0.0498  0.0062  0.1760  0.0004  0.0334  0.0004  0.0000 </r>
        <r>  0.1301  0.0062  0.0498  0.0062  0.1760  0.0004  0.0334  0.0004  0.0000 </r>
       </set>
       <set comment="band 20">
        <r>  0.1065  0.0323  0.0343  0.0323  0.1365  0.0096  0.0251  0.0096  0.0000 </r>
        <r>  0.1065  0.0323  0.0343  0.0323  0.1365  0.0096  0.0251  0.0096  0.0000 </r>
       </set>
       <set comment="band 21">
        <r>  0.1159  0.0319  0.0678  0.0319  0.0007  0.0526  0.0096  0.0526  0.0000 </r>
        <r>  0.1159  0.0319  0.0678  0.0319  0.0007  0.0526  0.0096  0.0526  0.0000 </r>
       </set>
       <set comment="band 22">
        <r>  0.0000  0.0849  0.0000  0.0849  0.0000  0.0782  0.0000  0.0782  0.0045 </r>
        <r>  0.0000  0.0849  0.0000  0.0849  0.0000  0.0782  0.0000  0.0782  0.0045 </r>
       </set>
       <set comment="band 23">
        <r>  0.1716  0.0036  0.1925  0.0036  0.0149  0.0033  0.0096  0.0033  0.0000 </r>
        <r>  0.1716  0.0036  0.1925  0.0036  0.0149  0.0033  0.0096  0.0033  0.0000 </r>
       </set>
       <set comment="band 24">
        <r>  0.0719  0.0521  0.1227  0.0521  0.0184  0.0277  0.0019  0.0277  0.0000 </r>
        <r>  0.0719  0.0521  0.1227  0.0521  0.0184  0.0277  0.0019  0.0277  0.0000 </r>
       </set>
      </set>
      <set comment="kpoint 20">
       <set comment="band 1">
        <r>  0.0000  0.1655  0.1655  0.1655  0.0000  0.0000  0.0000  0.0000  0.0000 </r>
        <r>  0.0000  0.1655  0.1655  0.1655  0.0000  0.0000  0.0000  0.0000  0.0000 </r>
       </set>
       <set comment="band 2">
        <r>  0.0000  0.0982  0.1419  0.2567  0.0000  0.0001  0.0000  0.0000  0.0000 </r>
        <r>  0.0000  0.0982  0.1419  0.2567  0.0000  0.0001  0.0000  0.0000  0.0000 </r>
       </set>
       <set comment="band 3">
        <r>  0.0000  0.2330  0.1893  0.0745  0.0001  0.0000  0.0000  0.0001  0.0000 </r>
        <r>  0.0000  0.2330  0.1893  0.0745  0.0001  0.0000  0.0000  0.0001  0.0000 </r>
       </set>
       <set comment="band 4">
        <r>  0.0000  0.1581  0.0924  0.2473  0.0000  0.0001  0.0000  0.0000  0.0000 </r>
        <r>  0.0000  0.1581  0.0924  0.2473  0.0000  0.0001  0.0000  0.0000  0.0000 </r>
       </set>
       <set comment="band 5">
        <r>  0.0000  0.1738  0.2394  0.0846  0.0001  0.0000  0.0000  0.0001  0.0000 </r>
        <r>  0.0000  0.1738  0.2394  0.0846  0.0001  0.0000  0.0000  0.0001  0.0000 </r>
       </set>
       <set comment="band 6">
        <r>  0.0000  0.1661  0.1661  0.1661  0.0000  0.0000  0.0000  0.0000  0.0000 </r>
        <r>  0.0000  0.1661  0.1661  0.1661  0.0000  0.0000  0.0000  0.0000  0.0000 </r>
       </set>
       <set comment="band 7">
        <r>  0.0098  0.0087  0.0087  0.0087  0.1297  0.1297  0.0000  0.1297  0.0000 </r>
        <r>  0.0098  0.0087  0.0087  0.0087  0.1297  0.1297  0.0000  0.1297  0.0000 </r>
       </set>
       <set comment="band 8">
        <r>  0.0000  0.0234  0.0160  0.0008  0.1479  0.0072  0.0056  0.2170  0.0038 </r>
        <r>  0.0000  0.0234  0.0160  0.0008  0.1479  0.0072  0.0056  0.2170  0.0038 </r>
       </set>
       <set comment="band 9">
        <r>  0.0000  0.0034  0.0108  0.0260  0.1002  0.2409  0.0038  0.0311  0.0056 </r>
        <r>  0.0000  0.0034  0.0108  0.0260  0.1002  0.2409  0.0038  0.0311  0.0056 </r>
       </set>
       <set comment="band 10">
        <r>  0.0190  0.0284  0.0284  0.0284  0.0921  0.0921  0.0000  0.0921  0.0000 </r>
        <r>  0.0190  0.0284  0.0284  0.0284  0.0921  0.0921  0.0000  0.0921  0.0000 </r>
       </set>
       <set comment="band 11">
        <r>  0.0000  0.0041  0.0274  0.0386  0.1222  0.1723  0.0105  0.0184  0.0074 </r>
        <r>  0.0000  0.0041  0.0274  0.0386  0.1222  0.1723  0.0105  0.0184  0.0074 </r>
       </set>
       <set comment="band 12">
        <r>  0.0000  0.0426  0.0194  0.0081  0.0864  0.0363  0.0074  0.1903  0.0105 </r>
        <r>  0.0000  0.0426  0.0194  0.0081  0.0864  0.0363  0.0074  0.1903  0.0105 </r>
       </set>
       <set comment="band 13">
        <r>  0.0000  0.0001  0.0001  0.0000  0.0129  0.0003  0.3408  0.0132  0.1235 </r>
        <r>  0.0000  0.0001  0.0001  0.0000  0.0129  0.0003  0.3408  0.0132  0.1235 </r>
       </set>
       <set comment="band 14">
        <r>  0.0000  0.0000  0.0000  0.0001  0.0047  0.0173  0.1235  0.0044  0.3408 </r>
        <r>  0.0000  0.0000  0.0000  0.0001  0.0047  0.0173  0.1235  0.0044  0.3408 </r>
       </set>
       <set comment="band 15">
        <r>  0.0000  0.0000  0.0000  0.0000  0.0060  0.0001  0.3265  0.0071  0.1511 </r>
        <r>  0.0000  0.0000  0.0000  0.0000  0.0060  0.0001  0.3265  0.0071  0.1511 </r>
       </set>
       <set comment="band 16">
        <r>  0.0000  0.0000  0.0000  0.0000  0.0028  0.0087  0.1511  0.0017  0.3265 </r>
        <r>  0.0000  0.0000  0.0000  0.0000  0.0028  0.0087  0.1511  0.0017  0.3265 </r>
       </set>
       <set comment="band 17">
        <r>  0.0334  0.0391  0.0391  0.0391  0.0853  0.0853  0.0000  0.0853  0.0000 </r>
        <r>  0.0334  0.0391  0.0391  0.0391  0.0853  0.0853  0.0000  0.0853  0.0000 </r>
       </set>
       <set comment="band 18">
        <r>  0.0000  0.0753  0.0026  0.0940  0.0031  0.1117  0.0003  0.0895  0.0110 </r>
        <r>  0.0000  0.0753  0.0026  0.0940  0.0031  0.1117  0.0003  0.0895  0.0110 </r>
       </set>
       <set comment="band 19">
        <r>  0.0000  0.0393  0.1120  0.0206  0.1331  0.0245  0.0110  0.0467  0.0003 </r>
        <r>  0.0000  0.0393  0.1120  0.0206  0.1331  0.0245  0.0110  0.0467  0.0003 </r>
       </set>
       <set comment="band 20">
        <r>  0.2373  0.0090  0.0090  0.0090  0.0374  0.0374  0.0000  0.0374  0.0000 </r>
        <r>  0.2373  0.0090  0.0090  0.0090  0.0374  0.0374  0.0000  0.0374  0.0000 </r>
       </set>
       <set comment="band 21">
        <r>  0.0000  0.1059  0.0674  0.0044  0.0695  0.0045  0.0038  0.1093  0.0029 </r>
        <r>  0.0000  0.1059  0.0674  0.0044  0.0695  0.0045  0.0038  0.1093  0.0029 </r>
       </set>
       <set comment="band 22">
        <r>  0.0000  0.0125  0.0511  0.1141  0.0527  0.1177  0.0029  0.0129  0.0038 </r>
        <r>  0.0000  0.0125  0.0511  0.1141  0.0527  0.1177  0.0029  0.0129  0.0038 </r>
       </set>
       <set comment="band 23">
        <r>  0.3212  0.0210  0.0210  0.0210  0.0003  0.0003  0.0000  0.0003  0.0000 </r>
        <r>  0.3212  0.0210  0.0210  0.0210  0.0003  0.0003  0.0000  0.0003  0.0000 </r>
       </set>
       <set comment="band 24">
        <r>  0.1248  0.0560  0.0560  0.0560  0.0269  0.0269  0.0000  0.0269  0.0000 </r>
        <r>  0.1248  0.0560  0.0560  0.0560  0.0269  0.0269  0.0000  0.0269  0.0000 </r>
       </set>
      </set>
     </set>
    </set>
   </array>
  </projected>
 </calculation>
 <structure name="finalpos" >
  <crystal>
   <varray name="basis" >
    <v>       2.84005200       0.00000000       0.00000000 </v>
    <v>       0.00000000       2.84005200       0.00000000 </v>
    <v>       0.00000000       0.00000000       2.84005200 </v>
   </varray>
   <i name="volume">     22.90756226 </i>
   <varray name="rec_basis" >
    <v>       0.35210623       0.00000000       0.00000000 </v>
    <v>       0.00000000       0.35210623       0.00000000 </v>
    <v>       0.00000000       0.00000000       0.35210623 </v>
   </varray>
  </crystal>
  <varray name="positions" >
   <v>       0.00000000       0.00000000       0.00000000 </v>
   <v>       0.50000000       0.50000000       0.50000000 </v>
  </varray>
 </structure>
</modeling>
