=========================================
SLURM_JOB_ID = 63601032
SLURM_JOB_NODELIST = lnode44
SLURM_GPUS = 
SLURM_CPUS_ON_NODE = 8
SLURM_JOB_PARTITION = lenovo
SLURM_TASK_PID = 2640603
CUDA_VISIBLE_DEVICES = 
==========================================
 running on    8 total cores
 distrk:  each k-point on    8 cores,    1 groups
 distr:  one band on    4 cores,    2 groups
 using from now: INCAR     
 vasp.5.4.4.18Apr17-6-g9f103f2a35 (build Apr 28 2018 00:24:27) complex          
  
 POSCAR found type information on POSCAR  Ni O 
 POSCAR found :  2 types and      32 ions
 scaLAPACK will be used

 ----------------------------------------------------------------------------- 
|                                                                             |
|  ADVICE TO THIS USER RUNNING 'VASP/VAMP'   (HEAR YOUR MASTER'S VOICE ...):  |
|                                                                             |
|      You have a (more or less) 'large supercell' and for larger cells       |
|      it might be more efficient to use real space projection opertators     |
|      So try LREAL= Auto  in the INCAR   file.                               |
|      Mind:          For very  accurate calculation you might also keep the  |
|      reciprocal projection scheme          (i.e. LREAL=.FALSE.)             |
|                                                                             |
 ----------------------------------------------------------------------------- 

 LDA part: xc-table for Pade appr. of Perdew
 WARNING: stress and forces are not correct
 POSCAR, INCAR and KPOINTS ok, starting setup
 FFT: planning ...
 WAVECAR not read
 charge-density read from file: unknown                                 
 magnetization density read from file 1
 entering main loop
       N       E                     dE             d eps       ncg     rms          rms(c)
DAV:   1     0.516908777171E+04    0.51691E+04   -0.18431E+05 10072   0.190E+03
DAV:   2     0.393881136790E+03   -0.47752E+04   -0.45451E+04  8808   0.640E+02
DAV:   3    -0.155877031470E+03   -0.54976E+03   -0.50286E+03  9424   0.228E+02
DAV:   4    -0.186266159530E+03   -0.30389E+02   -0.29696E+02  9736   0.498E+01
DAV:   5    -0.186844124890E+03   -0.57797E+00   -0.57582E+00  9608   0.764E+00
DAV:   6    -0.186859295786E+03   -0.15171E-01   -0.15157E-01  9768   0.121E+00
DAV:   7    -0.186859901835E+03   -0.60605E-03   -0.60587E-03  9876   0.250E-01
DAV:   8    -0.186859930679E+03   -0.28844E-04   -0.28841E-04  9792   0.528E-02
DAV:   9    -0.186859932304E+03   -0.16252E-05   -0.16239E-05  9936   0.127E-02
DAV:  10    -0.186859932363E+03   -0.58630E-07   -0.59115E-07  5928   0.244E-03
   1 F= -.18685993E+03 E0= -.18662075E+03  d E =-.478370E+00  mag=    11.6748
 writing wavefunctions
