       N       E                     dE             d eps       ncg     rms          rms(c)
DAV:   1     0.516908777171E+04    0.51691E+04   -0.18431E+05 10072   0.190E+03
DAV:   2     0.393881136790E+03   -0.47752E+04   -0.45451E+04  8808   0.640E+02
DAV:   3    -0.155877031470E+03   -0.54976E+03   -0.50286E+03  9424   0.228E+02
DAV:   4    -0.186266159530E+03   -0.30389E+02   -0.29696E+02  9736   0.498E+01
DAV:   5    -0.186844124890E+03   -0.57797E+00   -0.57582E+00  9608   0.764E+00
DAV:   6    -0.186859295786E+03   -0.15171E-01   -0.15157E-01  9768   0.121E+00
DAV:   7    -0.186859901835E+03   -0.60605E-03   -0.60587E-03  9876   0.250E-01
DAV:   8    -0.186859930679E+03   -0.28844E-04   -0.28841E-04  9792   0.528E-02
DAV:   9    -0.186859932304E+03   -0.16252E-05   -0.16239E-05  9936   0.127E-02
DAV:  10    -0.186859932363E+03   -0.58630E-07   -0.59115E-07  5928   0.244E-03
   1 F= -.18685993E+03 E0= -.18662075E+03  d E =-.478370E+00  mag=    11.6748
