 vasp.5.4.4.18Apr17-6-g9f103f2a35 (build Apr 28 2018 00:24:27) complex          
  
 executed on             LinuxIFC date 2021.09.06  23:54:46
 running on   24 total cores
 distrk:  each k-point on   24 cores,    1 groups
 distr:  one band on NCORES_PER_BAND=   4 cores,    6 groups


--------------------------------------------------------------------------------------------------------


 INCAR:
 POTCAR:    PAW_PBE Fe_pv 02Aug2007               
 POTCAR:    PAW_PBE Fe_pv 02Aug2007               
   VRHFIN =Fe:  3pd7s1                                                          
   LEXCH  = PE                                                                  
   EATOM  =  2457.4239 eV,  180.6156 Ry                                         
                                                                                
   TITEL  = PAW_PBE Fe_pv 02Aug2007                                             
   LULTRA =        F    use ultrasoft PP ?                                      
   IUNSCR =        1    unscreen: 0-lin 1-nonlin 2-no                           
   RPACOR =    1.750    partial core radius                                     
   POMASS =   55.847; ZVAL   =   14.000    mass and valenz                      
   RCORE  =    2.200    outmost cutoff radius                                   
   RWIGS  =    2.200; RWIGS  =    1.164    wigner-seitz radius (au A)           
   ENMAX  =  293.238; ENMIN  =  219.928 eV                                      
   ICORE  =        3    local potential                                         
   LCOR   =        T    correct aug charges                                     
   LPAW   =        T    paw PP                                                  
   EAUG   =  578.342                                                            
   DEXC   =    0.000                                                            
   RMAX   =    2.249    core radius for proj-oper                               
   RAUG   =    1.300    factor for augmentation sphere                          
   RDEP   =    2.296    radius for radial grids                                 
   RDEPT  =    1.766    core radius for aug-charge                              
                                                                                
   Atomic configuration                                                         
    8 entries                                                                   
     n  l   j            E        occ.                                          
     1  0  0.50     -6993.8440   2.0000                                         
     2  0  0.50      -814.6047   2.0000                                         
     2  1  1.50      -693.3689   6.0000                                         
     3  0  0.50       -89.4732   2.0000                                         
     3  1  1.50       -55.6373   6.0000                                         
     3  2  2.50        -3.8151   7.0000                                         
     4  0  0.50        -4.2551   1.0000                                         
     4  3  2.50        -1.3606   0.0000                                         
   Description                                                                  
     l       E           TYP  RCUT    TYP  RCUT                                 
     1    -55.6372668     23  2.000                                             
     1     -5.4423304     23  2.000                                             
     2     -3.8151096     23  2.200                                             
     2     -5.1756922     23  2.200                                             
     0     -4.2550951     23  2.200                                             
     0     27.2116520     23  2.200                                             
     3     -1.3605826     23  2.200                                             
  local pseudopotential read in
  partial core-charges read in
  partial kinetic energy density read in
  atomic valenz-charges read in
  non local Contribution for L=           1  read in
    real space projection operators read in
  non local Contribution for L=           1  read in
    real space projection operators read in
  non local Contribution for L=           2  read in
    real space projection operators read in
  non local Contribution for L=           2  read in
    real space projection operators read in
  non local Contribution for L=           0  read in
    real space projection operators read in
  non local Contribution for L=           0  read in
    real space projection operators read in
    PAW grid and wavefunctions read in
 
   number of l-projection  operators is LMAX  =           6
   number of lm-projection operators is LMMAX =          18
 

 ----------------------------------------------------------------------------- 
|                                                                             |
|  ADVICE TO THIS USER RUNNING 'VASP/VAMP'   (HEAR YOUR MASTER'S VOICE ...):  |
|                                                                             |
|      You have a (more or less) 'small supercell' and for smaller cells      |
|      it is recommended  to use the reciprocal-space projection scheme!      |
|      The real space optimization is not  efficient for small cells and it   |
|      is also less accurate ...                                              |
|      Therefore set LREAL=.FALSE. in the  INCAR file                         |
|                                                                             |
 ----------------------------------------------------------------------------- 

 Optimization of the real space projectors (new method)

 maximal supplied QI-value         = 17.01
 optimisation between [QCUT,QGAM] = [ 13.27, 26.70] = [ 49.28,199.66] Ry 
 Optimized for a Real-space Cutoff    1.38 Angstroem

   l    n(q)    QCUT    max X(q) W(low)/X(q) W(high)/X(q)  e(spline) 
   1     11    13.266     4.267    0.12E-03    0.75E-04    0.28E-06
   1     11    13.266     5.750    0.19E-03    0.11E-03    0.42E-06
   2     10    13.266    53.656    0.42E-04    0.31E-04    0.20E-06
   2     10    13.266    49.521    0.43E-04    0.32E-04    0.21E-06
   0     11    13.266    31.246    0.45E-04    0.41E-05    0.20E-06
   0     11    13.266    12.201    0.31E-04    0.36E-05    0.16E-06
  PAW_PBE Fe_pv 02Aug2007               :
 energy of atom  1       EATOM=-2457.4239
 kinetic energy error for atom=    0.0031 (will be added to EATOM!!)
 
 
 POSCAR: Fe2                                     
  positions in direct lattice
  No initial velocities read in
 exchange correlation table for  LEXCH =        8
   RHO(1)=    0.500       N(1)  =     2000
   RHO(2)=  100.500       N(2)  =     4000
 


--------------------------------------------------------------------------------------------------------


 ion  position               nearest neighbor table
   1  0.000  0.000  0.000-   2 2.46   2 2.46   2 2.46   2 2.46   2 2.46   2 2.46   2 2.46   2 2.46

   2  0.500  0.500  0.500-   1 2.46   1 2.46   1 2.46   1 2.46   1 2.46   1 2.46   1 2.46   1 2.46

 
  LATTYP: Found a simple cubic cell.
 ALAT       =     2.8400520000
  
  Lattice vectors:
  
 A1 = (   2.8400520000,   0.0000000000,   0.0000000000)
 A2 = (   0.0000000000,   2.8400520000,   0.0000000000)
 A3 = (   0.0000000000,   0.0000000000,   2.8400520000)


Analysis of symmetry for initial positions (statically):
=====================================================================
 Subroutine PRICEL returns following result:
 
  LATTYP: Found a body centered cubic cell.
 ALAT       =     2.8400520000
  
  Lattice vectors:
  
 A1 = (   1.4200260000,   1.4200260000,   1.4200260000)
 A2 = (   1.4200260000,  -1.4200260000,  -1.4200260000)
 A3 = (  -1.4200260000,   1.4200260000,  -1.4200260000)
 
   2 primitive cells build up your supercell.
 

 Routine SETGRP: Setting up the symmetry group for a 
 simple cubic supercell.


 Subroutine GETGRP returns: Found 48 space group operations
 (whereof 48 operations were pure point group operations)
 out of a pool of 48 trial point group operations.


The static configuration has the point symmetry O_h .


Analysis of symmetry for dynamics (positions and initial velocities):
=====================================================================
 Subroutine PRICEL returns following result:
 
  LATTYP: Found a body centered cubic cell.
 ALAT       =     2.8400520000
  
  Lattice vectors:
  
 A1 = (   1.4200260000,   1.4200260000,   1.4200260000)
 A2 = (   1.4200260000,  -1.4200260000,  -1.4200260000)
 A3 = (  -1.4200260000,   1.4200260000,  -1.4200260000)
 
   2 primitive cells build up your supercell.
 

 Routine SETGRP: Setting up the symmetry group for a 
 simple cubic supercell.


 Subroutine GETGRP returns: Found 48 space group operations
 (whereof 48 operations were pure point group operations)
 out of a pool of 48 trial point group operations.


The dynamic configuration has the point symmetry O_h .


Analysis of structural, dynamic, and magnetic symmetry:
=====================================================================
 Subroutine PRICEL returns following result:
 
  LATTYP: Found a body centered cubic cell.
 ALAT       =     2.8400520000
  
  Lattice vectors:
  
 A1 = (   1.4200260000,   1.4200260000,   1.4200260000)
 A2 = (   1.4200260000,  -1.4200260000,  -1.4200260000)
 A3 = (  -1.4200260000,   1.4200260000,  -1.4200260000)
 
   2 primitive cells build up your supercell.
 

 Routine SETGRP: Setting up the symmetry group for a 
 simple cubic supercell.


 Subroutine GETGRP returns: Found 48 space group operations
 (whereof 48 operations were pure point group operations)
 out of a pool of 48 trial point group operations.


The magnetic configuration has the point symmetry O_h .


 Subroutine INISYM returns: Found 48 space group operations
 (whereof 48 operations are pure point group operations),
 and found     2 'primitive' translations

 
 
 KPOINTS: pymatgen with grid density = 2166 / numb

Automatic generation of k-mesh.
Space group operators:
 irot       det(A)        alpha          n_x          n_y          n_z        tau_x        tau_y        tau_z
    1     1.000000     0.000000     1.000000     0.000000     0.000000     0.000000     0.000000     0.000000
    2    -1.000000     0.000000     1.000000     0.000000     0.000000     0.000000     0.000000     0.000000
    3     1.000000   120.000000    -0.577350    -0.577350    -0.577350     0.000000     0.000000     0.000000
    4    -1.000000   120.000000    -0.577350    -0.577350    -0.577350     0.000000     0.000000     0.000000
    5     1.000000   120.000000     0.577350     0.577350     0.577350     0.000000     0.000000     0.000000
    6    -1.000000   120.000000     0.577350     0.577350     0.577350     0.000000     0.000000     0.000000
    7     1.000000    90.000000     0.000000     0.000000    -1.000000     0.000000     0.000000     0.000000
    8    -1.000000    90.000000     0.000000     0.000000    -1.000000     0.000000     0.000000     0.000000
    9     1.000000   180.000000     0.000000     0.707107     0.707107     0.000000     0.000000     0.000000
   10    -1.000000   180.000000     0.000000     0.707107     0.707107     0.000000     0.000000     0.000000
   11     1.000000    90.000000     0.000000     1.000000     0.000000     0.000000     0.000000     0.000000
   12    -1.000000    90.000000     0.000000     1.000000     0.000000     0.000000     0.000000     0.000000
   13     1.000000   180.000000     0.000000     0.000000     1.000000     0.000000     0.000000     0.000000
   14    -1.000000   180.000000     0.000000     0.000000     1.000000     0.000000     0.000000     0.000000
   15     1.000000   120.000000    -0.577350     0.577350     0.577350     0.000000     0.000000     0.000000
   16    -1.000000   120.000000    -0.577350     0.577350     0.577350     0.000000     0.000000     0.000000
   17     1.000000   120.000000    -0.577350     0.577350    -0.577350     0.000000     0.000000     0.000000
   18    -1.000000   120.000000    -0.577350     0.577350    -0.577350     0.000000     0.000000     0.000000
   19     1.000000    90.000000     0.000000     0.000000     1.000000     0.000000     0.000000     0.000000
   20    -1.000000    90.000000     0.000000     0.000000     1.000000     0.000000     0.000000     0.000000
   21     1.000000    90.000000    -1.000000     0.000000     0.000000     0.000000     0.000000     0.000000
   22    -1.000000    90.000000    -1.000000     0.000000     0.000000     0.000000     0.000000     0.000000
   23     1.000000   180.000000     0.707107     0.000000     0.707107     0.000000     0.000000     0.000000
   24    -1.000000   180.000000     0.707107     0.000000     0.707107     0.000000     0.000000     0.000000
   25     1.000000   120.000000     0.577350    -0.577350     0.577350     0.000000     0.000000     0.000000
   26    -1.000000   120.000000     0.577350    -0.577350     0.577350     0.000000     0.000000     0.000000
   27     1.000000   120.000000    -0.577350    -0.577350     0.577350     0.000000     0.000000     0.000000
   28    -1.000000   120.000000    -0.577350    -0.577350     0.577350     0.000000     0.000000     0.000000
   29     1.000000   180.000000     1.000000     0.000000     0.000000     0.000000     0.000000     0.000000
   30    -1.000000   180.000000     1.000000     0.000000     0.000000     0.000000     0.000000     0.000000
   31     1.000000    90.000000     0.000000    -1.000000     0.000000     0.000000     0.000000     0.000000
   32    -1.000000    90.000000     0.000000    -1.000000     0.000000     0.000000     0.000000     0.000000
   33     1.000000   180.000000     0.707107     0.707107     0.000000     0.000000     0.000000     0.000000
   34    -1.000000   180.000000     0.707107     0.707107     0.000000     0.000000     0.000000     0.000000
   35     1.000000    90.000000     1.000000     0.000000     0.000000     0.000000     0.000000     0.000000
   36    -1.000000    90.000000     1.000000     0.000000     0.000000     0.000000     0.000000     0.000000
   37     1.000000   120.000000     0.577350    -0.577350    -0.577350     0.000000     0.000000     0.000000
   38    -1.000000   120.000000     0.577350    -0.577350    -0.577350     0.000000     0.000000     0.000000
   39     1.000000   180.000000     0.000000     1.000000     0.000000     0.000000     0.000000     0.000000
   40    -1.000000   180.000000     0.000000     1.000000     0.000000     0.000000     0.000000     0.000000
   41     1.000000   120.000000     0.577350     0.577350    -0.577350     0.000000     0.000000     0.000000
   42    -1.000000   120.000000     0.577350     0.577350    -0.577350     0.000000     0.000000     0.000000
   43     1.000000   180.000000     0.000000    -0.707107     0.707107     0.000000     0.000000     0.000000
   44    -1.000000   180.000000     0.000000    -0.707107     0.707107     0.000000     0.000000     0.000000
   45     1.000000   180.000000     0.707107    -0.707107     0.000000     0.000000     0.000000     0.000000
   46    -1.000000   180.000000     0.707107    -0.707107     0.000000     0.000000     0.000000     0.000000
   47     1.000000   180.000000     0.707107     0.000000    -0.707107     0.000000     0.000000     0.000000
   48    -1.000000   180.000000     0.707107     0.000000    -0.707107     0.000000     0.000000     0.000000
 
 Subroutine IBZKPT returns following result:
 ===========================================
 
 Found     35 irreducible k-points:
 
 Following reciprocal coordinates:
            Coordinates               Weight
  0.050000  0.050000  0.050000      8.000000
  0.150000  0.050000  0.050000     24.000000
  0.250000  0.050000  0.050000     24.000000
  0.350000  0.050000  0.050000     24.000000
  0.450000  0.050000  0.050000     24.000000
  0.150000  0.150000  0.050000     24.000000
  0.250000  0.150000  0.050000     48.000000
  0.350000  0.150000  0.050000     48.000000
  0.450000  0.150000  0.050000     48.000000
  0.250000  0.250000  0.050000     24.000000
  0.350000  0.250000  0.050000     48.000000
  0.450000  0.250000  0.050000     48.000000
  0.350000  0.350000  0.050000     24.000000
  0.450000  0.350000  0.050000     48.000000
  0.450000  0.450000  0.050000     24.000000
  0.150000  0.150000  0.150000      8.000000
  0.250000  0.150000  0.150000     24.000000
  0.350000  0.150000  0.150000     24.000000
  0.450000  0.150000  0.150000     24.000000
  0.250000  0.250000  0.150000     24.000000
  0.350000  0.250000  0.150000     48.000000
  0.450000  0.250000  0.150000     48.000000
  0.350000  0.350000  0.150000     24.000000
  0.450000  0.350000  0.150000     48.000000
  0.450000  0.450000  0.150000     24.000000
  0.250000  0.250000  0.250000      8.000000
  0.350000  0.250000  0.250000     24.000000
  0.450000  0.250000  0.250000     24.000000
  0.350000  0.350000  0.250000     24.000000
  0.450000  0.350000  0.250000     48.000000
  0.450000  0.450000  0.250000     24.000000
  0.350000  0.350000  0.350000      8.000000
  0.450000  0.350000  0.350000     24.000000
  0.450000  0.450000  0.350000     24.000000
  0.450000  0.450000  0.450000      8.000000
 
 Following cartesian coordinates:
            Coordinates               Weight
  0.017605  0.017605  0.017605      8.000000
  0.052816  0.017605  0.017605     24.000000
  0.088027  0.017605  0.017605     24.000000
  0.123237  0.017605  0.017605     24.000000
  0.158448  0.017605  0.017605     24.000000
  0.052816  0.052816  0.017605     24.000000
  0.088027  0.052816  0.017605     48.000000
  0.123237  0.052816  0.017605     48.000000
  0.158448  0.052816  0.017605     48.000000
  0.088027  0.088027  0.017605     24.000000
  0.123237  0.088027  0.017605     48.000000
  0.158448  0.088027  0.017605     48.000000
  0.123237  0.123237  0.017605     24.000000
  0.158448  0.123237  0.017605     48.000000
  0.158448  0.158448  0.017605     24.000000
  0.052816  0.052816  0.052816      8.000000
  0.088027  0.052816  0.052816     24.000000
  0.123237  0.052816  0.052816     24.000000
  0.158448  0.052816  0.052816     24.000000
  0.088027  0.088027  0.052816     24.000000
  0.123237  0.088027  0.052816     48.000000
  0.158448  0.088027  0.052816     48.000000
  0.123237  0.123237  0.052816     24.000000
  0.158448  0.123237  0.052816     48.000000
  0.158448  0.158448  0.052816     24.000000
  0.088027  0.088027  0.088027      8.000000
  0.123237  0.088027  0.088027     24.000000
  0.158448  0.088027  0.088027     24.000000
  0.123237  0.123237  0.088027     24.000000
  0.158448  0.123237  0.088027     48.000000
  0.158448  0.158448  0.088027     24.000000
  0.123237  0.123237  0.123237      8.000000
  0.158448  0.123237  0.123237     24.000000
  0.158448  0.158448  0.123237     24.000000
  0.158448  0.158448  0.158448      8.000000
 
 TETIRR: Found    466 inequivalent tetrahedra from     6000


--------------------------------------------------------------------------------------------------------




 Dimension of arrays:
   k-points           NKPTS =     35   k-points in BZ     NKDIM =     35   number of bands    NBANDS=     24
   number of dos      NEDOS =    301   number of ions     NIONS =      2
   non local maximal  LDIM  =      6   non local SUM 2l+1 LMDIM =     18
   total plane-waves  NPLWV =  13824
   max r-space proj   IRMAX =   6715   max aug-charges    IRDMAX=  18070
   dimension x,y,z NGX =    24 NGY =   24 NGZ =   24
   dimension x,y,z NGXF=    48 NGYF=   48 NGZF=   48
   support grid    NGXF=    48 NGYF=   48 NGZF=   48
   ions per type =               2
   NGX,Y,Z   is equivalent  to a cutoff of  14.05, 14.05, 14.05 a.u.
   NGXF,Y,Z  is equivalent  to a cutoff of  28.10, 28.10, 28.10 a.u.

 SYSTEM =  unknown system                          
 POSCAR =  Fe2                                     

 Startparameter for this run:
   NWRITE =      2    write-flag & timer
   PREC   = accura    normal or accurate (medium, high low for compatibility)
   ISTART =      0    job   : 0-new  1-cont  2-samecut
   ICHARG =      2    charge: 1-file 2-atom 10-const
   ISPIN  =      2    spin polarized calculation?
   LNONCOLLINEAR =      F non collinear calculations
   LSORBIT =      F    spin-orbit coupling
   INIWAV =      1    electr: 0-lowe 1-rand  2-diag
   LASPH  =      F    aspherical Exc in radial PAW
   METAGGA=      F    non-selfconsistent MetaGGA calc.

 Electronic Relaxation 1
   ENCUT  =  680.0 eV  49.98 Ry    7.07 a.u.   6.04  6.04  6.04*2*pi/ulx,y,z
   ENINI  =  680.0     initial cutoff
   ENAUG  =  578.3 eV  augmentation charge cutoff
   NELM   =    100;   NELMIN=  2; NELMDL= -5     # of ELM steps 
   EDIFF  = 0.1E-06   stopping-criterion for ELM
   LREAL  =      T    real-space projection
   NLSPLINE    = F    spline interpolate recip. space projectors
   LCOMPAT=      F    compatible to vasp.4.4
   GGA_COMPAT  = T    GGA compatible to vasp.4.4-vasp.4.6
   LMAXPAW     = -100 max onsite density
   LMAXMIX     =    2 max onsite mixed and CHGCAR
   VOSKOWN=      0    Vosko Wilk Nusair interpolation
   ROPT   =   -0.00025
 Ionic relaxation
   EDIFFG = 0.1E-05   stopping-criterion for IOM
   NSW    =      0    number of steps for IOM
   NBLOCK =      1;   KBLOCK =      1    inner block; outer block 
   IBRION =     -1    ionic relax: 0-MD 1-quasi-New 2-CG
   NFREE  =      0    steps in history (QN), initial steepest desc. (CG)
   ISIF   =      3    stress and relaxation
   IWAVPR =     10    prediction:  0-non 1-charg 2-wave 3-comb
   ISYM   =      2    0-nonsym 1-usesym 2-fastsym
   LCORR  =      T    Harris-Foulkes like correction to forces

   POTIM  = 0.5000    time-step for ionic-motion
   TEIN   =    0.0    initial temperature
   TEBEG  =    0.0;   TEEND  =   0.0 temperature during run
   SMASS  =  -3.00    Nose mass-parameter (am)
   estimated Nose-frequenzy (Omega)   =  0.10E-29 period in steps =****** mass=  -0.184E-27a.u.
   SCALEE = 1.0000    scale energy and forces
   NPACO  =    256;   APACO  = 16.0  distance and # of slots for P.C.
   PSTRESS=    0.0 pullay stress

  Mass of Ions in am
   POMASS =  55.85
  Ionic Valenz
   ZVAL   =  14.00
  Atomic Wigner-Seitz radii
   RWIGS  =  -1.00
  virtual crystal weights 
   VCA    =   1.00
   NELECT =      28.0000    total number of electrons
   NUPDOWN=      -1.0000    fix difference up-down

 DOS related values:
   EMIN   =  10.00;   EMAX   =-10.00  energy-range for DOS
   EFERMI =   0.00
   ISMEAR =    -5;   SIGMA  =   0.05  broadening in eV -4-tet -1-fermi 0-gaus

 Electronic relaxation 2 (details)
   IALGO  =     38    algorithm
   LDIAG  =      T    sub-space diagonalisation (order eigenvalues)
   LSUBROT=      F    optimize rotation matrix (better conditioning)
   TURBO    =      0    0=normal 1=particle mesh
   IRESTART =      0    0=no restart 2=restart with 2 vectors
   NREBOOT  =      0    no. of reboots
   NMIN     =      0    reboot dimension
   EREF     =   0.00    reference energy to select bands
   IMIX   =      4    mixing-type and parameters
     AMIX     =   0.40;   BMIX     =  1.00
     AMIX_MAG =   1.60;   BMIX_MAG =  1.00
     AMIN     =   0.10
     WC   =   100.;   INIMIX=   1;  MIXPRE=   1;  MAXMIX= -45

 Intra band minimization:
   WEIMIN = 0.0000     energy-eigenvalue tresh-hold
   EBREAK =  0.10E-08  absolut break condition
   DEPER  =   0.30     relativ break condition  

   TIME   =   0.40     timestep for ELM

  volume/ion in A,a.u.               =      11.45        77.29
  Fermi-wavevector in a.u.,A,eV,Ry     =   1.750389  3.307755 41.686364  3.063861
  Thomas-Fermi vector in A             =   2.821117
 
 Write flags
   LWAVE        =      F    write WAVECAR
   LDOWNSAMPLE  =      F    k-point downsampling of WAVECAR
   LCHARG       =      F    write CHGCAR
   LVTOT        =      F    write LOCPOT, total local potential
   LVHAR        =      F    write LOCPOT, Hartree potential only
   LELF         =      F    write electronic localiz. function (ELF)
   LORBIT       =     11    0 simple, 1 ext, 2 COOP (PROOUT), +10 PAW based schemes


 Dipole corrections
   LMONO  =      F    monopole corrections only (constant potential shift)
   LDIPOL =      F    correct potential (dipole corrections)
   IDIPOL =      0    1-x, 2-y, 3-z, 4-all directions 
   EPSILON=  1.0000000 bulk dielectric constant

 Exchange correlation treatment:
   GGA     =    --    GGA type
   LEXCH   =     8    internal setting for exchange type
   VOSKOWN=      0    Vosko Wilk Nusair interpolation
   LHFCALC =     F    Hartree Fock is set to
   LHFONE  =     F    Hartree Fock one center treatment
   AEXX    =    0.0000 exact exchange contribution

 Linear response parameters
   LEPSILON=     F    determine dielectric tensor
   LRPA    =     F    only Hartree local field effects (RPA)
   LNABLA  =     F    use nabla operator in PAW spheres
   LVEL    =     F    velocity operator in full k-point grid
   LINTERFAST=   F  fast interpolation
   KINTER  =     0    interpolate to denser k-point grid
   CSHIFT  =0.1000    complex shift for real part using Kramers Kronig
   OMEGAMAX=  -1.0    maximum frequency
   DEG_THRESHOLD= 0.2000000E-02 threshold for treating states as degnerate
   RTIME   =   -0.100 relaxation time in fs
  (WPLASMAI=    0.000 imaginary part of plasma frequency in eV, 0.658/RTIME)
   DFIELD  = 0.0000000 0.0000000 0.0000000 field for delta impulse in time
 
 Orbital magnetization related:
   ORBITALMAG=     F  switch on orbital magnetization
   LCHIMAG   =     F  perturbation theory with respect to B field
   DQ        =  0.001000  dq finite difference perturbation B field
   LLRAUG    =     F  two centre corrections for induced B field



--------------------------------------------------------------------------------------------------------


 Static calculation
 charge density and potential will be updated during run
 spin polarized calculation
 Variant of blocked Davidson
 Davidson routine will perform the subspace rotation
 perform sub-space diagonalisation
    after iterative eigenvector-optimisation
 modified Broyden-mixing scheme, WC =      100.0
 initial mixing is a Kerker type mixing with AMIX =  0.4000 and BMIX =      1.0000
 Hartree-type preconditioning will be used
 using additional bands           10
 real space projection scheme for non local part
 use partial core corrections
 calculate Harris-corrections to forces 
   (improved forces if not selfconsistent)
 use gradient corrections 
 use of overlap-Matrix (Vanderbilt PP)
 Fermi weights with tetrahedron method with Bloechl corrections


--------------------------------------------------------------------------------------------------------


  energy-cutoff  :      680.00
  volume of cell :       22.91
      direct lattice vectors                 reciprocal lattice vectors
     2.840052000  0.000000000  0.000000000     0.352106229  0.000000000  0.000000000
     0.000000000  2.840052000  0.000000000     0.000000000  0.352106229  0.000000000
     0.000000000  0.000000000  2.840052000     0.000000000  0.000000000  0.352106229

  length of vectors
     2.840052000  2.840052000  2.840052000     0.352106229  0.352106229  0.352106229


 
 k-points in units of 2pi/SCALE and weight: pymatgen with grid density = 2166 / numb
   0.01760531  0.01760531  0.01760531       0.008
   0.05281593  0.01760531  0.01760531       0.024
   0.08802656  0.01760531  0.01760531       0.024
   0.12323718  0.01760531  0.01760531       0.024
   0.15844780  0.01760531  0.01760531       0.024
   0.05281593  0.05281593  0.01760531       0.024
   0.08802656  0.05281593  0.01760531       0.048
   0.12323718  0.05281593  0.01760531       0.048
   0.15844780  0.05281593  0.01760531       0.048
   0.08802656  0.08802656  0.01760531       0.024
   0.12323718  0.08802656  0.01760531       0.048
   0.15844780  0.08802656  0.01760531       0.048
   0.12323718  0.12323718  0.01760531       0.024
   0.15844780  0.12323718  0.01760531       0.048
   0.15844780  0.15844780  0.01760531       0.024
   0.05281593  0.05281593  0.05281593       0.008
   0.08802656  0.05281593  0.05281593       0.024
   0.12323718  0.05281593  0.05281593       0.024
   0.15844780  0.05281593  0.05281593       0.024
   0.08802656  0.08802656  0.05281593       0.024
   0.12323718  0.08802656  0.05281593       0.048
   0.15844780  0.08802656  0.05281593       0.048
   0.12323718  0.12323718  0.05281593       0.024
   0.15844780  0.12323718  0.05281593       0.048
   0.15844780  0.15844780  0.05281593       0.024
   0.08802656  0.08802656  0.08802656       0.008
   0.12323718  0.08802656  0.08802656       0.024
   0.15844780  0.08802656  0.08802656       0.024
   0.12323718  0.12323718  0.08802656       0.024
   0.15844780  0.12323718  0.08802656       0.048
   0.15844780  0.15844780  0.08802656       0.024
   0.12323718  0.12323718  0.12323718       0.008
   0.15844780  0.12323718  0.12323718       0.024
   0.15844780  0.15844780  0.12323718       0.024
   0.15844780  0.15844780  0.15844780       0.008
 
 k-points in reciprocal lattice and weights: pymatgen with grid density = 2166 / numb
   0.05000000  0.05000000  0.05000000       0.008
   0.15000000  0.05000000  0.05000000       0.024
   0.25000000  0.05000000  0.05000000       0.024
   0.35000000  0.05000000  0.05000000       0.024
   0.45000000  0.05000000  0.05000000       0.024
   0.15000000  0.15000000  0.05000000       0.024
   0.25000000  0.15000000  0.05000000       0.048
   0.35000000  0.15000000  0.05000000       0.048
   0.45000000  0.15000000  0.05000000       0.048
   0.25000000  0.25000000  0.05000000       0.024
   0.35000000  0.25000000  0.05000000       0.048
   0.45000000  0.25000000  0.05000000       0.048
   0.35000000  0.35000000  0.05000000       0.024
   0.45000000  0.35000000  0.05000000       0.048
   0.45000000  0.45000000  0.05000000       0.024
   0.15000000  0.15000000  0.15000000       0.008
   0.25000000  0.15000000  0.15000000       0.024
   0.35000000  0.15000000  0.15000000       0.024
   0.45000000  0.15000000  0.15000000       0.024
   0.25000000  0.25000000  0.15000000       0.024
   0.35000000  0.25000000  0.15000000       0.048
   0.45000000  0.25000000  0.15000000       0.048
   0.35000000  0.35000000  0.15000000       0.024
   0.45000000  0.35000000  0.15000000       0.048
   0.45000000  0.45000000  0.15000000       0.024
   0.25000000  0.25000000  0.25000000       0.008
   0.35000000  0.25000000  0.25000000       0.024
   0.45000000  0.25000000  0.25000000       0.024
   0.35000000  0.35000000  0.25000000       0.024
   0.45000000  0.35000000  0.25000000       0.048
   0.45000000  0.45000000  0.25000000       0.024
   0.35000000  0.35000000  0.35000000       0.008
   0.45000000  0.35000000  0.35000000       0.024
   0.45000000  0.45000000  0.35000000       0.024
   0.45000000  0.45000000  0.45000000       0.008
 
 position of ions in fractional coordinates (direct lattice) 
   0.00000000  0.00000000  0.00000000
   0.50000000  0.50000000  0.50000000
 
 position of ions in cartesian coordinates  (Angst):
   0.00000000  0.00000000  0.00000000
   1.42002600  1.42002600  1.42002600
 


--------------------------------------------------------------------------------------------------------


 k-point  1 :   0.0500 0.0500 0.0500  plane waves:     922
 k-point  2 :   0.1500 0.0500 0.0500  plane waves:     923
 k-point  3 :   0.2500 0.0500 0.0500  plane waves:     922
 k-point  4 :   0.3500 0.0500 0.0500  plane waves:     910
 k-point  5 :   0.4500 0.0500 0.0500  plane waves:     910
 k-point  6 :   0.1500 0.1500 0.0500  plane waves:     928
 k-point  7 :   0.2500 0.1500 0.0500  plane waves:     916
 k-point  8 :   0.3500 0.1500 0.0500  plane waves:     918
 k-point  9 :   0.4500 0.1500 0.0500  plane waves:     918
 k-point 10 :   0.2500 0.2500 0.0500  plane waves:     914
 k-point 11 :   0.3500 0.2500 0.0500  plane waves:     916
 k-point 12 :   0.4500 0.2500 0.0500  plane waves:     918
 k-point 13 :   0.3500 0.3500 0.0500  plane waves:     923
 k-point 14 :   0.4500 0.3500 0.0500  plane waves:     925
 k-point 15 :   0.4500 0.4500 0.0500  plane waves:     916
 k-point 16 :   0.1500 0.1500 0.1500  plane waves:     922
 k-point 17 :   0.2500 0.1500 0.1500  plane waves:     918
 k-point 18 :   0.3500 0.1500 0.1500  plane waves:     910
 k-point 19 :   0.4500 0.1500 0.1500  plane waves:     917
 k-point 20 :   0.2500 0.2500 0.1500  plane waves:     922
 k-point 21 :   0.3500 0.2500 0.1500  plane waves:     918
 k-point 22 :   0.4500 0.2500 0.1500  plane waves:     923
 k-point 23 :   0.3500 0.3500 0.1500  plane waves:     922
 k-point 24 :   0.4500 0.3500 0.1500  plane waves:     928
 k-point 25 :   0.4500 0.4500 0.1500  plane waves:     929
 k-point 26 :   0.2500 0.2500 0.2500  plane waves:     925
 k-point 27 :   0.3500 0.2500 0.2500  plane waves:     929
 k-point 28 :   0.4500 0.2500 0.2500  plane waves:     933
 k-point 29 :   0.3500 0.3500 0.2500  plane waves:     934
 k-point 30 :   0.4500 0.3500 0.2500  plane waves:     934
 k-point 31 :   0.4500 0.4500 0.2500  plane waves:     932
 k-point 32 :   0.3500 0.3500 0.3500  plane waves:     931
 k-point 33 :   0.4500 0.3500 0.3500  plane waves:     934
 k-point 34 :   0.4500 0.4500 0.3500  plane waves:     931
 k-point 35 :   0.4500 0.4500 0.4500  plane waves:     934

 maximum and minimum number of plane-waves per node :       244      216

 maximum number of plane-waves:       934
 maximum index in each direction: 
   IXMAX=    5   IYMAX=    5   IZMAX=    5
   IXMIN=   -6   IYMIN=   -6   IZMIN=   -6


 real space projection operators:
  total allocation   :       1814.34 KBytes
  max/ min on nodes  :        453.94        452.53


 parallel 3D FFT for wavefunctions:
    minimum data exchange during FFTs selected (reduces bandwidth)
 parallel 3D FFT for charge:
    minimum data exchange during FFTs selected (reduces bandwidth)


 total amount of memory used by VASP MPI-rank0    32827. kBytes
=======================================================================

   base      :      30000. kBytes
   nonlr-proj:        783. kBytes
   fftplans  :        262. kBytes
   grid      :        623. kBytes
   one-center:         31. kBytes
   wavefun   :       1128. kBytes
 
     INWAV:  cpu time    0.0000: real time    0.0001
 Broyden mixing: mesh for mixing (old mesh)
   NGX = 13   NGY = 13   NGZ = 13
  (NGX  = 48   NGY  = 48   NGZ  = 48)
  gives a total of   2197 points

 initial charge density was supplied:
 charge density of overlapping atoms calculated
 number of electron      28.0000000 magnetization      10.0000000
 keeping initial charge density in first step


--------------------------------------------------------------------------------------------------------


 Maximum index for non-local projection operator         1609
 Maximum index for augmentation-charges          805 (set IRDMAX)


--------------------------------------------------------------------------------------------------------


 First call to EWALD:  gamma=   0.624
 Maximum number of real-space cells 3x 3x 3
 Maximum number of reciprocal cells 3x 3x 3

    FEWALD:  cpu time    0.0013: real time    0.0013


--------------------------------------- Iteration      1(   1)  ---------------------------------------


    POTLOK:  cpu time    0.0079: real time    0.0114
    SETDIJ:  cpu time    0.0057: real time    0.0058
     EDDAV:  cpu time    0.4542: real time    0.4560
 BZINTS: Fermi energy: 20.930847; 28.000000 electrons
         Band energy: -90.255068;  BLOECHL correction: -0.089252
       DOS:  cpu time    0.0349: real time    0.0350
    --------------------------------------------
      LOOP:  cpu time    0.5028: real time    0.5081

 eigenvalue-minimisations  :  3480
 total energy-change (2. order) : 0.2321693E+03  (-0.2062761E+04)
 number of electron      28.0000000 magnetization      10.0000000
 augmentation part       28.0000000 magnetization      10.0000000

 Free energy of the ion-electron system (eV)
  ---------------------------------------------------
  alpha Z        PSCENC =       218.87048721
  Ewald energy   TEWEN  =     -3616.56080017
  -Hartree energ DENC   =     -1162.86386254
  -exchange      EXHF   =         0.00000000
  -V(xc)+E(xc)   XCENC  =       147.54621923
  PAW double counting   =      3997.93860218    -4177.34792201
  entropy T*S    EENTRO =         0.00000000
  eigenvalues    EBANDS =       -90.25506843
  atomic energy  EATOM  =      4914.84165872
  Solvation  Ediel_sol  =         0.00000000
  ---------------------------------------------------
  free energy    TOTEN  =       232.16931419 eV

  energy without entropy =      232.16931419  energy(sigma->0) =      232.16931419


--------------------------------------------------------------------------------------------------------




--------------------------------------- Iteration      1(   2)  ---------------------------------------


     EDDAV:  cpu time    0.4435: real time    0.4488
 BZINTS: Fermi energy: 12.198995; 28.000000 electrons
         Band energy:-331.962002;  BLOECHL correction: -0.071894
       DOS:  cpu time    0.0333: real time    0.0334
    --------------------------------------------
      LOOP:  cpu time    0.4768: real time    0.4822

 eigenvalue-minimisations  :  3432
 total energy-change (2. order) :-0.2417069E+03  (-0.2321498E+03)
 number of electron      28.0000000 magnetization      10.0000000
 augmentation part       28.0000000 magnetization      10.0000000

 Free energy of the ion-electron system (eV)
  ---------------------------------------------------
  alpha Z        PSCENC =       218.87048721
  Ewald energy   TEWEN  =     -3616.56080017
  -Hartree energ DENC   =     -1162.86386254
  -exchange      EXHF   =         0.00000000
  -V(xc)+E(xc)   XCENC  =       147.54621923
  PAW double counting   =      3997.93860218    -4177.34792201
  entropy T*S    EENTRO =         0.00000000
  eigenvalues    EBANDS =      -331.96200175
  atomic energy  EATOM  =      4914.84165872
  Solvation  Ediel_sol  =         0.00000000
  ---------------------------------------------------
  free energy    TOTEN  =        -9.53761913 eV

  energy without entropy =       -9.53761913  energy(sigma->0) =       -9.53761913


--------------------------------------------------------------------------------------------------------




--------------------------------------- Iteration      1(   3)  ---------------------------------------


     EDDAV:  cpu time    0.4708: real time    0.4723
 BZINTS: Fermi energy: 12.037172; 28.000000 electrons
         Band energy:-338.641468;  BLOECHL correction: -0.071291
       DOS:  cpu time    0.0279: real time    0.0280
    --------------------------------------------
      LOOP:  cpu time    0.4987: real time    0.5003

 eigenvalue-minimisations  :  3720
 total energy-change (2. order) :-0.6679466E+01  (-0.6667837E+01)
 number of electron      28.0000000 magnetization      10.0000000
 augmentation part       28.0000000 magnetization      10.0000000

 Free energy of the ion-electron system (eV)
  ---------------------------------------------------
  alpha Z        PSCENC =       218.87048721
  Ewald energy   TEWEN  =     -3616.56080017
  -Hartree energ DENC   =     -1162.86386254
  -exchange      EXHF   =         0.00000000
  -V(xc)+E(xc)   XCENC  =       147.54621923
  PAW double counting   =      3997.93860218    -4177.34792201
  entropy T*S    EENTRO =         0.00000000
  eigenvalues    EBANDS =      -338.64146797
  atomic energy  EATOM  =      4914.84165872
  Solvation  Ediel_sol  =         0.00000000
  ---------------------------------------------------
  free energy    TOTEN  =       -16.21708535 eV

  energy without entropy =      -16.21708535  energy(sigma->0) =      -16.21708535


--------------------------------------------------------------------------------------------------------




--------------------------------------- Iteration      1(   4)  ---------------------------------------


     EDDAV:  cpu time    0.4830: real time    0.4842
 BZINTS: Fermi energy: 12.036703; 28.000000 electrons
         Band energy:-338.697345;  BLOECHL correction: -0.071280
       DOS:  cpu time    0.0323: real time    0.0324
    --------------------------------------------
      LOOP:  cpu time    0.5153: real time    0.5166

 eigenvalue-minimisations  :  3816
 total energy-change (2. order) :-0.5587665E-01  (-0.5588162E-01)
 number of electron      28.0000000 magnetization      10.0000000
 augmentation part       28.0000000 magnetization      10.0000000

 Free energy of the ion-electron system (eV)
  ---------------------------------------------------
  alpha Z        PSCENC =       218.87048721
  Ewald energy   TEWEN  =     -3616.56080017
  -Hartree energ DENC   =     -1162.86386254
  -exchange      EXHF   =         0.00000000
  -V(xc)+E(xc)   XCENC  =       147.54621923
  PAW double counting   =      3997.93860218    -4177.34792201
  entropy T*S    EENTRO =         0.00000000
  eigenvalues    EBANDS =      -338.69734462
  atomic energy  EATOM  =      4914.84165872
  Solvation  Ediel_sol  =         0.00000000
  ---------------------------------------------------
  free energy    TOTEN  =       -16.27296200 eV

  energy without entropy =      -16.27296200  energy(sigma->0) =      -16.27296200


--------------------------------------------------------------------------------------------------------




--------------------------------------- Iteration      1(   5)  ---------------------------------------


     EDDAV:  cpu time    0.4707: real time    0.4719
 BZINTS: Fermi energy: 12.036701; 28.000000 electrons
         Band energy:-338.698388;  BLOECHL correction: -0.071280
       DOS:  cpu time    0.0279: real time    0.0279
    CHARGE:  cpu time    0.0150: real time    0.0151
    MIXING:  cpu time    0.0005: real time    0.0006
    --------------------------------------------
      LOOP:  cpu time    0.5141: real time    0.5155

 eigenvalue-minimisations  :  3732
 total energy-change (2. order) :-0.1043438E-02  (-0.1043475E-02)
 number of electron      28.0000000 magnetization       4.3576257
 augmentation part       15.9043419 magnetization       2.8337335

 Broyden mixing:
  rms(total) = 0.24989E+01    rms(broyden)= 0.24989E+01
  rms(prec ) = 0.39512E+01
  weight for this iteration     100.00

 Free energy of the ion-electron system (eV)
  ---------------------------------------------------
  alpha Z        PSCENC =       218.87048721
  Ewald energy   TEWEN  =     -3616.56080017
  -Hartree energ DENC   =     -1162.86386254
  -exchange      EXHF   =         0.00000000
  -V(xc)+E(xc)   XCENC  =       147.54621923
  PAW double counting   =      3997.93860218    -4177.34792201
  entropy T*S    EENTRO =         0.00000000
  eigenvalues    EBANDS =      -338.69838806
  atomic energy  EATOM  =      4914.84165872
  Solvation  Ediel_sol  =         0.00000000
  ---------------------------------------------------
  free energy    TOTEN  =       -16.27400544 eV

  energy without entropy =      -16.27400544  energy(sigma->0) =      -16.27400544


--------------------------------------------------------------------------------------------------------




--------------------------------------- Iteration      1(   6)  ---------------------------------------


    POTLOK:  cpu time    0.0059: real time    0.0060
    SETDIJ:  cpu time    0.0051: real time    0.0051
     EDDAV:  cpu time    0.4403: real time    0.4413
 BZINTS: Fermi energy:  9.265616; 28.000000 electrons
         Band energy:-409.588947;  BLOECHL correction: -0.036200
       DOS:  cpu time    0.0339: real time    0.0340
    CHARGE:  cpu time    0.0150: real time    0.0150
    MIXING:  cpu time    0.0005: real time    0.0005
    --------------------------------------------
      LOOP:  cpu time    0.5008: real time    0.5021

 eigenvalue-minimisations  :  3420
 total energy-change (2. order) :-0.1837092E+00  (-0.7492824E+00)
 number of electron      27.9999999 magnetization       4.5322206
 augmentation part       17.0678103 magnetization       3.5498812

 Broyden mixing:
  rms(total) = 0.69114E+00    rms(broyden)= 0.69114E+00
  rms(prec ) = 0.86638E+00
  weight for this iteration     100.00

 eigenvalues of (default mixing * dielectric matrix)
  average eigenvalue GAMMA=   0.8370
  0.8370

 Free energy of the ion-electron system (eV)
  ---------------------------------------------------
  alpha Z        PSCENC =       218.87048721
  Ewald energy   TEWEN  =     -3616.56080017
  -Hartree energ DENC   =     -1089.08694449
  -exchange      EXHF   =         0.00000000
  -V(xc)+E(xc)   XCENC  =       140.63846884
  PAW double counting   =      4113.79752533    -4289.36916294
  entropy T*S    EENTRO =         0.00000000
  eigenvalues    EBANDS =      -409.58894711
  atomic energy  EATOM  =      4914.84165872
  Solvation  Ediel_sol  =         0.00000000
  ---------------------------------------------------
  free energy    TOTEN  =       -16.45771462 eV

  energy without entropy =      -16.45771462  energy(sigma->0) =      -16.45771462


--------------------------------------------------------------------------------------------------------




--------------------------------------- Iteration      1(   7)  ---------------------------------------


    POTLOK:  cpu time    0.0063: real time    0.0066
    SETDIJ:  cpu time    0.0050: real time    0.0051
     EDDAV:  cpu time    0.4320: real time    0.4330
 BZINTS: Fermi energy:  9.762134; 28.000000 electrons
         Band energy:-395.203937;  BLOECHL correction: -0.033726
       DOS:  cpu time    0.0330: real time    0.0330
    CHARGE:  cpu time    0.0146: real time    0.0146
    MIXING:  cpu time    0.0003: real time    0.0003
    --------------------------------------------
      LOOP:  cpu time    0.4912: real time    0.4927

 eigenvalue-minimisations  :  3408
 total energy-change (2. order) :-0.5461031E-01  (-0.6146707E-01)
 number of electron      27.9999999 magnetization       4.4439141
 augmentation part       16.7742380 magnetization       3.5268212

 Broyden mixing:
  rms(total) = 0.43072E+00    rms(broyden)= 0.43072E+00
  rms(prec ) = 0.52581E+00
  weight for this iteration     100.00

 eigenvalues of (default mixing * dielectric matrix)
  average eigenvalue GAMMA=   0.7673
  0.9881  0.5466

 Free energy of the ion-electron system (eV)
  ---------------------------------------------------
  alpha Z        PSCENC =       218.87048721
  Ewald energy   TEWEN  =     -3616.56080017
  -Hartree energ DENC   =     -1099.07978524
  -exchange      EXHF   =         0.00000000
  -V(xc)+E(xc)   XCENC  =       141.33128043
  PAW double counting   =      4219.74311780    -4400.45434704
  entropy T*S    EENTRO =         0.00000000
  eigenvalues    EBANDS =      -395.20393664
  atomic energy  EATOM  =      4914.84165872
  Solvation  Ediel_sol  =         0.00000000
  ---------------------------------------------------
  free energy    TOTEN  =       -16.51232493 eV

  energy without entropy =      -16.51232493  energy(sigma->0) =      -16.51232493


--------------------------------------------------------------------------------------------------------




--------------------------------------- Iteration      1(   8)  ---------------------------------------


    POTLOK:  cpu time    0.0059: real time    0.0060
    SETDIJ:  cpu time    0.0048: real time    0.0048
     EDDAV:  cpu time    0.4696: real time    0.4707
 BZINTS: Fermi energy:  9.688576; 28.000000 electrons
         Band energy:-397.468812;  BLOECHL correction: -0.033981
       DOS:  cpu time    0.0321: real time    0.0321
    CHARGE:  cpu time    0.0143: real time    0.0143
    MIXING:  cpu time    0.0003: real time    0.0003
    --------------------------------------------
      LOOP:  cpu time    0.5270: real time    0.5283

 eigenvalue-minimisations  :  3720
 total energy-change (2. order) :-0.9698870E-02  (-0.1510245E-02)
 number of electron      27.9999999 magnetization       4.3700469
 augmentation part       16.8103423 magnetization       3.4531950

 Broyden mixing:
  rms(total) = 0.13690E+00    rms(broyden)= 0.13690E+00
  rms(prec ) = 0.21418E+00
  weight for this iteration     100.00

 eigenvalues of (default mixing * dielectric matrix)
  average eigenvalue GAMMA=   1.0474
  1.6985  0.8570  0.5868

 Free energy of the ion-electron system (eV)
  ---------------------------------------------------
  alpha Z        PSCENC =       218.87048721
  Ewald energy   TEWEN  =     -3616.56080017
  -Hartree energ DENC   =     -1095.16458462
  -exchange      EXHF   =         0.00000000
  -V(xc)+E(xc)   XCENC  =       141.10731430
  PAW double counting   =      4267.75874429    -4449.90603202
  entropy T*S    EENTRO =         0.00000000
  eigenvalues    EBANDS =      -397.46881152
  atomic energy  EATOM  =      4914.84165872
  Solvation  Ediel_sol  =         0.00000000
  ---------------------------------------------------
  free energy    TOTEN  =       -16.52202380 eV

  energy without entropy =      -16.52202380  energy(sigma->0) =      -16.52202380


--------------------------------------------------------------------------------------------------------




--------------------------------------- Iteration      1(   9)  ---------------------------------------


    POTLOK:  cpu time    0.0059: real time    0.0060
    SETDIJ:  cpu time    0.0048: real time    0.0048
     EDDAV:  cpu time    0.4652: real time    0.4663
 BZINTS: Fermi energy:  9.610432; 28.000000 electrons
         Band energy:-399.759507;  BLOECHL correction: -0.034533
       DOS:  cpu time    0.0294: real time    0.0295
    CHARGE:  cpu time    0.0185: real time    0.0185
    MIXING:  cpu time    0.0004: real time    0.0004
    --------------------------------------------
      LOOP:  cpu time    0.5241: real time    0.5255

 eigenvalue-minimisations  :  3696
 total energy-change (2. order) : 0.8285105E-02  (-0.5219560E-03)
 number of electron      27.9999999 magnetization       4.4018731
 augmentation part       16.8465167 magnetization       3.4831091

 Broyden mixing:
  rms(total) = 0.33687E-01    rms(broyden)= 0.33687E-01
  rms(prec ) = 0.45934E-01
  weight for this iteration     100.00

 eigenvalues of (default mixing * dielectric matrix)
  average eigenvalue GAMMA=   1.1854
  2.3389  1.0620  0.6994  0.6413

 Free energy of the ion-electron system (eV)
  ---------------------------------------------------
  alpha Z        PSCENC =       218.87048721
  Ewald energy   TEWEN  =     -3616.56080017
  -Hartree energ DENC   =     -1090.25645856
  -exchange      EXHF   =         0.00000000
  -V(xc)+E(xc)   XCENC  =       140.86412768
  PAW double counting   =      4344.24037502    -4528.75362180
  entropy T*S    EENTRO =         0.00000000
  eigenvalues    EBANDS =      -399.75950680
  atomic energy  EATOM  =      4914.84165872
  Solvation  Ediel_sol  =         0.00000000
  ---------------------------------------------------
  free energy    TOTEN  =       -16.51373870 eV

  energy without entropy =      -16.51373870  energy(sigma->0) =      -16.51373870


--------------------------------------------------------------------------------------------------------




--------------------------------------- Iteration      1(  10)  ---------------------------------------


    POTLOK:  cpu time    0.0059: real time    0.0060
    SETDIJ:  cpu time    0.0048: real time    0.0048
     EDDAV:  cpu time    0.4352: real time    0.4363
 BZINTS: Fermi energy:  9.624852; 28.000000 electrons
         Band energy:-399.218683;  BLOECHL correction: -0.034691
       DOS:  cpu time    0.0329: real time    0.0330
    CHARGE:  cpu time    0.0147: real time    0.0147
    MIXING:  cpu time    0.0004: real time    0.0004
    --------------------------------------------
      LOOP:  cpu time    0.4939: real time    0.4952

 eigenvalue-minimisations  :  3444
 total energy-change (2. order) : 0.1993748E-03  (-0.2237074E-03)
 number of electron      27.9999999 magnetization       4.4066391
 augmentation part       16.8345240 magnetization       3.4851171

 Broyden mixing:
  rms(total) = 0.44173E-02    rms(broyden)= 0.44173E-02
  rms(prec ) = 0.54547E-02
  weight for this iteration     100.00

 eigenvalues of (default mixing * dielectric matrix)
  average eigenvalue GAMMA=   1.1291
  2.4315  1.0999  0.7831  0.6970  0.6338

 Free energy of the ion-electron system (eV)
  ---------------------------------------------------
  alpha Z        PSCENC =       218.87048721
  Ewald energy   TEWEN  =     -3616.56080017
  -Hartree energ DENC   =     -1089.87176508
  -exchange      EXHF   =         0.00000000
  -V(xc)+E(xc)   XCENC  =       140.87152850
  PAW double counting   =      4373.04005702    -4558.48602241
  entropy T*S    EENTRO =         0.00000000
  eigenvalues    EBANDS =      -399.21868311
  atomic energy  EATOM  =      4914.84165872
  Solvation  Ediel_sol  =         0.00000000
  ---------------------------------------------------
  free energy    TOTEN  =       -16.51353932 eV

  energy without entropy =      -16.51353932  energy(sigma->0) =      -16.51353932


--------------------------------------------------------------------------------------------------------




--------------------------------------- Iteration      1(  11)  ---------------------------------------


    POTLOK:  cpu time    0.0059: real time    0.0060
    SETDIJ:  cpu time    0.0048: real time    0.0048
     EDDAV:  cpu time    0.4519: real time    0.4530
 BZINTS: Fermi energy:  9.623285; 28.000000 electrons
         Band energy:-399.251057;  BLOECHL correction: -0.034708
       DOS:  cpu time    0.0338: real time    0.0339
    CHARGE:  cpu time    0.0148: real time    0.0148
    MIXING:  cpu time    0.0004: real time    0.0004
    --------------------------------------------
      LOOP:  cpu time    0.5116: real time    0.5129

 eigenvalue-minimisations  :  3576
 total energy-change (2. order) :-0.5991176E-04  (-0.5005299E-05)
 number of electron      27.9999999 magnetization       4.4060354
 augmentation part       16.8350784 magnetization       3.4847740

 Broyden mixing:
  rms(total) = 0.24202E-02    rms(broyden)= 0.24202E-02
  rms(prec ) = 0.32666E-02
  weight for this iteration     100.00

 eigenvalues of (default mixing * dielectric matrix)
  average eigenvalue GAMMA=   1.2964
  2.3086  2.3086  1.0750  0.6331  0.7557  0.6976

 Free energy of the ion-electron system (eV)
  ---------------------------------------------------
  alpha Z        PSCENC =       218.87048721
  Ewald energy   TEWEN  =     -3616.56080017
  -Hartree energ DENC   =     -1089.86413537
  -exchange      EXHF   =         0.00000000
  -V(xc)+E(xc)   XCENC  =       140.87384008
  PAW double counting   =      4374.25471034    -4559.67830269
  entropy T*S    EENTRO =         0.00000000
  eigenvalues    EBANDS =      -399.25105735
  atomic energy  EATOM  =      4914.84165872
  Solvation  Ediel_sol  =         0.00000000
  ---------------------------------------------------
  free energy    TOTEN  =       -16.51359923 eV

  energy without entropy =      -16.51359923  energy(sigma->0) =      -16.51359923


--------------------------------------------------------------------------------------------------------




--------------------------------------- Iteration      1(  12)  ---------------------------------------


    POTLOK:  cpu time    0.0059: real time    0.0060
    SETDIJ:  cpu time    0.0048: real time    0.0048
     EDDAV:  cpu time    0.4941: real time    0.4953
 BZINTS: Fermi energy:  9.621751; 28.000000 electrons
         Band energy:-399.285568;  BLOECHL correction: -0.034721
       DOS:  cpu time    0.0338: real time    0.0339
    CHARGE:  cpu time    0.0149: real time    0.0149
    MIXING:  cpu time    0.0005: real time    0.0005
    --------------------------------------------
      LOOP:  cpu time    0.5540: real time    0.5554

 eigenvalue-minimisations  :  3876
 total energy-change (2. order) :-0.8173783E-05  (-0.5009399E-06)
 number of electron      27.9999999 magnetization       4.4057662
 augmentation part       16.8357930 magnetization       3.4847727

 Broyden mixing:
  rms(total) = 0.95578E-03    rms(broyden)= 0.95578E-03
  rms(prec ) = 0.13587E-02
  weight for this iteration     100.00

 eigenvalues of (default mixing * dielectric matrix)
  average eigenvalue GAMMA=   1.2319
  2.3895  2.3895  1.0836  0.7901  0.7164  0.6269  0.6269

 Free energy of the ion-electron system (eV)
  ---------------------------------------------------
  alpha Z        PSCENC =       218.87048721
  Ewald energy   TEWEN  =     -3616.56080017
  -Hartree energ DENC   =     -1089.91572303
  -exchange      EXHF   =         0.00000000
  -V(xc)+E(xc)   XCENC  =       140.87651638
  PAW double counting   =      4375.32480423    -4560.66498274
  entropy T*S    EENTRO =         0.00000000
  eigenvalues    EBANDS =      -399.28556801
  atomic energy  EATOM  =      4914.84165872
  Solvation  Ediel_sol  =         0.00000000
  ---------------------------------------------------
  free energy    TOTEN  =       -16.51360741 eV

  energy without entropy =      -16.51360741  energy(sigma->0) =      -16.51360741


--------------------------------------------------------------------------------------------------------




--------------------------------------- Iteration      1(  13)  ---------------------------------------


    POTLOK:  cpu time    0.0063: real time    0.0067
    SETDIJ:  cpu time    0.0050: real time    0.0050
     EDDAV:  cpu time    0.4474: real time    0.4485
 BZINTS: Fermi energy:  9.622358; 28.000000 electrons
         Band energy:-399.273031;  BLOECHL correction: -0.034713
       DOS:  cpu time    0.0338: real time    0.0339
    CHARGE:  cpu time    0.0148: real time    0.0148
    MIXING:  cpu time    0.0005: real time    0.0005
    --------------------------------------------
      LOOP:  cpu time    0.5078: real time    0.5094

 eigenvalue-minimisations  :  3540
 total energy-change (2. order) : 0.6738800E-05  (-0.1298996E-06)
 number of electron      27.9999999 magnetization       4.4055673
 augmentation part       16.8354888 magnetization       3.4844631

 Broyden mixing:
  rms(total) = 0.25043E-03    rms(broyden)= 0.25043E-03
  rms(prec ) = 0.34302E-03
  weight for this iteration     100.00

 eigenvalues of (default mixing * dielectric matrix)
  average eigenvalue GAMMA=   1.2901
  2.5174  2.4448  1.4849  1.0644  0.8083  0.6259  0.6874  0.6874

 Free energy of the ion-electron system (eV)
  ---------------------------------------------------
  alpha Z        PSCENC =       218.87048721
  Ewald energy   TEWEN  =     -3616.56080017
  -Hartree energ DENC   =     -1089.92271260
  -exchange      EXHF   =         0.00000000
  -V(xc)+E(xc)   XCENC  =       140.87641038
  PAW double counting   =      4375.44878393    -4560.79439678
  entropy T*S    EENTRO =         0.00000000
  eigenvalues    EBANDS =      -399.27303137
  atomic energy  EATOM  =      4914.84165872
  Solvation  Ediel_sol  =         0.00000000
  ---------------------------------------------------
  free energy    TOTEN  =       -16.51360067 eV

  energy without entropy =      -16.51360067  energy(sigma->0) =      -16.51360067


--------------------------------------------------------------------------------------------------------




--------------------------------------- Iteration      1(  14)  ---------------------------------------


    POTLOK:  cpu time    0.0059: real time    0.0061
    SETDIJ:  cpu time    0.0048: real time    0.0048
     EDDAV:  cpu time    0.3726: real time    0.3735
 BZINTS: Fermi energy:  9.622602; 28.000000 electrons
         Band energy:-399.268093;  BLOECHL correction: -0.034711
       DOS:  cpu time    0.0338: real time    0.0339
    CHARGE:  cpu time    0.0147: real time    0.0148
    MIXING:  cpu time    0.0005: real time    0.0005
    --------------------------------------------
      LOOP:  cpu time    0.4323: real time    0.4335

 eigenvalue-minimisations  :  2688
 total energy-change (2. order) : 0.1573078E-05  (-0.1564603E-07)
 number of electron      27.9999999 magnetization       4.4055844
 augmentation part       16.8353727 magnetization       3.4844462

 Broyden mixing:
  rms(total) = 0.65742E-04    rms(broyden)= 0.65740E-04
  rms(prec ) = 0.85834E-04
  weight for this iteration     100.00

 eigenvalues of (default mixing * dielectric matrix)
  average eigenvalue GAMMA=   1.2118
  2.6075  2.4648  1.2911  1.0506  0.8266  0.6326  0.6628  0.6852  0.6852

 Free energy of the ion-electron system (eV)
  ---------------------------------------------------
  alpha Z        PSCENC =       218.87048721
  Ewald energy   TEWEN  =     -3616.56080017
  -Hartree energ DENC   =     -1089.92518714
  -exchange      EXHF   =         0.00000000
  -V(xc)+E(xc)   XCENC  =       140.87624563
  PAW double counting   =      4375.44996067    -4560.79787066
  entropy T*S    EENTRO =         0.00000000
  eigenvalues    EBANDS =      -399.26809337
  atomic energy  EATOM  =      4914.84165872
  Solvation  Ediel_sol  =         0.00000000
  ---------------------------------------------------
  free energy    TOTEN  =       -16.51359910 eV

  energy without entropy =      -16.51359910  energy(sigma->0) =      -16.51359910


--------------------------------------------------------------------------------------------------------




--------------------------------------- Iteration      1(  15)  ---------------------------------------


    POTLOK:  cpu time    0.0059: real time    0.0060
    SETDIJ:  cpu time    0.0048: real time    0.0048
     EDDAV:  cpu time    0.2867: real time    0.2874
 BZINTS: Fermi energy:  9.622568; 28.000000 electrons
         Band energy:-399.269001;  BLOECHL correction: -0.034711
       DOS:  cpu time    0.0329: real time    0.0330
    --------------------------------------------
      LOOP:  cpu time    0.3303: real time    0.3312

 eigenvalue-minimisations  :  1752
 total energy-change (2. order) :-0.1108674E-07  (-0.1115239E-08)
 number of electron      27.9999999 magnetization       4.4055844
 augmentation part       16.8353727 magnetization       3.4844462

 Free energy of the ion-electron system (eV)
  ---------------------------------------------------
  alpha Z        PSCENC =       218.87048721
  Ewald energy   TEWEN  =     -3616.56080017
  -Hartree energ DENC   =     -1089.92480194
  -exchange      EXHF   =         0.00000000
  -V(xc)+E(xc)   XCENC  =       140.87627708
  PAW double counting   =      4375.44537787    -4560.79279657
  entropy T*S    EENTRO =         0.00000000
  eigenvalues    EBANDS =      -399.26900130
  atomic energy  EATOM  =      4914.84165872
  Solvation  Ediel_sol  =         0.00000000
  ---------------------------------------------------
  free energy    TOTEN  =       -16.51359911 eV

  energy without entropy =      -16.51359911  energy(sigma->0) =      -16.51359911


--------------------------------------------------------------------------------------------------------




 average (electrostatic) potential at core
  the test charge radii are     0.9500
  (the norm of the test charge is              1.0000)
       1 -73.6650       2 -73.6650
 
 
 
 E-fermi :   9.6226     XC(G=0): -13.6242     alpha+bet :-17.4163


 spin component 1

 k-point     1 :       0.0500    0.0500    0.0500
  band No.  band energies     occupation 
      1     -44.5603      1.00000
      2     -44.5603      1.00000
      3     -44.5461      1.00000
      4     -44.2892      1.00000
      5     -44.2745      1.00000
      6     -44.2745      1.00000
      7       1.3979      1.00000
      8       4.9384      1.00000
      9       4.9384      1.00000
     10       7.3048      1.00000
     11       7.3048      1.00000
     12       7.4309      1.00000
     13       8.5804      1.00000
     14       8.5804      1.00000
     15       9.4946      1.00000
     16       9.6869      0.60103
     17       9.6869      0.00981
     18      19.1994      0.00000
     19      19.1994      0.00000
     20      19.4414      0.00000
     21      25.8101      0.00000
     22      25.8101      0.00000
     23      30.6974      0.00000
     24      33.3488      0.00000

 k-point     2 :       0.1500    0.0500    0.0500
  band No.  band energies     occupation 
      1     -44.5664      1.00000
      2     -44.5456      1.00000
      3     -44.5240      1.00000
      4     -44.3210      1.00000
      5     -44.2877      1.00000
      6     -44.2800      1.00000
      7       1.8015      1.00000
      8       5.1063      1.00000
      9       5.1085      1.00000
     10       7.2463      1.00000
     11       7.2946      1.00000
     12       7.5991      1.00000
     13       8.4142      1.00000
     14       8.6553      1.00000
     15       9.1039      1.00000
     16       9.3724      1.02105
     17       9.6655      0.13632
     18      17.0986      0.00000
     19      19.9183      0.00000
     20      20.0955      0.00000
     21      25.9617      0.00000
     22      27.1438      0.00000
     23      31.5525      0.00000
     24      32.1499      0.00000

 k-point     3 :       0.2500    0.0500    0.0500
  band No.  band energies     occupation 
      1     -44.5636      1.00000
      2     -44.5177      1.00000
      3     -44.4932      1.00000
      4     -44.3688      1.00000
      5     -44.3131      1.00000
      6     -44.3001      1.00000
      7       2.5670      1.00000
      8       5.3676      1.00000
      9       5.4276      1.00000
     10       7.2424      1.00000
     11       7.2874      1.00000
     12       7.8416      1.00000
     13       8.1079      1.00000
     14       8.6066      1.00000
     15       8.7946      1.00000
     16       8.8889      1.00000
     17       9.4857      1.03938
     18      14.5754      0.00000
     19      21.1875      0.00000
     20      21.3583      0.00000
     21      26.2943      0.00000
     22      27.9717      0.00000
     23      29.6287      0.00000
     24      31.2959      0.00000

 k-point     4 :       0.3500    0.0500    0.0500
  band No.  band energies     occupation 
      1     -44.5490      1.00000
      2     -44.4799      1.00000
      3     -44.4552      1.00000
      4     -44.4241      1.00000
      5     -44.3484      1.00000
      6     -44.3314      1.00000
      7       3.5891      1.00000
      8       5.5402      1.00000
      9       5.8726      1.00000
     10       7.2458      1.00000
     11       7.3213      1.00000
     12       7.7680      1.00000
     13       8.1303      1.00000
     14       8.1502      1.00000
     15       8.3928      1.00000
     16       9.0191      1.00000
     17       9.2002      1.03864
     18      12.2830      0.00000
     19      22.7943      0.00000
     20      23.0071      0.00000
     21      26.8753      0.00000
     22      27.8747      0.00000
     23      28.6104      0.00000
     24      29.1473      0.00000

 k-point     5 :       0.4500    0.0500    0.0500
  band No.  band energies     occupation 
      1     -44.5203      1.00000
      2     -44.4772      1.00000
      3     -44.4360      1.00000
      4     -44.4130      1.00000
      5     -44.3907      1.00000
      6     -44.3704      1.00000
      7       4.6409      1.00000
      8       5.3581      1.00000
      9       6.3948      1.00000
     10       6.9175      1.00000
     11       7.4991      1.00000
     12       7.7311      1.00000
     13       7.7625      1.00000
     14       7.9855      1.00000
     15       8.4990      1.00000
     16       8.8573      1.00000
     17       9.4831      0.98553
     18      10.5195      0.00000
     19      24.5321      0.00000
     20      24.9044      0.00000
     21      26.2265      0.00000
     22      26.9670      0.00000
     23      27.8210      0.00000
     24      29.2506      0.00000

 k-point     6 :       0.1500    0.1500    0.0500
  band No.  band energies     occupation 
      1     -44.5804      1.00000
      2     -44.5368      1.00000
      3     -44.4916      1.00000
      4     -44.3625      1.00000
      5     -44.2980      1.00000
      6     -44.2746      1.00000
      7       2.1894      1.00000
      8       5.2392      1.00000
      9       5.2980      1.00000
     10       7.0937      1.00000
     11       7.2374      1.00000
     12       7.8699      1.00000
     13       8.4386      1.00000
     14       8.6105      1.00000
     15       8.6245      1.00000
     16       9.1495      1.00690
     17       9.7346      0.03150
     18      17.1957      0.00000
     19      18.2808      0.00000
     20      20.6506      0.00000
     21      26.6282      0.00000
     22      28.5391      0.00000
     23      29.9219      0.00000
     24      31.9694      0.00000

 k-point     7 :       0.2500    0.1500    0.0500
  band No.  band energies     occupation 
      1     -44.5897      1.00000
      2     -44.5112      1.00000
      3     -44.4538      1.00000
      4     -44.4172      1.00000
      5     -44.3209      1.00000
      6     -44.2820      1.00000
      7       2.9157      1.00000
      8       5.4555      1.00000
      9       5.6207      1.00000
     10       6.9882      1.00000
     11       7.1824      1.00000
     12       8.1057      1.00000
     13       8.2001      1.00000
     14       8.2825      1.00000
     15       8.7215      1.00000
     16       8.7243      1.00000
     17       9.6884      0.28940
     18      14.9836      0.00000
     19      19.0118      0.00000
     20      21.7954      0.00000
     21      27.0198      0.00000
     22      27.7476      0.00000
     23      29.9238      0.00000
     24      30.6411      0.00000

 k-point     8 :       0.3500    0.1500    0.0500
  band No.  band energies     occupation 
      1     -44.5856      1.00000
      2     -44.4757      1.00000
      3     -44.4750      1.00000
      4     -44.4131      1.00000
      5     -44.3534      1.00000
      6     -44.3030      1.00000
      7       3.8579      1.00000
      8       5.5955      1.00000
      9       6.0117      1.00000
     10       6.9645      1.00000
     11       7.1189      1.00000
     12       7.6670      1.00000
     13       8.0931      1.00000
     14       8.3376      1.00000
     15       8.5642      1.00000
     16       8.9632      1.00000
     17       9.4967      0.92404
     18      12.6530      0.00000
     19      20.3759      0.00000
     20      23.3118      0.00000
     21      25.6603      0.00000
     22      27.5889      0.00000
     23      28.7790      0.00000
     24      30.9262      0.00000

 k-point     9 :       0.4500    0.1500    0.0500
  band No.  band energies     occupation 
      1     -44.5646      1.00000
      2     -44.5266      1.00000
      3     -44.4347      1.00000
      4     -44.3925      1.00000
      5     -44.3722      1.00000
      6     -44.3342      1.00000
      7       4.7817      1.00000
      8       5.4045      1.00000
      9       6.4367      1.00000
     10       6.8150      1.00000
     11       7.1497      1.00000
     12       7.3556      1.00000
     13       8.0549      1.00000
     14       8.1285      1.00000
     15       8.8892      1.00000
     16       9.2080      1.00000
     17       9.5411      0.77864
     18      10.7642      0.00000
     19      21.9647      0.00000
     20      23.7291      0.00000
     21      25.0471      0.00000
     22      26.8829      0.00000
     23      28.4944      0.00000
     24      29.8472      0.00000

 k-point    10 :       0.2500    0.2500    0.0500
  band No.  band energies     occupation 
      1     -44.6128      1.00000
      2     -44.4905      1.00000
      3     -44.4769      1.00000
      4     -44.4108      1.00000
      5     -44.3387      1.00000
      6     -44.2747      1.00000
      7       3.5387      1.00000
      8       5.5105      1.00000
      9       6.0142      1.00000
     10       6.7714      1.00000
     11       7.1537      1.00000
     12       7.5987      1.00000
     13       8.4262      1.00000
     14       8.4287      1.00000
     15       8.6229      1.00000
     16       8.6648      1.00000
     17       9.8078     -0.03389
     18      14.8628      0.00000
     19      17.4656      0.00000
     20      22.7545      0.00000
     21      25.3833      0.00000
     22      27.3661      0.00000
     23      30.0594      0.00000
     24      32.3850      0.00000

 k-point    11 :       0.3500    0.2500    0.0500
  band No.  band energies     occupation 
      1     -44.6220      1.00000
      2     -44.5351      1.00000
      3     -44.4617      1.00000
      4     -44.3693      1.00000
      5     -44.3640      1.00000
      6     -44.2819      1.00000
      7       4.2635      1.00000
      8       5.4678      1.00000
      9       6.4673      1.00000
     10       6.6640      1.00000
     11       7.1893      1.00000
     12       7.2435      1.00000
     13       8.2727      1.00000
     14       8.4045      1.00000
     15       8.8096      1.00000
     16       9.0697      1.02187
     17       9.7579      0.00402
     18      13.0480      0.00000
     19      18.1033      0.00000
     20      23.1677      0.00000
     21      24.0660      0.00000
     22      27.8479      0.00000
     23      28.7850      0.00000
     24      31.4417      0.00000

 k-point    12 :       0.4500    0.2500    0.0500
  band No.  band energies     occupation 
      1     -44.6124      1.00000
      2     -44.5825      1.00000
      3     -44.4286      1.00000
      4     -44.3949      1.00000
      5     -44.3321      1.00000
      6     -44.3020      1.00000
      7       4.8666      1.00000
      8       5.2597      1.00000
      9       6.6823      1.00000
     10       6.7709      1.00000
     11       7.0121      1.00000
     12       7.2242      1.00000
     13       8.3124      1.00000
     14       8.3953      1.00000
     15       9.1810      1.00000
     16       9.5467      0.95178
     17       9.7286      0.02985
     18      11.1092      0.00000
     19      19.4886      0.00000
     20      21.1929      0.00000
     21      25.5956      0.00000
     22      27.2067      0.00000
     23      28.6468      0.00000
     24      29.8690      0.00000

 k-point    13 :       0.3500    0.3500    0.0500
  band No.  band energies     occupation 
      1     -44.6451      1.00000
      2     -44.5896      1.00000
      3     -44.4424      1.00000
      4     -44.3795      1.00000
      5     -44.3310      1.00000
      6     -44.2748      1.00000
      7       4.6032      1.00000
      8       5.2501      1.00000
      9       6.4672      1.00000
     10       6.7901      1.00000
     11       7.0688      1.00000
     12       7.8004      1.00000
     13       8.3288      1.00000
     14       8.5818      1.00000
     15       8.7312      1.00000
     16       9.5044      0.96290
     17       9.8583     -0.00497
     18      12.6723      0.00000
     19      17.0752      0.00000
     20      20.9324      0.00000
     21      25.1100      0.00000
     22      28.2077      0.00000
     23      28.4079      0.00000
     24      30.7488      0.00000

 k-point    14 :       0.4500    0.3500    0.0500
  band No.  band energies     occupation 
      1     -44.6485      1.00000
      2     -44.6294      1.00000
      3     -44.4206      1.00000
      4     -44.3989      1.00000
      5     -44.3011      1.00000
      6     -44.2817      1.00000
      7       4.8277      1.00000
      8       5.0274      1.00000
      9       6.4159      1.00000
     10       6.5253      1.00000
     11       7.6335      1.00000
     12       8.0155      1.00000
     13       8.4770      1.00000
     14       8.6082      1.00000
     15       9.2343      1.00000
     16       9.7474      0.31708
     17      10.0489      0.00000
     18      11.2872      0.00000
     19      17.6521      0.00000
     20      19.0563      0.00000
     21      26.3160      0.00000
     22      27.4990      0.00000
     23      28.8182      0.00000
     24      29.7270      0.00000

 k-point    15 :       0.4500    0.4500    0.0500
  band No.  band energies     occupation 
      1     -44.6651      1.00000
      2     -44.6585      1.00000
      3     -44.4122      1.00000
      4     -44.4047      1.00000
      5     -44.2816      1.00000
      6     -44.2749      1.00000
      7       4.7956      1.00000
      8       4.8570      1.00000
      9       6.2866      1.00000
     10       6.3242      1.00000
     11       8.3604      1.00000
     12       8.5982      1.00000
     13       8.6193      1.00000
     14       8.7801      1.00000
     15       9.2762      1.00000
     16       9.7024      0.28335
     17      10.4350      0.00000
     18      10.9855      0.00000
     19      16.9428      0.00000
     20      17.5289      0.00000
     21      27.0343      0.00000
     22      27.4878      0.00000
     23      29.0847      0.00000
     24      29.4297      0.00000

 k-point    16 :       0.1500    0.1500    0.1500
  band No.  band energies     occupation 
      1     -44.5647      1.00000
      2     -44.5647      1.00000
      3     -44.4558      1.00000
      4     -44.4000      1.00000
      5     -44.2887      1.00000
      6     -44.2887      1.00000
      7       2.5666      1.00000
      8       5.4265      1.00000
      9       5.4265      1.00000
     10       7.0362      1.00000
     11       7.0362      1.00000
     12       8.0860      1.00000
     13       8.1861      1.00000
     14       8.5281      1.00000
     15       8.5281      1.00000
     16       9.4248      0.99979
     17       9.4248      1.11247
     18      17.8410      0.00000
     19      17.8410      0.00000
     20      19.2369      0.00000
     21      28.7873      0.00000
     22      28.7873      0.00000
     23      29.7385      0.00000
     24      29.7385      0.00000

 k-point    17 :       0.2500    0.1500    0.1500
  band No.  band energies     occupation 
      1     -44.5849      1.00000
      2     -44.5350      1.00000
      3     -44.4514      1.00000
      4     -44.4177      1.00000
      5     -44.3160      1.00000
      6     -44.2882      1.00000
      7       3.2654      1.00000
      8       5.6657      1.00000
      9       5.6998      1.00000
     10       6.9037      1.00000
     11       6.9350      1.00000
     12       7.5733      1.00000
     13       8.3823      1.00000
     14       8.5850      1.00000
     15       8.6826      1.00000
     16       8.9719      1.00000
     17       9.5062      0.95278
     18      15.4699      0.00000
     19      18.9549      0.00000
     20      19.8767      0.00000
     21      27.5255      0.00000
     22      28.5414      0.00000
     23      29.3029      0.00000
     24      30.5090      0.00000

 k-point    18 :       0.3500    0.1500    0.1500
  band No.  band energies     occupation 
      1     -44.5911      1.00000
      2     -44.5043      1.00000
      3     -44.4945      1.00000
      4     -44.3808      1.00000
      5     -44.3539      1.00000
      6     -44.2988      1.00000
      7       4.1486      1.00000
      8       5.8193      1.00000
      9       5.9789      1.00000
     10       6.7954      1.00000
     11       6.9294      1.00000
     12       7.2680      1.00000
     13       8.2261      1.00000
     14       8.5459      1.00000
     15       8.8082      1.00000
     16       9.1279      1.00000
     17       9.4066      0.92708
     18      13.1242      0.00000
     19      20.3545      0.00000
     20      21.0650      0.00000
     21      25.4922      0.00000
     22      26.4576      0.00000
     23      30.1152      0.00000
     24      31.4556      0.00000

 k-point    19 :       0.4500    0.1500    0.1500
  band No.  band energies     occupation 
      1     -44.5794      1.00000
      2     -44.5494      1.00000
      3     -44.4477      1.00000
      4     -44.3992      1.00000
      5     -44.3473      1.00000
      6     -44.3193      1.00000
      7       4.9803      1.00000
      8       5.5623      1.00000
[...]
     19      18.3220      0.00000
     20      20.7970      0.00000
     21      22.3835      0.00000
     22      24.8362      0.00000
     23      26.2506      0.00000
     24      30.1360      0.00000

 k-point    30 :       0.4500    0.3500    0.2500
  band No.  band energies     occupation 
      1     -42.0276      1.00000
      2     -42.0273      1.00000
      3     -41.8761      1.00000
      4     -41.8248      1.00000
      5     -41.7186      1.00000
      6     -41.7143      1.00000
      7       6.7329      1.00000
      8       7.0451      1.00000
      9       7.9676      1.00000
     10       7.9784      1.00000
     11       8.3646      1.00000
     12       8.4913      1.00000
     13      11.1841      0.00000
     14      11.2347      0.00000
     15      11.5149      0.00000
     16      11.5333      0.00000
     17      13.8172      0.00000
     18      14.8896      0.00000
     19      19.1260      0.00000
     20      20.5766      0.00000
     21      21.9128      0.00000
     22      23.4381      0.00000
     23      26.7660      0.00000
     24      28.2363      0.00000

 k-point    31 :       0.4500    0.4500    0.2500
  band No.  band energies     occupation 
      1     -42.0355      1.00000
      2     -42.0348      1.00000
      3     -41.8567      1.00000
      4     -41.8359      1.00000
      5     -41.7250      1.00000
      6     -41.7212      1.00000
      7       6.8531      1.00000
      8       6.9336      1.00000
      9       7.8848      1.00000
     10       7.8997      1.00000
     11       8.6613      1.00000
     12       8.7305      1.00000
     13      11.3008      0.00000
     14      11.3256      0.00000
     15      11.5264      0.00000
     16      11.5390      0.00000
     17      14.4939      0.00000
     18      15.0168      0.00000
     19      18.3895      0.00000
     20      19.0492      0.00000
     21      23.0061      0.00000
     22      24.1213      0.00000
     23      25.2330      0.00000
     24      26.3292      0.00000

 k-point    32 :       0.3500    0.3500    0.3500
  band No.  band energies     occupation 
      1     -42.0116      1.00000
      2     -41.9613      1.00000
      3     -41.9613      1.00000
      4     -41.7727      1.00000
      5     -41.7727      1.00000
      6     -41.7225      1.00000
      7       6.9264      1.00000
      8       7.5004      1.00000
      9       7.9278      1.00000
     10       7.9278      1.00000
     11       8.0743      1.00000
     12       8.0743      1.00000
     13      11.3764      0.00000
     14      11.3764      0.00000
     15      11.4152      0.00000
     16      11.4152      0.00000
     17      13.8655      0.00000
     18      17.4972      0.00000
     19      17.4972      0.00000
     20      19.8864      0.00000
     21      22.8235      0.00000
     22      22.8235      0.00000
     23      24.1459      0.00000
     24      28.0397      0.00000

 k-point    33 :       0.4500    0.3500    0.3500
  band No.  band energies     occupation 
      1     -42.0063      1.00000
      2     -41.9904      1.00000
      3     -41.8986      1.00000
      4     -41.8336      1.00000
      5     -41.7564      1.00000
      6     -41.7376      1.00000
      7       7.2800      1.00000
      8       7.3822      1.00000
      9       7.8723      1.00000
     10       7.9207      1.00000
     11       8.0468      1.00000
     12       8.2172      1.00000
     13      11.3597      0.00000
     14      11.3849      0.00000
     15      11.5028      0.00000
     16      11.5140      0.00000
     17      14.8062      0.00000
     18      16.0277      0.00000
     19      19.1307      0.00000
     20      20.4297      0.00000
     21      20.9114      0.00000
     22      21.6694      0.00000
     23      24.5508      0.00000
     24      26.0867      0.00000

 k-point    34 :       0.4500    0.4500    0.3500
  band No.  band energies     occupation 
      1     -41.9890      1.00000
      2     -41.9779      1.00000
      3     -41.8848      1.00000
      4     -41.8486      1.00000
      5     -41.7790      1.00000
      6     -41.7643      1.00000
      7       7.4285      1.00000
      8       7.4422      1.00000
      9       7.8025      1.00000
     10       7.8455      1.00000
     11       8.1731      1.00000
     12       8.2614      1.00000
     13      11.4436      0.00000
     14      11.4544      0.00000
     15      11.5333      0.00000
     16      11.5376      0.00000
     17      15.8060      0.00000
     18      16.5885      0.00000
     19      18.5408      0.00000
     20      19.5006      0.00000
     21      21.0124      0.00000
     22      22.1184      0.00000
     23      22.9693      0.00000
     24      24.1593      0.00000

 k-point    35 :       0.4500    0.4500    0.4500
  band No.  band energies     occupation 
      1     -41.9442      1.00000
      2     -41.9118      1.00000
      3     -41.9118      1.00000
      4     -41.8432      1.00000
      5     -41.8432      1.00000
      6     -41.8107      1.00000
      7       7.6627      1.00000
      8       7.8093      1.00000
      9       7.8093      1.00000
     10       7.9082      1.00000
     11       7.9534      1.00000
     12       7.9534      1.00000
     13      11.5393      0.00000
     14      11.5393      0.00000
     15      11.5423      0.00000
     16      11.5423      0.00000
     17      17.1204      0.00000
     18      18.3146      0.00000
     19      18.3146      0.00000
     20      20.0018      0.00000
     21      20.1675      0.00000
     22      20.1675      0.00000
     23      21.5180      0.00000
     24      22.3096      0.00000


--------------------------------------------------------------------------------------------------------


 soft charge-density along one line, spin component           1
         0         1         2         3         4         5         6         7         8         9
 total charge-density along one line
 
 soft charge-density along one line, spin component           2
         0         1         2         3         4         5         6         7         8         9
 total charge-density along one line
 
 pseudopotential strength for first ion, spin component:           1
-44.858  -0.000  -0.000   7.570   0.000   0.000  -0.000   0.000
 -0.000 -44.858  -0.000   0.000   7.570   0.000   0.000   0.000
 -0.000  -0.000 -44.858   0.000   0.000   7.570   0.000   0.000
  7.570   0.000   0.000   5.638   0.000   0.000   0.000  -0.000
  0.000   7.570   0.000   0.000   5.638  -0.000  -0.000  -0.000
  0.000   0.000   7.570   0.000  -0.000   5.638  -0.000  -0.000
 -0.000   0.000   0.000   0.000  -0.000  -0.000  -1.981  -0.000
  0.000   0.000   0.000  -0.000  -0.000  -0.000  -0.000  -1.981
 -0.000   0.000  -0.000   0.000  -0.000  -0.000   0.000  -0.000
  0.000  -0.000   0.000  -0.000   0.000  -0.000  -0.000  -0.000
 -0.000   0.000   0.000   0.000  -0.000  -0.000  -0.000   0.000
 -0.000   0.000   0.000   0.000  -0.000  -0.000  -2.496  -0.000
  0.000   0.000   0.000  -0.000  -0.000  -0.000  -0.000  -2.496
 -0.000   0.000   0.000   0.000  -0.000   0.000   0.000  -0.000
  0.000  -0.000   0.000  -0.000   0.000  -0.000  -0.000  -0.000
 -0.000   0.000   0.000   0.000  -0.000   0.000  -0.000   0.000
 -0.000  -0.000   0.000  -0.000  -0.000   0.000   0.000   0.000
 -0.000  -0.000   0.000  -0.000  -0.000   0.000   0.000   0.000
 pseudopotential strength for first ion, spin component:           2
-42.886  -0.000  -0.000   6.737   0.000   0.000  -0.000   0.000
 -0.000 -42.886   0.000   0.000   6.737  -0.000  -0.000   0.000
 -0.000   0.000 -42.886   0.000  -0.000   6.737   0.000  -0.000
  6.737   0.000   0.000   5.866   0.000   0.000   0.000  -0.000
  0.000   6.737  -0.000   0.000   5.866  -0.000   0.000  -0.000
  0.000  -0.000   6.737   0.000  -0.000   5.866  -0.000   0.000
 -0.000  -0.000   0.000   0.000   0.000  -0.000  -0.455   0.000
  0.000   0.000  -0.000  -0.000  -0.000   0.000   0.000  -0.455
 -0.000   0.000   0.000   0.000  -0.000  -0.000   0.000  -0.000
 -0.000  -0.000   0.000   0.000   0.000  -0.000  -0.000  -0.000
 -0.000   0.000  -0.000   0.000  -0.000  -0.000  -0.000   0.000
 -0.000  -0.000   0.000   0.000   0.000  -0.000  -0.995   0.000
  0.000   0.000  -0.000  -0.000  -0.000   0.000   0.000  -0.995
 -0.000   0.000   0.000   0.000  -0.000   0.000   0.000  -0.000
 -0.000   0.000   0.000   0.000  -0.000  -0.000  -0.000  -0.000
 -0.000   0.000  -0.000   0.000  -0.000   0.000  -0.000   0.000
 -0.000  -0.000  -0.000  -0.000  -0.000   0.000   0.000   0.000
 -0.000  -0.000  -0.000  -0.000  -0.000  -0.000   0.000   0.000
 total augmentation occupancy for first ion, spin component:           1
  1.992   0.000   0.000  -0.026   0.000  -0.000   0.000   0.000   0.000   0.000  -0.000   0.000   0.000   0.000   0.000   0.000
  0.000   1.992   0.000   0.000  -0.026   0.000   0.000   0.000   0.000   0.000   0.000   0.000   0.000   0.000   0.000  -0.000
  0.000   0.000   1.992   0.000   0.000  -0.026   0.000   0.000  -0.000   0.000   0.000   0.000   0.000   0.000   0.000  -0.000
 -0.026   0.000  -0.000   0.201   0.000   0.000   0.000   0.000   0.000  -0.000   0.000   0.000   0.000   0.000   0.000   0.000
 -0.000  -0.026   0.000   0.000   0.201  -0.000  -0.000   0.000   0.000   0.000   0.000  -0.000   0.000   0.000   0.000   0.000
 -0.000   0.000  -0.026   0.000  -0.000   0.201   0.000   0.000  -0.000   0.000   0.000   0.000   0.000   0.000   0.000   0.000
  0.000   0.000   0.000   0.000   0.000   0.000   2.169   0.000   0.000   0.000  -0.000  -1.221  -0.000  -0.000  -0.000  -0.000
  0.000   0.000   0.000   0.000   0.000  -0.000   0.000   2.169  -0.000   0.000   0.000   0.000  -1.221  -0.000  -0.000   0.000
 -0.000   0.000  -0.000   0.000   0.000  -0.000   0.000  -0.000   3.407   0.000   0.000   0.000   0.000  -2.183   0.000   0.000
  0.000   0.000   0.000   0.000   0.000   0.000   0.000   0.000   0.000   2.169  -0.000   0.000  -0.000  -0.000  -1.221  -0.000
  0.000   0.000  -0.000   0.000   0.000   0.000  -0.000  -0.000  -0.000   0.000   3.407  -0.000  -0.000  -0.000   0.000  -2.183
  0.000  -0.000   0.000   0.000  -0.000   0.000  -1.221   0.000  -0.000   0.000  -0.000   1.649  -0.000   0.000   0.000   0.000
  0.000   0.000   0.000   0.000   0.000   0.000   0.000  -1.221   0.000  -0.000  -0.000  -0.000   1.649   0.000  -0.000   0.000
  0.000   0.000   0.000  -0.000   0.000   0.000   0.000   0.000  -2.183  -0.000   0.000   0.000  -0.000   2.223   0.000   0.000
  0.000   0.000   0.000  -0.000   0.000   0.000  -0.000   0.000   0.000  -1.221   0.000  -0.000  -0.000  -0.000   1.649   0.000
  0.000  -0.000  -0.000   0.000   0.000   0.000  -0.000   0.000   0.000  -0.000  -2.183  -0.000   0.000   0.000   0.000   2.223
  0.000   0.000   0.000   0.000   0.000  -0.000  -0.000  -0.000  -0.000   0.000  -0.000  -0.000  -0.000   0.000  -0.000   0.000
  0.000   0.000   0.000   0.000   0.000   0.000   0.000  -0.000  -0.000  -0.000   0.000   0.000  -0.000  -0.000  -0.000  -0.000
 total augmentation occupancy for first ion, spin component:           2
 -0.002   0.000   0.000  -0.009   0.000   0.000   0.000   0.000  -0.000   0.000  -0.000   0.000   0.000   0.000   0.000   0.000
  0.000  -0.002   0.000   0.000  -0.009  -0.000   0.000   0.000   0.000   0.000   0.000  -0.000   0.000   0.000   0.000   0.000
  0.000   0.000  -0.002  -0.000  -0.000  -0.009   0.000  -0.000   0.000   0.000   0.000   0.000  -0.000   0.000   0.000  -0.000
 -0.009  -0.000  -0.000  -0.020  -0.000  -0.000   0.000   0.000   0.000   0.000   0.000   0.000   0.000   0.000   0.000   0.000
  0.000  -0.009   0.000   0.000  -0.020   0.000  -0.000   0.000   0.000   0.000   0.000  -0.000   0.000   0.000   0.000   0.000
  0.000  -0.000  -0.009   0.000  -0.000  -0.020   0.000   0.000   0.000   0.000   0.000   0.000   0.000   0.000   0.000   0.000
  0.000  -0.000   0.000   0.000  -0.000   0.000   1.759  -0.000   0.000  -0.000   0.000  -0.662   0.000  -0.000  -0.000   0.000
  0.000   0.000   0.000   0.000   0.000   0.000   0.000   1.759   0.000  -0.000   0.000   0.000  -0.662  -0.000  -0.000   0.000
  0.000   0.000   0.000   0.000   0.000  -0.000   0.000   0.000   2.822   0.000   0.000  -0.000   0.000  -1.163   0.000  -0.000
  0.000   0.000   0.000   0.000   0.000   0.000  -0.000  -0.000   0.000   1.759  -0.000  -0.000  -0.000   0.000  -0.662  -0.000
  0.000   0.000  -0.000   0.000   0.000  -0.000   0.000   0.000   0.000  -0.000   2.822   0.000   0.000  -0.000   0.000  -1.163
  0.000  -0.000   0.000   0.000   0.000   0.000  -0.662   0.000  -0.000  -0.000   0.000  -0.006   0.000   0.000  -0.000  -0.000
  0.000   0.000   0.000   0.000   0.000   0.000   0.000  -0.662  -0.000   0.000  -0.000   0.000  -0.006   0.000   0.000  -0.000
  0.000   0.000   0.000  -0.000   0.000   0.000   0.000   0.000  -1.163   0.000   0.000  -0.000   0.000   0.239  -0.000   0.000
  0.000   0.000   0.000  -0.000   0.000   0.000  -0.000  -0.000  -0.000  -0.662   0.000  -0.000  -0.000  -0.000  -0.006   0.000
 -0.000   0.000   0.000   0.000  -0.000   0.000   0.000   0.000   0.000  -0.000  -1.163  -0.000  -0.000   0.000   0.000   0.239
  0.000   0.000   0.000   0.000   0.000   0.000   0.000  -0.000  -0.000  -0.000   0.000   0.000  -0.000   0.000   0.000   0.000
  0.000   0.000   0.000   0.000   0.000   0.000  -0.000  -0.000  -0.000   0.000  -0.000  -0.000   0.000   0.000  -0.000  -0.000


------------------------ aborting loop because EDIFF is reached ----------------------------------------


 


 total charge     
 
# of ion       s       p       d       tot
------------------------------------------
    1        0.385   6.378   6.075  12.837
    2        0.385   6.378   6.075  12.837
--------------------------------------------------
tot          0.770  12.755  12.149  25.675
 


 magnetization (x)
 
# of ion       s       p       d       tot
------------------------------------------
    1       -0.008  -0.042   2.292   2.243
    2       -0.008  -0.042   2.292   2.243
--------------------------------------------------
tot         -0.015  -0.083   4.584   4.485
 
    CHARGE:  cpu time    0.0138: real time    0.0139
    FORLOC:  cpu time    0.0002: real time    0.0002
    FORNL :  cpu time    0.0794: real time    0.0796
    STRESS:  cpu time    0.2360: real time    0.2366
    FORCOR:  cpu time    0.0056: real time    0.0056
    FORHAR:  cpu time    0.0007: real time    0.0007
    MIXING:  cpu time    0.0006: real time    0.0006
    OFIELD:  cpu time    0.0001: real time    0.0001

  FORCE on cell =-STRESS in cart. coord.  units (eV):
  Direction    XX          YY          ZZ          XY          YZ          ZX
  --------------------------------------------------------------------------------------
  Alpha Z   218.87049   218.87049   218.87049
  Ewald   -1205.52018 -1205.52018 -1205.52018    -0.00000    -0.00000    -0.00000
  Hartree   363.30830   363.30830   363.30830    -0.00000    -0.00000    -0.00000
  E(xc)    -179.78009  -179.78009  -179.78009    -0.00000     0.00000     0.00000
  Local     289.64412   289.64412   289.64412    -0.00000     0.00000    -0.00000
  n-local   -60.17217   -54.16082   -50.55692     2.76435    -1.55472     0.58526
  augment   285.41320   285.41320   285.41320    -0.00000     0.00000     0.00000
  Kinetic   283.98356   282.53792   281.80699     2.93842    -0.74334    -0.07191
  Fock        0.00000     0.00000     0.00000     0.00000     0.00000     0.00000
  -------------------------------------------------------------------------------------
  Total      -0.25130    -0.25130    -0.25130     0.00000    -0.00000    -0.00000
  in kB     -17.57586   -17.57586   -17.57586     0.00000    -0.00000    -0.00000
  external pressure =      -17.58 kB  Pullay stress =        0.00 kB


 VOLUME and BASIS-vectors are now :
 -----------------------------------------------------------------------------
  energy-cutoff  :      680.00
  volume of cell :       22.91
      direct lattice vectors                 reciprocal lattice vectors
     2.840052000  0.000000000  0.000000000     0.352106229  0.000000000  0.000000000
     0.000000000  2.840052000  0.000000000     0.000000000  0.352106229  0.000000000
     0.000000000  0.000000000  2.840052000     0.000000000  0.000000000  0.352106229

  length of vectors
     2.840052000  2.840052000  2.840052000     0.352106229  0.352106229  0.352106229


 FORCES acting on ions
    electron-ion (+dipol)            ewald-force                    non-local-force                 convergence-correction
 -----------------------------------------------------------------------------------------------
   -.585E-13 -.239E-13 -.244E-13   -.529E-15 -.103E-14 -.897E-14   -.646E-26 0.000E+00 0.000E+00   0.105E-12 -.152E-15 -.644E-13
   0.795E-12 0.136E-11 -.579E-11   0.472E-14 0.447E-14 0.926E-14   0.000E+00 0.000E+00 0.000E+00   0.467E-13 -.916E-14 -.406E-14
 -----------------------------------------------------------------------------------------------
   0.736E-12 0.134E-11 -.581E-11   0.419E-14 0.343E-14 0.284E-15   -.646E-26 0.000E+00 0.000E+00   0.152E-12 -.931E-14 -.685E-13
 
 
 POSITION                                       TOTAL-FORCE (eV/Angst)
 -----------------------------------------------------------------------------------
      0.00000      0.00000      0.00000        -0.000000     -0.000000     -0.000000
      1.42003      1.42003      1.42003         0.000000      0.000000      0.000000
 -----------------------------------------------------------------------------------
    total drift:                                0.000000      0.000000     -0.000000


--------------------------------------------------------------------------------------------------------



  FREE ENERGIE OF THE ION-ELECTRON SYSTEM (eV)
  ---------------------------------------------------
  free  energy   TOTEN  =       -16.51359911 eV

  energy  without entropy=      -16.51359911  energy(sigma->0) =      -16.51359911
 


--------------------------------------------------------------------------------------------------------


    POTLOK:  cpu time    0.0106: real time    0.0106


--------------------------------------------------------------------------------------------------------


     LOOP+:  cpu time    7.7417: real time    7.7726
    4ORBIT:  cpu time    0.0000: real time    0.0000
 


 total charge     
 
# of ion       s       p       d       tot
------------------------------------------
    1        0.385   6.378   6.075  12.837
    2        0.385   6.378   6.075  12.837
--------------------------------------------------
tot          0.770  12.755  12.149  25.675
 


 magnetization (x)
 
# of ion       s       p       d       tot
------------------------------------------
    1       -0.008  -0.042   2.292   2.243
    2       -0.008  -0.042   2.292   2.243
--------------------------------------------------
tot         -0.015  -0.083   4.584   4.485
 
 BZINTS: Fermi energy:  9.622568; 28.000000 electrons
         Band energy:-399.269001;  BLOECHL correction: -0.034711

 total amount of memory used by VASP MPI-rank0    32827. kBytes
=======================================================================

   base      :      30000. kBytes
   nonlr-proj:        783. kBytes
   fftplans  :        262. kBytes
   grid      :        623. kBytes
   one-center:         31. kBytes
   wavefun   :       1128. kBytes
 
  
  
 General timing and accounting informations for this job:
 ========================================================
  
                  Total CPU time used (sec):        9.202
                            User time (sec):        9.008
                          System time (sec):        0.194
                         Elapsed time (sec):       11.235
  
                   Maximum memory used (kb):       55436.
                   Average memory used (kb):           0.
  
                          Minor page faults:        13330
                          Major page faults:            0
                 Voluntary context switches:         1452
