       N       E                     dE             d eps       ncg     rms          rms(c)
DAV:   1     0.450693929100E+04    0.45069E+04   -0.15218E+05 11484   0.210E+03
DAV:   2     0.498367937277E+03   -0.40086E+04   -0.36499E+04 11424   0.588E+02
DAV:   3    -0.244617086417E+03   -0.74299E+03   -0.65471E+03 11844   0.246E+02
DAV:   4    -0.293878163456E+03   -0.49261E+02   -0.48683E+02 12948   0.629E+01
DAV:   5    -0.294432666711E+03   -0.55450E+00   -0.55302E+00 12780   0.752E+00    0.810E+01
DAV:   6    -0.235326081672E+03    0.59107E+02   -0.25334E+02 14796   0.810E+01    0.914E+01
DAV:   7    -0.211733762064E+03    0.23592E+02   -0.11436E+02 12276   0.635E+01    0.437E+01
DAV:   8    -0.218278167608E+03   -0.65444E+01   -0.21362E+01 12144   0.171E+01    0.265E+01
DAV:   9    -0.222503212703E+03   -0.42250E+01   -0.82803E+00 12636   0.171E+01    0.273E+01
DAV:  10    -0.222127709065E+03    0.37550E+00   -0.24792E+00 12564   0.695E+00    0.187E+01
DAV:  11    -0.221557083924E+03    0.57063E+00   -0.23375E-01 14244   0.283E+00    0.122E+01
DAV:  12    -0.221353775501E+03    0.20331E+00   -0.19441E-01 15180   0.239E+00    0.851E+00
DAV:  13    -0.221349580765E+03    0.41947E-02   -0.11603E-01 13992   0.231E+00    0.464E+00
DAV:  14    -0.221395439062E+03   -0.45858E-01   -0.16084E-01 14796   0.201E+00    0.176E+00
DAV:  15    -0.221414020383E+03   -0.18581E-01   -0.63329E-02 12444   0.675E-01    0.141E+00
DAV:  16    -0.221408768467E+03    0.52519E-02   -0.93993E-03 14196   0.719E-01    0.351E-01
DAV:  17    -0.221409478183E+03   -0.70972E-03   -0.46035E-03 12276   0.173E-01    0.190E-01
DAV:  18    -0.221409721943E+03   -0.24376E-03   -0.22864E-04 14064   0.823E-02    0.911E-02
DAV:  19    -0.221409788259E+03   -0.66316E-04   -0.10110E-04 13932   0.438E-02    0.210E-02
DAV:  20    -0.221409801137E+03   -0.12878E-04   -0.24589E-05 12624   0.170E-02    0.868E-03
DAV:  21    -0.221409805672E+03   -0.45343E-05   -0.26793E-06 12084   0.645E-03    0.102E-02
DAV:  22    -0.221409807365E+03   -0.16930E-05   -0.10959E-06 11172   0.517E-03    0.563E-03
DAV:  23    -0.221409804660E+03    0.27043E-05   -0.19921E-07  8304   0.203E-03    0.229E-03
DAV:  24    -0.221409803501E+03    0.11594E-05   -0.96603E-08  6468   0.761E-04    0.132E-03
DAV:  25    -0.221409803857E+03   -0.35619E-06   -0.17878E-08  6192   0.437E-04    0.723E-04
DAV:  26    -0.221409803971E+03   -0.11423E-06   -0.14564E-08  6216   0.314E-04    0.622E-04
DAV:  27    -0.221409803460E+03    0.51173E-06   -0.24663E-08  6216   0.386E-04    0.712E-04
DAV:  28    -0.221409803218E+03    0.24117E-06   -0.58053E-09  6216   0.296E-04    0.296E-04
DAV:  29    -0.221409803068E+03    0.15022E-06   -0.61820E-09  6216   0.193E-04    0.183E-04
DAV:  30    -0.221409803089E+03   -0.21093E-07   -0.97417E-10  6216   0.110E-04
   1 F= -.22140980E+03 E0= -.22140980E+03  d E =0.000000E+00  mag=    42.3183
