 vasp.5.4.4.18Apr17-6-g9f103f2a35 (build Apr 28 2018 00:24:27) complex          
  
 executed on             LinuxIFC date 2021.09.06  03:40:01
 running on   24 total cores
 distrk:  each k-point on   24 cores,    1 groups
 distr:  one band on NCORES_PER_BAND=   4 cores,    6 groups


--------------------------------------------------------------------------------------------------------


 INCAR:
 POTCAR:    PAW_PBE Fe_pv 02Aug2007               
 POTCAR:    PAW_PBE O 08Apr2002                   
 POTCAR:    PAW_PBE Fe_pv 02Aug2007               
   VRHFIN =Fe:  3pd7s1                                                          
   LEXCH  = PE                                                                  
   EATOM  =  2457.4239 eV,  180.6156 Ry                                         
                                                                                
   TITEL  = PAW_PBE Fe_pv 02Aug2007                                             
   LULTRA =        F    use ultrasoft PP ?                                      
   IUNSCR =        1    unscreen: 0-lin 1-nonlin 2-no                           
   RPACOR =    1.750    partial core radius                                     
   POMASS =   55.847; ZVAL   =   14.000    mass and valenz                      
   RCORE  =    2.200    outmost cutoff radius                                   
   RWIGS  =    2.200; RWIGS  =    1.164    wigner-seitz radius (au A)           
   ENMAX  =  293.238; ENMIN  =  219.928 eV                                      
   ICORE  =        3    local potential                                         
   LCOR   =        T    correct aug charges                                     
   LPAW   =        T    paw PP                                                  
   EAUG   =  578.342                                                            
   DEXC   =    0.000                                                            
   RMAX   =    2.249    core radius for proj-oper                               
   RAUG   =    1.300    factor for augmentation sphere                          
   RDEP   =    2.296    radius for radial grids                                 
   RDEPT  =    1.766    core radius for aug-charge                              
                                                                                
   Atomic configuration                                                         
    8 entries                                                                   
     n  l   j            E        occ.                                          
     1  0  0.50     -6993.8440   2.0000                                         
     2  0  0.50      -814.6047   2.0000                                         
     2  1  1.50      -693.3689   6.0000                                         
     3  0  0.50       -89.4732   2.0000                                         
     3  1  1.50       -55.6373   6.0000                                         
     3  2  2.50        -3.8151   7.0000                                         
     4  0  0.50        -4.2551   1.0000                                         
     4  3  2.50        -1.3606   0.0000                                         
   Description                                                                  
     l       E           TYP  RCUT    TYP  RCUT                                 
     1    -55.6372668     23  2.000                                             
     1     -5.4423304     23  2.000                                             
     2     -3.8151096     23  2.200                                             
     2     -5.1756922     23  2.200                                             
     0     -4.2550951     23  2.200                                             
     0     27.2116520     23  2.200                                             
     3     -1.3605826     23  2.200                                             
  local pseudopotential read in
  partial core-charges read in
  partial kinetic energy density read in
  atomic valenz-charges read in
  non local Contribution for L=           1  read in
    real space projection operators read in
  non local Contribution for L=           1  read in
    real space projection operators read in
  non local Contribution for L=           2  read in
    real space projection operators read in
  non local Contribution for L=           2  read in
    real space projection operators read in
  non local Contribution for L=           0  read in
    real space projection operators read in
  non local Contribution for L=           0  read in
    real space projection operators read in
    PAW grid and wavefunctions read in
 
   number of l-projection  operators is LMAX  =           6
   number of lm-projection operators is LMMAX =          18
 
 POTCAR:    PAW_PBE O 08Apr2002                   
   VRHFIN =O: s2p4                                                              
   LEXCH  = PE                                                                  
   EATOM  =   432.3788 eV,   31.7789 Ry                                         
                                                                                
   TITEL  = PAW_PBE O 08Apr2002                                                 
   LULTRA =        F    use ultrasoft PP ?                                      
   IUNSCR =        1    unscreen: 0-lin 1-nonlin 2-no                           
   RPACOR =    1.200    partial core radius                                     
   POMASS =   16.000; ZVAL   =    6.000    mass and valenz                      
   RCORE  =    1.520    outmost cutoff radius                                   
   RWIGS  =    1.550; RWIGS  =    0.820    wigner-seitz radius (au A)           
   ENMAX  =  400.000; ENMIN  =  300.000 eV                                      
   ICORE  =        2    local potential                                         
   LCOR   =        T    correct aug charges                                     
   LPAW   =        T    paw PP                                                  
   EAUG   =  605.392                                                            
   DEXC   =    0.000                                                            
   RMAX   =    1.553    core radius for proj-oper                               
   RAUG   =    1.300    factor for augmentation sphere                          
   RDEP   =    1.550    radius for radial grids                                 
   RDEPT  =    1.329    core radius for aug-charge                              
                                                                                
   Atomic configuration                                                         
    4 entries                                                                   
     n  l   j            E        occ.                                          
     1  0  0.50      -514.6923   2.0000                                         
     2  0  0.50       -23.9615   2.0000                                         
     2  1  0.50        -9.0305   4.0000                                         
     3  2  1.50        -9.5241   0.0000                                         
   Description                                                                  
     l       E           TYP  RCUT    TYP  RCUT                                 
     0    -23.9615318     23  1.200                                             
     0     -9.5240782     23  1.200                                             
     1     -9.0304911     23  1.520                                             
     1      8.1634956     23  1.520                                             
     2     -9.5240782      7  1.500                                             
  local pseudopotential read in
  partial core-charges read in
  partial kinetic energy density read in
  kinetic energy density of atom read in
  atomic valenz-charges read in
  non local Contribution for L=           0  read in
    real space projection operators read in
  non local Contribution for L=           0  read in
    real space projection operators read in
  non local Contribution for L=           1  read in
    real space projection operators read in
  non local Contribution for L=           1  read in
    real space projection operators read in
    PAW grid and wavefunctions read in
 
   number of l-projection  operators is LMAX  =           4
   number of lm-projection operators is LMMAX =           8
 
 Optimization of the real space projectors (new method)

 maximal supplied QI-value         = 17.01
 optimisation between [QCUT,QGAM] = [ 12.76, 25.51] = [ 45.56,182.25] Ry 
 Optimized for a Real-space Cutoff    1.32 Angstroem

   l    n(q)    QCUT    max X(q) W(low)/X(q) W(high)/X(q)  e(spline) 
   1     10    12.756     4.267    0.11E-03    0.84E-04    0.26E-06
   1     10    12.756     5.750    0.17E-03    0.14E-03    0.42E-06
   2      9    12.756    53.656    0.21E-03    0.25E-04    0.27E-06
   2      9    12.756    49.521    0.21E-03    0.27E-04    0.27E-06
   0     10    12.756    31.246    0.43E-04    0.19E-04    0.16E-06
   0     10    12.756    12.201    0.36E-04    0.16E-04    0.13E-06
 Optimization of the real space projectors (new method)

 maximal supplied QI-value         = 24.76
 optimisation between [QCUT,QGAM] = [ 12.63, 25.50] = [ 44.64,182.06] Ry 
 Optimized for a Real-space Cutoff    1.14 Angstroem

   l    n(q)    QCUT    max X(q) W(low)/X(q) W(high)/X(q)  e(spline) 
   0      9    12.625    20.381    0.19E-03    0.46E-04    0.28E-06
   0      9    12.625    15.268    0.21E-03    0.52E-04    0.30E-06
   1      8    12.625     5.964    0.22E-03    0.23E-03    0.26E-06
   1      8    12.625     5.382    0.19E-03    0.20E-03    0.23E-06
  PAW_PBE Fe_pv 02Aug2007               :
 energy of atom  1       EATOM=-2457.4239
 kinetic energy error for atom=    0.0051 (will be added to EATOM!!)
  PAW_PBE O 08Apr2002                   :
 energy of atom  2       EATOM= -432.3788
 kinetic energy error for atom=    0.0153 (will be added to EATOM!!)
 
 
 POSCAR: Fe12 O18                                
  positions in direct lattice
  No initial velocities read in
 exchange correlation table for  LEXCH =        8
   RHO(1)=    0.500       N(1)  =     2000
   RHO(2)=  100.500       N(2)  =     4000
 


--------------------------------------------------------------------------------------------------------


 ion  position               nearest neighbor table
   1  0.000  0.000  0.355-  17 1.94  23 1.94  28 1.94  25 2.12  19 2.12  13 2.12
   2  0.000  0.000  0.645-  16 1.94  22 1.94  29 1.94  26 2.12  20 2.12  14 2.12
   3  0.333  0.667  0.022-  30 1.94  24 1.94  18 1.94  27 2.12  21 2.12  15 2.12
   4  0.667  0.333  0.689-  14 1.94  20 1.94  26 1.94  22 2.12  29 2.12  16 2.12
   5  0.333  0.667  0.311-  13 1.94  19 1.94  25 1.94  23 2.12  28 2.12  17 2.12
   6  0.667  0.333  0.978-  27 1.94  21 1.94  15 1.94  30 2.12  24 2.12  18 2.12
   7  0.000  0.000  0.145-  24 1.94  18 1.94  30 1.94  25 2.12  19 2.12  13 2.12
   8  0.000  0.000  0.855-  21 1.94  15 1.94  27 1.94  26 2.12  20 2.12  14 2.12
   9  0.333  0.667  0.811-  20 1.94  14 1.94  26 1.94  27 2.12  21 2.12  15 2.12
  10  0.333  0.667  0.522-  29 1.94  16 1.94  22 1.94  23 2.12  28 2.12  17 2.12
  11  0.667  0.333  0.478-  28 1.94  17 1.94  23 1.94  22 2.12  29 2.12  16 2.12
  12  0.667  0.333  0.189-  19 1.94  13 1.94  25 1.94  30 2.12  24 2.12  18 2.12
  13  0.306  0.000  0.250-   5 1.94  12 1.94   7 2.12   1 2.12
  14  0.694  0.000  0.750-   4 1.94   9 1.94   8 2.12   2 2.12
  15  0.640  0.667  0.917-   6 1.94   8 1.94   9 2.12   3 2.12
  16  0.973  0.333  0.583-  10 1.94   2 1.94   4 2.12  11 2.12
  17  0.027  0.667  0.417-  11 1.94   1 1.94   5 2.12  10 2.12
  18  0.360  0.333  0.083-   3 1.94   7 1.94  12 2.12   6 2.12
  19  0.000  0.306  0.250-  12 1.94   5 1.94   7 2.12   1 2.12
  20  0.000  0.694  0.750-   9 1.94   4 1.94   8 2.12   2 2.12
  21  0.333  0.973  0.917-   6 1.94   8 1.94   9 2.12   3 2.12
  22  0.667  0.640  0.583-  10 1.94   2 1.94   4 2.12  11 2.12
  23  0.333  0.360  0.417-  11 1.94   1 1.94   5 2.12  10 2.12
  24  0.667  0.027  0.083-   3 1.94   7 1.94  12 2.12   6 2.12
  25  0.694  0.694  0.250-  12 1.94   5 1.94   7 2.12   1 2.12
  26  0.306  0.306  0.750-   9 1.94   4 1.94   8 2.12   2 2.12
  27  0.027  0.360  0.917-   6 1.94   8 1.94   9 2.12   3 2.12
  28  0.640  0.973  0.417-  11 1.94   1 1.94   5 2.12  10 2.12
  29  0.360  0.027  0.583-  10 1.94   2 1.94   4 2.12  11 2.12
  30  0.973  0.640  0.083-   3 1.94   7 1.94  12 2.12   6 2.12
 
  LATTYP: Found a hexagonal cell.
 ALAT       =     5.0350995578
 C/A-ratio  =     2.7324385232
  
  Lattice vectors:
  
 A1 = (   5.0351000000,   0.0000000000,   0.0000000000)
 A2 = (  -2.5175500000,   4.3605240000,   0.0000000000)
 A3 = (   0.0000000000,   0.0000000000,  13.7581000000)


Analysis of symmetry for initial positions (statically):
=====================================================================
 Subroutine PRICEL returns following result:
 
  LATTYP: Found a trigonal (rhomboedric) cell.
 ALAT       =     5.4297801492
 COS(alpha) =     0.5700456062
  
  Lattice vectors:
  
 A1 = (  -2.5175449649,  -1.4535109070,  -4.5860425054)
 A2 = (  -0.0000025175,   2.9070174535,  -4.5860287473)
 A3 = (   2.5175474825,  -1.4535065465,  -4.5860287473)
 
   3 primitive cells build up your supercell.
 

 Routine SETGRP: Setting up the symmetry group for a 
 hexagonal supercell.


 Subroutine GETGRP returns: Found 12 space group operations
 (whereof  6 operations were pure point group operations)
 out of a pool of 24 trial point group operations.


The static configuration has the point symmetry S_6 .
 The point group associated with its full space group is D_3d.


Analysis of symmetry for dynamics (positions and initial velocities):
=====================================================================
 Subroutine PRICEL returns following result:
 
  LATTYP: Found a trigonal (rhomboedric) cell.
 ALAT       =     5.4297801492
 COS(alpha) =     0.5700456062
  
  Lattice vectors:
  
 A1 = (  -2.5175449649,  -1.4535109070,  -4.5860425054)
 A2 = (  -0.0000025175,   2.9070174535,  -4.5860287473)
 A3 = (   2.5175474825,  -1.4535065465,  -4.5860287473)
 
   3 primitive cells build up your supercell.
 

 Routine SETGRP: Setting up the symmetry group for a 
 hexagonal supercell.


 Subroutine GETGRP returns: Found 12 space group operations
 (whereof  6 operations were pure point group operations)
 out of a pool of 24 trial point group operations.


The dynamic configuration has the point symmetry S_6 .
 The point group associated with its full space group is D_3d.


Analysis of structural, dynamic, and magnetic symmetry:
=====================================================================
 Subroutine PRICEL returns following result:
 
  LATTYP: Found a trigonal (rhomboedric) cell.
 ALAT       =     5.4297801492
 COS(alpha) =     0.5700456062
  
  Lattice vectors:
  
 A1 = (  -2.5175449649,  -1.4535109070,  -4.5860425054)
 A2 = (  -0.0000025175,   2.9070174535,  -4.5860287473)
 A3 = (   2.5175474825,  -1.4535065465,  -4.5860287473)
 
   3 primitive cells build up your supercell.
 

 Routine SETGRP: Setting up the symmetry group for a 
 hexagonal supercell.


 Subroutine GETGRP returns: Found 12 space group operations
 (whereof  6 operations were pure point group operations)
 out of a pool of 24 trial point group operations.


The magnetic configuration has the point symmetry S_6 .
 The point group associated with its full space group is D_3d.


 Subroutine INISYM returns: Found 12 space group operations
 (whereof  6 operations are pure point group operations),
 and found     3 'primitive' translations

 
 
 KPOINTS: pymatgen with grid density = 2464 / numb

Automatic generation of k-mesh.
Space group operators:
 irot       det(A)        alpha          n_x          n_y          n_z        tau_x        tau_y        tau_z
    1     1.000000     0.000000     1.000000     0.000000     0.000000     0.000000     0.000000     0.000000
    2    -1.000000     0.000000     1.000000     0.000000     0.000000     0.000000     0.000000     0.000000
    3     1.000000   120.000000     0.000000     0.000000    -1.000000     0.000000     0.000000     0.000000
    4    -1.000000   120.000000     0.000000     0.000000    -1.000000     0.000000     0.000000     0.000000
    5     1.000000   120.000000     0.000000     0.000000     1.000000     0.000000     0.000000     0.000000
    6    -1.000000   120.000000     0.000000     0.000000     1.000000     0.000000     0.000000     0.000000
    7     1.000000   180.000000     1.000000     0.000000     0.000000     0.000001    -0.000000    -0.500000
    8    -1.000000   180.000000     1.000000     0.000000     0.000000     0.000001    -0.000000    -0.500000
    9     1.000000   180.000000     0.500000    -0.866025     0.000000     0.000000     0.000000    -0.500000
   10    -1.000000   180.000000     0.500000    -0.866025     0.000000     0.000000     0.000000    -0.500000
   11     1.000000   180.000000    -0.500000    -0.866025     0.000000     0.000000     0.000000    -0.500000
   12    -1.000000   180.000000    -0.500000    -0.866025     0.000000     0.000000     0.000000    -0.500000
 
 Subroutine IBZKPT returns following result:
 ===========================================
 
 Found     14 irreducible k-points:
 
 Following reciprocal coordinates:
            Coordinates               Weight
  0.000000  0.000000  0.000000      1.000000
  0.166667  0.000000  0.000000      6.000000
  0.333333  0.000000  0.000000      6.000000
  0.500000  0.000000  0.000000      3.000000
  0.166667  0.166667  0.000000      6.000000
  0.333333  0.166667  0.000000     12.000000
  0.333333  0.333333  0.000000      2.000000
  0.000000  0.000000  0.500000      1.000000
  0.166667  0.000000  0.500000      6.000000
  0.333333  0.000000  0.500000      6.000000
  0.500000  0.000000  0.500000      3.000000
  0.166667  0.166667  0.500000      6.000000
  0.333333  0.166667  0.500000     12.000000
  0.333333  0.333333  0.500000      2.000000
 
 Following cartesian coordinates:
            Coordinates               Weight
  0.000000  0.000000  0.000000      1.000000
  0.033101  0.019111  0.000000      6.000000
  0.066202  0.038222  0.000000      6.000000
  0.099303  0.057333  0.000000      3.000000
  0.033101  0.057333  0.000000      6.000000
  0.066202  0.076443  0.000000     12.000000
  0.066202  0.114665  0.000000      2.000000
  0.000000  0.000000  0.036342      1.000000
  0.033101  0.019111  0.036342      6.000000
  0.066202  0.038222  0.036342      6.000000
  0.099303  0.057333  0.036342      3.000000
  0.033101  0.057333  0.036342      6.000000
  0.066202  0.076443  0.036342     12.000000
  0.066202  0.114665  0.036342      2.000000
 
 TETIRR: Found     71 inequivalent tetrahedra from      432


--------------------------------------------------------------------------------------------------------




 Dimension of arrays:
   k-points           NKPTS =     14   k-points in BZ     NKDIM =     14   number of bands    NBANDS=    204
   number of dos      NEDOS =    301   number of ions     NIONS =     30
   non local maximal  LDIM  =      6   non local SUM 2l+1 LMDIM =     18
   total plane-waves  NPLWV = 197568
   max r-space proj   IRMAX =   6409   max aug-charges    IRDMAX=  19568
   dimension x,y,z NGX =    42 NGY =   42 NGZ =  112
   dimension x,y,z NGXF=    84 NGYF=   84 NGZF=  224
   support grid    NGXF=    84 NGYF=   84 NGZF=  224
   ions per type =              12  18
   NGX,Y,Z   is equivalent  to a cutoff of  13.87, 13.87, 13.53 a.u.
   NGXF,Y,Z  is equivalent  to a cutoff of  27.73, 27.73, 27.07 a.u.

 SYSTEM =  unknown system                          
 POSCAR =  Fe12 O18                                

 Startparameter for this run:
   NWRITE =      2    write-flag & timer
   PREC   = accura    normal or accurate (medium, high low for compatibility)
   ISTART =      0    job   : 0-new  1-cont  2-samecut
   ICHARG =      2    charge: 1-file 2-atom 10-const
   ISPIN  =      2    spin polarized calculation?
   LNONCOLLINEAR =      F non collinear calculations
   LSORBIT =      F    spin-orbit coupling
   INIWAV =      1    electr: 0-lowe 1-rand  2-diag
   LASPH  =      F    aspherical Exc in radial PAW
   METAGGA=      F    non-selfconsistent MetaGGA calc.

 Electronic Relaxation 1
   ENCUT  =  620.0 eV  45.57 Ry    6.75 a.u.  10.22 10.22 27.93*2*pi/ulx,y,z
   ENINI  =  620.0     initial cutoff
   ENAUG  =  605.4 eV  augmentation charge cutoff
   NELM   =    100;   NELMIN=  2; NELMDL= -5     # of ELM steps 
   EDIFF  = 0.1E-06   stopping-criterion for ELM
   LREAL  =      T    real-space projection
   NLSPLINE    = F    spline interpolate recip. space projectors
   LCOMPAT=      F    compatible to vasp.4.4
   GGA_COMPAT  = T    GGA compatible to vasp.4.4-vasp.4.6
   LMAXPAW     = -100 max onsite density
   LMAXMIX     =    2 max onsite mixed and CHGCAR
   VOSKOWN=      0    Vosko Wilk Nusair interpolation
   ROPT   =   -0.00025  -0.00025
 Ionic relaxation
   EDIFFG = 0.1E-05   stopping-criterion for IOM
   NSW    =      0    number of steps for IOM
   NBLOCK =      1;   KBLOCK =      1    inner block; outer block 
   IBRION =     -1    ionic relax: 0-MD 1-quasi-New 2-CG
   NFREE  =      0    steps in history (QN), initial steepest desc. (CG)
   ISIF   =      3    stress and relaxation
   IWAVPR =     10    prediction:  0-non 1-charg 2-wave 3-comb
   ISYM   =      2    0-nonsym 1-usesym 2-fastsym
   LCORR  =      T    Harris-Foulkes like correction to forces

   POTIM  = 0.5000    time-step for ionic-motion
   TEIN   =    0.0    initial temperature
   TEBEG  =    0.0;   TEEND  =   0.0 temperature during run
   SMASS  =  -3.00    Nose mass-parameter (am)
   estimated Nose-frequenzy (Omega)   =  0.10E-29 period in steps =****** mass=  -0.579E-27a.u.
   SCALEE = 1.0000    scale energy and forces
   NPACO  =    256;   APACO  = 16.0  distance and # of slots for P.C.
   PSTRESS=    0.0 pullay stress

  Mass of Ions in am
   POMASS =  55.85 16.00
  Ionic Valenz
   ZVAL   =  14.00  6.00
  Atomic Wigner-Seitz radii
   RWIGS  =  -1.00 -1.00
  virtual crystal weights 
   VCA    =   1.00  1.00
   NELECT =     276.0000    total number of electrons
   NUPDOWN=      -1.0000    fix difference up-down

 DOS related values:
   EMIN   =  10.00;   EMAX   =-10.00  energy-range for DOS
   EFERMI =   0.00
   ISMEAR =    -5;   SIGMA  =   0.05  broadening in eV -4-tet -1-fermi 0-gaus

 Electronic relaxation 2 (details)
   IALGO  =     38    algorithm
   LDIAG  =      T    sub-space diagonalisation (order eigenvalues)
   LSUBROT=      F    optimize rotation matrix (better conditioning)
   TURBO    =      0    0=normal 1=particle mesh
   IRESTART =      0    0=no restart 2=restart with 2 vectors
   NREBOOT  =      0    no. of reboots
   NMIN     =      0    reboot dimension
   EREF     =   0.00    reference energy to select bands
   IMIX   =      4    mixing-type and parameters
     AMIX     =   0.40;   BMIX     =  1.00
     AMIX_MAG =   1.60;   BMIX_MAG =  1.00
     AMIN     =   0.10
     WC   =   100.;   INIMIX=   1;  MIXPRE=   1;  MAXMIX= -45

 Intra band minimization:
   WEIMIN = 0.0000     energy-eigenvalue tresh-hold
   EBREAK =  0.12E-09  absolut break condition
   DEPER  =   0.30     relativ break condition  

   TIME   =   0.40     timestep for ELM

  volume/ion in A,a.u.               =      10.07        67.95
  Fermi-wavevector in a.u.,A,eV,Ry     =   1.588581  3.001983 34.335534  2.523591
  Thomas-Fermi vector in A             =   2.687563
 
 Write flags
   LWAVE        =      F    write WAVECAR
   LDOWNSAMPLE  =      F    k-point downsampling of WAVECAR
   LCHARG       =      F    write CHGCAR
   LVTOT        =      F    write LOCPOT, total local potential
   LVHAR        =      F    write LOCPOT, Hartree potential only
   LELF         =      F    write electronic localiz. function (ELF)
   LORBIT       =     11    0 simple, 1 ext, 2 COOP (PROOUT), +10 PAW based schemes


 Dipole corrections
   LMONO  =      F    monopole corrections only (constant potential shift)
   LDIPOL =      F    correct potential (dipole corrections)
   IDIPOL =      0    1-x, 2-y, 3-z, 4-all directions 
   EPSILON=  1.0000000 bulk dielectric constant

 Exchange correlation treatment:
   GGA     =    --    GGA type
   LEXCH   =     8    internal setting for exchange type
   VOSKOWN=      0    Vosko Wilk Nusair interpolation
   LHFCALC =     F    Hartree Fock is set to
   LHFONE  =     F    Hartree Fock one center treatment
   AEXX    =    0.0000 exact exchange contribution

 Linear response parameters
   LEPSILON=     F    determine dielectric tensor
   LRPA    =     F    only Hartree local field effects (RPA)
   LNABLA  =     F    use nabla operator in PAW spheres
   LVEL    =     F    velocity operator in full k-point grid
   LINTERFAST=   F  fast interpolation
   KINTER  =     0    interpolate to denser k-point grid
   CSHIFT  =0.1000    complex shift for real part using Kramers Kronig
   OMEGAMAX=  -1.0    maximum frequency
   DEG_THRESHOLD= 0.2000000E-02 threshold for treating states as degnerate
   RTIME   =   -0.100 relaxation time in fs
  (WPLASMAI=    0.000 imaginary part of plasma frequency in eV, 0.658/RTIME)
   DFIELD  = 0.0000000 0.0000000 0.0000000 field for delta impulse in time
 
 Orbital magnetization related:
   ORBITALMAG=     F  switch on orbital magnetization
   LCHIMAG   =     F  perturbation theory with respect to B field
   DQ        =  0.001000  dq finite difference perturbation B field
   LLRAUG    =     F  two centre corrections for induced B field



--------------------------------------------------------------------------------------------------------


 Static calculation
 charge density and potential will be updated during run
 spin polarized calculation
 Variant of blocked Davidson
 Davidson routine will perform the subspace rotation
 perform sub-space diagonalisation
    after iterative eigenvector-optimisation
 modified Broyden-mixing scheme, WC =      100.0
 initial mixing is a Kerker type mixing with AMIX =  0.4000 and BMIX =      1.0000
 Hartree-type preconditioning will be used
 using additional bands           66
 real space projection scheme for non local part
 use partial core corrections
 calculate Harris-corrections to forces 
   (improved forces if not selfconsistent)
 use gradient corrections 
 use of overlap-Matrix (Vanderbilt PP)
 Fermi weights with tetrahedron method with Bloechl corrections


--------------------------------------------------------------------------------------------------------


  energy-cutoff  :      620.00
  volume of cell :      302.07
      direct lattice vectors                 reciprocal lattice vectors
     5.035100000  0.000000000  0.000000000     0.198605787  0.114665118  0.000000000
    -2.517550000  4.360524000  0.000000000     0.000000000  0.229330236  0.000000000
     0.000000000  0.000000000 13.758100000     0.000000000  0.000000000  0.072684455

  length of vectors
     5.035100000  5.035099558 13.758100000     0.229330216  0.229330236  0.072684455


 
 k-points in units of 2pi/SCALE and weight: pymatgen with grid density = 2464 / numb
   0.00000000  0.00000000  0.00000000       0.014
   0.03310096  0.01911085  0.00000000       0.083
   0.06620193  0.03822171  0.00000000       0.083
   0.09930289  0.05733256  0.00000000       0.042
   0.03310096  0.05733256  0.00000000       0.083
   0.06620193  0.07644341  0.00000000       0.167
   0.06620193  0.11466512  0.00000000       0.028
   0.00000000  0.00000000  0.03634223       0.014
   0.03310096  0.01911085  0.03634223       0.083
   0.06620193  0.03822171  0.03634223       0.083
   0.09930289  0.05733256  0.03634223       0.042
   0.03310096  0.05733256  0.03634223       0.083
   0.06620193  0.07644341  0.03634223       0.167
   0.06620193  0.11466512  0.03634223       0.028
 
 k-points in reciprocal lattice and weights: pymatgen with grid density = 2464 / numb
   0.00000000  0.00000000  0.00000000       0.014
   0.16666667  0.00000000  0.00000000       0.083
   0.33333333  0.00000000  0.00000000       0.083
   0.50000000  0.00000000  0.00000000       0.042
   0.16666667  0.16666667  0.00000000       0.083
   0.33333333  0.16666667  0.00000000       0.167
   0.33333333  0.33333333  0.00000000       0.028
   0.00000000  0.00000000  0.50000000       0.014
   0.16666667  0.00000000  0.50000000       0.083
   0.33333333  0.00000000  0.50000000       0.083
   0.50000000  0.00000000  0.50000000       0.042
   0.16666667  0.16666667  0.50000000       0.083
   0.33333333  0.16666667  0.50000000       0.167
   0.33333333  0.33333333  0.50000000       0.028
 
 position of ions in fractional coordinates (direct lattice) 
   0.00000000  0.00000000  0.35532000
   0.00000000  0.00000000  0.64468000
   0.33333300  0.66666700  0.02198700
   0.66666700  0.33333300  0.68865300
   0.33333300  0.66666700  0.31134700
   0.66666700  0.33333300  0.97801300
   0.00000000  0.00000000  0.14468000
   0.00000000  0.00000000  0.85532000
   0.33333300  0.66666700  0.81134700
   0.33333300  0.66666700  0.52198700
   0.66666700  0.33333300  0.47801300
   0.66666700  0.33333300  0.18865300
   0.30618000  0.00000000  0.25000000
   0.69382000  0.00000000  0.75000000
   0.63951300  0.66666700  0.91666700
   0.97284700  0.33333300  0.58333300
   0.02715300  0.66666700  0.41666700
   0.36048700  0.33333300  0.08333300
   0.00000000  0.30618000  0.25000000
   0.00000000  0.69382000  0.75000000
   0.33333300  0.97284700  0.91666700
   0.66666700  0.63951300  0.58333300
   0.33333300  0.36048700  0.41666700
   0.66666700  0.02715300  0.08333300
   0.69382000  0.69382000  0.25000000
   0.30618000  0.30618000  0.75000000
   0.02715300  0.36048700  0.91666700
   0.63951300  0.97284700  0.41666700
   0.36048700  0.02715300  0.58333300
   0.97284700  0.63951300  0.08333300
 
 position of ions in cartesian coordinates  (Angst):
   0.00000000  0.00000000  4.88852809
   0.00000000  0.00000000  8.86957191
  -0.00000252  2.90701745  0.30249934
   2.51755252  1.45350655  9.47455684
  -0.00000252  2.90701745  4.28354316
   2.51755252  1.45350655 13.45560066
   0.00000000  0.00000000  1.99052191
   0.00000000  0.00000000 11.76757809
  -0.00000252  2.90701745 11.16259316
  -0.00000252  2.90701745  7.18154934
   2.51755252  1.45350655  6.57655066
   2.51755252  1.45350655  2.59550684
   1.54164692  0.00000000  3.43952500
   3.49345308  0.00000000 10.31857500
   1.54164440  2.90701745 12.61159625
   4.05919944  1.45350655  8.02555375
  -1.54164944  2.90701745  5.73254625
   0.97590560  1.45350655  1.14650375
  -0.77082346  1.33510524  3.43952500
  -1.74672654  3.02541876 10.31857500
  -0.77082598  4.24212269 12.61159625
   1.74672906  2.78861178  8.02555375
   0.77082094  1.57191222  5.73254625
   3.28837598  0.11840131  1.14650375
   1.74672654  3.02541876  3.43952500
   0.77082346  1.33510524 10.31857500
  -0.77082598  1.57191222 12.61159625
   0.77082094  4.24212269  5.73254625
   1.74672906  0.11840131  8.02555375
   3.28837598  2.78861178  1.14650375
 


--------------------------------------------------------------------------------------------------------


 k-point  1 :   0.0000 0.0000 0.0000  plane waves:   10573
 k-point  2 :   0.1667 0.0000 0.0000  plane waves:   10590
 k-point  3 :   0.3333 0.0000 0.0000  plane waves:   10592
 k-point  4 :   0.5000 0.0000 0.0000  plane waves:   10612
 k-point  5 :   0.1667 0.1667 0.0000  plane waves:   10576
 k-point  6 :   0.3333 0.1667 0.0000  plane waves:   10588
 k-point  7 :   0.3333 0.3333 0.0000  plane waves:   10578
 k-point  8 :   0.0000 0.0000 0.5000  plane waves:   10592
 k-point  9 :   0.1667 0.0000 0.5000  plane waves:   10566
 k-point 10 :   0.3333 0.0000 0.5000  plane waves:   10588
 k-point 11 :   0.5000 0.0000 0.5000  plane waves:   10612
 k-point 12 :   0.1667 0.1667 0.5000  plane waves:   10596
 k-point 13 :   0.3333 0.1667 0.5000  plane waves:   10584
 k-point 14 :   0.3333 0.3333 0.5000  plane waves:   10584

 maximum and minimum number of plane-waves per node :      2681     2610

 maximum number of plane-waves:     10612
 maximum index in each direction: 
   IXMAX=   10   IYMAX=   10   IZMAX=   27
   IXMIN=  -10   IYMIN=  -10   IZMIN=  -28


 real space projection operators:
  total allocation   :      14885.25 KBytes
  max/ min on nodes  :       3873.22       3566.28


 parallel 3D FFT for wavefunctions:
    minimum data exchange during FFTs selected (reduces bandwidth)
 parallel 3D FFT for charge:
    minimum data exchange during FFTs selected (reduces bandwidth)


 total amount of memory used by VASP MPI-rank0    94523. kBytes
=======================================================================

   base      :      30000. kBytes
   nonlr-proj:       8026. kBytes
   fftplans  :       3991. kBytes
   grid      :      10218. kBytes
   one-center:        248. kBytes
   wavefun   :      42040. kBytes
 
     INWAV:  cpu time    0.0000: real time    0.0001
 Broyden mixing: mesh for mixing (old mesh)
   NGX = 21   NGY = 21   NGZ = 55
  (NGX  = 84   NGY  = 84   NGZ  =224)
  gives a total of  24255 points

 initial charge density was supplied:
 charge density of overlapping atoms calculated
 number of electron     276.0000000 magnetization      70.8000000
 keeping initial charge density in first step


--------------------------------------------------------------------------------------------------------


 Maximum index for non-local projection operator         1734
 Maximum index for augmentation-charges         1207 (set IRDMAX)


--------------------------------------------------------------------------------------------------------


 First call to EWALD:  gamma=   0.264
 Maximum number of real-space cells 4x 4x 2
 Maximum number of reciprocal cells 2x 2x 5

    FEWALD:  cpu time    0.0018: real time    0.0018


--------------------------------------- Iteration      1(   1)  ---------------------------------------


    POTLOK:  cpu time    0.0950: real time    0.0972
    SETDIJ:  cpu time    0.0131: real time    0.0132
     EDDAV:  cpu time   13.7314: real time   13.7767
 BZINTS: Fermi energy: 29.750151;276.000000 electrons
         Band energy:1490.547778;  BLOECHL correction: -0.083079
       DOS:  cpu time    0.0453: real time    0.0454
    --------------------------------------------
      LOOP:  cpu time   13.8848: real time   13.9324

 eigenvalue-minimisations  : 11484
 total energy-change (2. order) : 0.4506939E+04  (-0.1521754E+05)
 number of electron     276.0000000 magnetization      70.8000000
 augmentation part      276.0000000 magnetization      70.8000000

 Free energy of the ion-electron system (eV)
  ---------------------------------------------------
  alpha Z        PSCENC =      1362.55286497
  Ewald energy   TEWEN  =    -25513.06237826
  -Hartree energ DENC   =    -10371.14386019
  -exchange      EXHF   =         0.00000000
  -V(xc)+E(xc)   XCENC  =      1375.27779342
  PAW double counting   =     30224.59406688   -31333.39571732
  entropy T*S    EENTRO =         0.00000000
  eigenvalues    EBANDS =      1490.54777814
  atomic energy  EATOM  =     37271.56874335
  Solvation  Ediel_sol  =         0.00000000
  ---------------------------------------------------
  free energy    TOTEN  =      4506.93929100 eV

  energy without entropy =     4506.93929100  energy(sigma->0) =     4506.93929100


--------------------------------------------------------------------------------------------------------




--------------------------------------- Iteration      1(   2)  ---------------------------------------


     EDDAV:  cpu time   13.8985: real time   13.9345
 BZINTS: Fermi energy: 11.639800;276.000000 electrons
         Band energy:***********;  BLOECHL correction: -0.035066
       DOS:  cpu time    0.0461: real time    0.0462
    --------------------------------------------
      LOOP:  cpu time   13.9446: real time   13.9807

 eigenvalue-minimisations  : 11424
 total energy-change (2. order) :-0.4008571E+04  (-0.3649924E+04)
 number of electron     276.0000000 magnetization      70.8000000
 augmentation part      276.0000000 magnetization      70.8000000

 Free energy of the ion-electron system (eV)
  ---------------------------------------------------
  alpha Z        PSCENC =      1362.55286497
  Ewald energy   TEWEN  =    -25513.06237826
  -Hartree energ DENC   =    -10371.14386019
  -exchange      EXHF   =         0.00000000
  -V(xc)+E(xc)   XCENC  =      1375.27779342
  PAW double counting   =     30224.59406688   -31333.39571732
  entropy T*S    EENTRO =         0.00000000
  eigenvalues    EBANDS =     -2518.02357558
  atomic energy  EATOM  =     37271.56874335
  Solvation  Ediel_sol  =         0.00000000
  ---------------------------------------------------
  free energy    TOTEN  =       498.36793728 eV

  energy without entropy =      498.36793728  energy(sigma->0) =      498.36793728


--------------------------------------------------------------------------------------------------------




--------------------------------------- Iteration      1(   3)  ---------------------------------------


     EDDAV:  cpu time   14.1962: real time   14.2322
 BZINTS: Fermi energy:  8.669694;276.000000 electrons
         Band energy:***********;  BLOECHL correction:  0.000000
       DOS:  cpu time    0.0073: real time    0.0073
    --------------------------------------------
      LOOP:  cpu time   14.2034: real time   14.2395

 eigenvalue-minimisations  : 11844
 total energy-change (2. order) :-0.7429850E+03  (-0.6547140E+03)
 number of electron     276.0000000 magnetization      70.8000000
 augmentation part      276.0000000 magnetization      70.8000000

 Free energy of the ion-electron system (eV)
  ---------------------------------------------------
  alpha Z        PSCENC =      1362.55286497
  Ewald energy   TEWEN  =    -25513.06237826
  -Hartree energ DENC   =    -10371.14386019
  -exchange      EXHF   =         0.00000000
  -V(xc)+E(xc)   XCENC  =      1375.27779342
  PAW double counting   =     30224.59406688   -31333.39571732
  entropy T*S    EENTRO =         0.00000000
  eigenvalues    EBANDS =     -3261.00859927
  atomic energy  EATOM  =     37271.56874335
  Solvation  Ediel_sol  =         0.00000000
  ---------------------------------------------------
  free energy    TOTEN  =      -244.61708642 eV

  energy without entropy =     -244.61708642  energy(sigma->0) =     -244.61708642


--------------------------------------------------------------------------------------------------------




--------------------------------------- Iteration      1(   4)  ---------------------------------------


     EDDAV:  cpu time   14.4440: real time   14.4810
 BZINTS: Fermi energy:  8.230162;276.000000 electrons
         Band energy:***********;  BLOECHL correction:  0.000000
       DOS:  cpu time    0.0062: real time    0.0062
    --------------------------------------------
      LOOP:  cpu time   14.4502: real time   14.4872

 eigenvalue-minimisations  : 12948
 total energy-change (2. order) :-0.4926108E+02  (-0.4868314E+02)
 number of electron     276.0000000 magnetization      70.8000000
 augmentation part      276.0000000 magnetization      70.8000000

 Free energy of the ion-electron system (eV)
  ---------------------------------------------------
  alpha Z        PSCENC =      1362.55286497
  Ewald energy   TEWEN  =    -25513.06237826
  -Hartree energ DENC   =    -10371.14386019
  -exchange      EXHF   =         0.00000000
  -V(xc)+E(xc)   XCENC  =      1375.27779342
  PAW double counting   =     30224.59406688   -31333.39571732
  entropy T*S    EENTRO =         0.00000000
  eigenvalues    EBANDS =     -3310.26967631
  atomic energy  EATOM  =     37271.56874335
  Solvation  Ediel_sol  =         0.00000000
  ---------------------------------------------------
  free energy    TOTEN  =      -293.87816346 eV

  energy without entropy =     -293.87816346  energy(sigma->0) =     -293.87816346


--------------------------------------------------------------------------------------------------------




--------------------------------------- Iteration      1(   5)  ---------------------------------------


     EDDAV:  cpu time   14.8336: real time   14.8718
 BZINTS: Fermi energy:  8.325382;276.000000 electrons
         Band energy:***********;  BLOECHL correction:  0.000000
       DOS:  cpu time    0.0073: real time    0.0073
    CHARGE:  cpu time    0.5077: real time    0.5089
    MIXING:  cpu time    0.0024: real time    0.0024
    --------------------------------------------
      LOOP:  cpu time   15.3510: real time   15.3905

 eigenvalue-minimisations  : 12780
 total energy-change (2. order) :-0.5545033E+00  (-0.5530150E+00)
 number of electron     276.0000091 magnetization      67.8179417
 augmentation part      108.0238286 magnetization      47.0430078

 Broyden mixing:
  rms(total) = 0.80956E+01    rms(broyden)= 0.80954E+01
  rms(prec ) = 0.88416E+01
  weight for this iteration     100.00

 Free energy of the ion-electron system (eV)
  ---------------------------------------------------
  alpha Z        PSCENC =      1362.55286497
  Ewald energy   TEWEN  =    -25513.06237826
  -Hartree energ DENC   =    -10371.14386019
  -exchange      EXHF   =         0.00000000
  -V(xc)+E(xc)   XCENC  =      1375.27779342
  PAW double counting   =     30224.59406688   -31333.39571732
  entropy T*S    EENTRO =         0.00000000
  eigenvalues    EBANDS =     -3310.82417956
  atomic energy  EATOM  =     37271.56874335
  Solvation  Ediel_sol  =         0.00000000
  ---------------------------------------------------
  free energy    TOTEN  =      -294.43266671 eV

  energy without entropy =     -294.43266671  energy(sigma->0) =     -294.43266671


--------------------------------------------------------------------------------------------------------




--------------------------------------- Iteration      1(   6)  ---------------------------------------


    POTLOK:  cpu time    0.0907: real time    0.0910
    SETDIJ:  cpu time    0.0135: real time    0.0136
     EDDAV:  cpu time   16.7376: real time   16.7801
 BZINTS: Fermi energy:  5.535914;276.000000 electrons
         Band energy:***********;  BLOECHL correction: -0.054342
       DOS:  cpu time    0.0472: real time    0.0473
    CHARGE:  cpu time    0.5203: real time    0.5217
    MIXING:  cpu time    0.0022: real time    0.0022
    --------------------------------------------
      LOOP:  cpu time   17.4116: real time   17.4559

 eigenvalue-minimisations  : 14796
 total energy-change (2. order) : 0.5910659E+02  (-0.2533429E+02)
 number of electron     276.0000119 magnetization      62.9825453
 augmentation part      120.7373498 magnetization      54.4239148

 Broyden mixing:
  rms(total) = 0.91354E+01    rms(broyden)= 0.91351E+01
  rms(prec ) = 0.97862E+01
  weight for this iteration     100.00

 eigenvalues of (default mixing * dielectric matrix)
  average eigenvalue GAMMA=   0.3183
  0.3183

 Free energy of the ion-electron system (eV)
  ---------------------------------------------------
  alpha Z        PSCENC =      1362.55286497
  Ewald energy   TEWEN  =    -25513.06237826
  -Hartree energ DENC   =     -9965.90818171
  -exchange      EXHF   =         0.00000000
  -V(xc)+E(xc)   XCENC  =      1376.65484189
  PAW double counting   =     31436.24401759   -32503.17070777
  entropy T*S    EENTRO =         0.00000000
  eigenvalues    EBANDS =     -3700.20528174
  atomic energy  EATOM  =     37271.56874335
  Solvation  Ediel_sol  =         0.00000000
  ---------------------------------------------------
  free energy    TOTEN  =      -235.32608167 eV

  energy without entropy =     -235.32608167  energy(sigma->0) =     -235.32608167


--------------------------------------------------------------------------------------------------------




--------------------------------------- Iteration      1(   7)  ---------------------------------------


    POTLOK:  cpu time    0.0910: real time    0.0915
    SETDIJ:  cpu time    0.0134: real time    0.0135
     EDDAV:  cpu time   14.7030: real time   14.7404
 BZINTS: Fermi energy:  7.084840;276.000000 electrons
         Band energy:***********;  BLOECHL correction: -0.036212
       DOS:  cpu time    0.0500: real time    0.0501
    CHARGE:  cpu time    0.5134: real time    0.5146
    MIXING:  cpu time    0.0022: real time    0.0022
    --------------------------------------------
      LOOP:  cpu time   15.3730: real time   15.4122

 eigenvalue-minimisations  : 12276
 total energy-change (2. order) : 0.2359232E+02  (-0.1143568E+02)
 number of electron     276.0000097 magnetization      58.7924845
 augmentation part      109.3564151 magnetization      40.3080746

 Broyden mixing:
  rms(total) = 0.43727E+01    rms(broyden)= 0.43726E+01
  rms(prec ) = 0.45329E+01
  weight for this iteration     100.00

 eigenvalues of (default mixing * dielectric matrix)
  average eigenvalue GAMMA=   0.6791
  1.0283  0.3298

 Free energy of the ion-electron system (eV)
  ---------------------------------------------------
  alpha Z        PSCENC =      1362.55286497
  Ewald energy   TEWEN  =    -25513.06237826
  -Hartree energ DENC   =    -10208.08661100
  -exchange      EXHF   =         0.00000000
  -V(xc)+E(xc)   XCENC  =      1372.41251179
  PAW double counting   =     32869.64417070   -33998.15466792
  entropy T*S    EENTRO =         0.00000000
  eigenvalues    EBANDS =     -3368.60839569
  atomic energy  EATOM  =     37271.56874335
  Solvation  Ediel_sol  =         0.00000000
  ---------------------------------------------------
  free energy    TOTEN  =      -211.73376206 eV

  energy without entropy =     -211.73376206  energy(sigma->0) =     -211.73376206


--------------------------------------------------------------------------------------------------------




--------------------------------------- Iteration      1(   8)  ---------------------------------------


    POTLOK:  cpu time    0.0872: real time    0.0875
    SETDIJ:  cpu time    0.0127: real time    0.0127
     EDDAV:  cpu time   14.4416: real time   14.4784
 BZINTS: Fermi energy:  6.451357;276.000000 electrons
         Band energy:***********;  BLOECHL correction: -0.034176
       DOS:  cpu time    0.0468: real time    0.0469
    CHARGE:  cpu time    0.5161: real time    0.5173
    MIXING:  cpu time    0.0022: real time    0.0022
    --------------------------------------------
      LOOP:  cpu time   15.1067: real time   15.1452

 eigenvalue-minimisations  : 12144
 total energy-change (2. order) :-0.6544406E+01  (-0.2136215E+01)
 number of electron     276.0000100 magnetization      51.9208116
 augmentation part      111.2664423 magnetization      35.0015490

 Broyden mixing:
  rms(total) = 0.26484E+01    rms(broyden)= 0.26484E+01
  rms(prec ) = 0.27088E+01
  weight for this iteration     100.00

 eigenvalues of (default mixing * dielectric matrix)
  average eigenvalue GAMMA=   1.0784
  2.2689  0.5844  0.3820

 Free energy of the ion-electron system (eV)
  ---------------------------------------------------
  alpha Z        PSCENC =      1362.55286497
  Ewald energy   TEWEN  =    -25513.06237826
  -Hartree energ DENC   =    -10073.24401762
  -exchange      EXHF   =         0.00000000
  -V(xc)+E(xc)   XCENC  =      1366.44317556
  PAW double counting   =     34231.57487079   -35371.88739891
  entropy T*S    EENTRO =         0.00000000
  eigenvalues    EBANDS =     -3492.22402747
  atomic energy  EATOM  =     37271.56874335
  Solvation  Ediel_sol  =         0.00000000
  ---------------------------------------------------
  free energy    TOTEN  =      -218.27816761 eV

  energy without entropy =     -218.27816761  energy(sigma->0) =     -218.27816761


--------------------------------------------------------------------------------------------------------




--------------------------------------- Iteration      1(   9)  ---------------------------------------


    POTLOK:  cpu time    0.0900: real time    0.0916
    SETDIJ:  cpu time    0.0132: real time    0.0132
     EDDAV:  cpu time   15.3415: real time   15.3805
 BZINTS: Fermi energy:  5.877770;276.000000 electrons
         Band energy:***********;  BLOECHL correction: -0.039080
       DOS:  cpu time    0.0485: real time    0.0486
    CHARGE:  cpu time    0.5146: real time    0.5158
    MIXING:  cpu time    0.0024: real time    0.0024
    --------------------------------------------
      LOOP:  cpu time   16.0101: real time   16.0521

 eigenvalue-minimisations  : 12636
 total energy-change (2. order) :-0.4225045E+01  (-0.8280335E+00)
 number of electron     276.0000106 magnetization      50.9271807
 augmentation part      114.1649957 magnetization      37.8385359

 Broyden mixing:
  rms(total) = 0.27348E+01    rms(broyden)= 0.27348E+01
  rms(prec ) = 0.28673E+01
  weight for this iteration     100.00

 eigenvalues of (default mixing * dielectric matrix)
  average eigenvalue GAMMA=   1.1009
  2.8499  0.8035  0.3752  0.3752

 Free energy of the ion-electron system (eV)
  ---------------------------------------------------
  alpha Z        PSCENC =      1362.55286497
  Ewald energy   TEWEN  =    -25513.06237826
  -Hartree energ DENC   =     -9932.75523197
  -exchange      EXHF   =         0.00000000
  -V(xc)+E(xc)   XCENC  =      1362.35032415
  PAW double counting   =     36528.35041603   -37697.52209486
  entropy T*S    EENTRO =         0.00000000
  eigenvalues    EBANDS =     -3603.98585611
  atomic energy  EATOM  =     37271.56874335
  Solvation  Ediel_sol  =         0.00000000
  ---------------------------------------------------
  free energy    TOTEN  =      -222.50321270 eV

  energy without entropy =     -222.50321270  energy(sigma->0) =     -222.50321270


--------------------------------------------------------------------------------------------------------




--------------------------------------- Iteration      1(  10)  ---------------------------------------


    POTLOK:  cpu time    0.0901: real time    0.0904
    SETDIJ:  cpu time    0.0134: real time    0.0134
     EDDAV:  cpu time   14.7368: real time   14.7742
 BZINTS: Fermi energy:  5.958733;276.000000 electrons
         Band energy:***********;  BLOECHL correction: -0.037331
       DOS:  cpu time    0.0510: real time    0.0511
    CHARGE:  cpu time    0.5156: real time    0.5170
    MIXING:  cpu time    0.0025: real time    0.0025
    --------------------------------------------
      LOOP:  cpu time   15.4093: real time   15.4485

 eigenvalue-minimisations  : 12564
 total energy-change (2. order) : 0.3755036E+00  (-0.2479184E+00)
 number of electron     276.0000105 magnetization      50.6189194
 augmentation part      113.4316648 magnetization      37.3203276

 Broyden mixing:
  rms(total) = 0.18652E+01    rms(broyden)= 0.18652E+01
  rms(prec ) = 0.19767E+01
  weight for this iteration     100.00

 eigenvalues of (default mixing * dielectric matrix)
  average eigenvalue GAMMA=   1.0188
  2.6165  0.3736  0.7703  0.6668  0.6668

 Free energy of the ion-electron system (eV)
  ---------------------------------------------------
  alpha Z        PSCENC =      1362.55286497
  Ewald energy   TEWEN  =    -25513.06237826
  -Hartree energ DENC   =     -9948.97477259
  -exchange      EXHF   =         0.00000000
  -V(xc)+E(xc)   XCENC  =      1360.91076659
  PAW double counting   =     36553.32588626   -37725.70948025
  entropy T*S    EENTRO =         0.00000000
  eigenvalues    EBANDS =     -3582.73933914
  atomic energy  EATOM  =     37271.56874335
  Solvation  Ediel_sol  =         0.00000000
  ---------------------------------------------------
  free energy    TOTEN  =      -222.12770906 eV

  energy without entropy =     -222.12770906  energy(sigma->0) =     -222.12770906


--------------------------------------------------------------------------------------------------------




--------------------------------------- Iteration      1(  11)  ---------------------------------------


    POTLOK:  cpu time    0.0903: real time    0.0907
    SETDIJ:  cpu time    0.0134: real time    0.0135
     EDDAV:  cpu time   16.2268: real time   16.2677
 BZINTS: Fermi energy:  6.020248;276.000000 electrons
         Band energy:***********;  BLOECHL correction: -0.034076
       DOS:  cpu time    0.0511: real time    0.0512
    CHARGE:  cpu time    0.5161: real time    0.5175
    MIXING:  cpu time    0.0025: real time    0.0025
    --------------------------------------------
      LOOP:  cpu time   16.9002: real time   16.9432

 eigenvalue-minimisations  : 14244
 total energy-change (2. order) : 0.5706251E+00  (-0.2337510E-01)
 number of electron     276.0000104 magnetization      49.3104819
 augmentation part      113.0109220 magnetization      35.6258408

 Broyden mixing:
  rms(total) = 0.12227E+01    rms(broyden)= 0.12227E+01
  rms(prec ) = 0.12966E+01
  weight for this iteration     100.00

 eigenvalues of (default mixing * dielectric matrix)
  average eigenvalue GAMMA=   1.0457
  2.5822  0.9736  0.9736  0.3786  0.7986  0.5675

 Free energy of the ion-electron system (eV)
  ---------------------------------------------------
  alpha Z        PSCENC =      1362.55286497
  Ewald energy   TEWEN  =    -25513.06237826
  -Hartree energ DENC   =     -9960.09254223
  -exchange      EXHF   =         0.00000000
  -V(xc)+E(xc)   XCENC  =      1360.23438283
  PAW double counting   =     36383.43605252   -37553.81757057
  entropy T*S    EENTRO =         0.00000000
  eigenvalues    EBANDS =     -3572.37663653
  atomic energy  EATOM  =     37271.56874335
  Solvation  Ediel_sol  =         0.00000000
  ---------------------------------------------------
  free energy    TOTEN  =      -221.55708392 eV

  energy without entropy =     -221.55708392  energy(sigma->0) =     -221.55708392


--------------------------------------------------------------------------------------------------------




--------------------------------------- Iteration      1(  12)  ---------------------------------------


    POTLOK:  cpu time    0.0901: real time    0.0905
    SETDIJ:  cpu time    0.0135: real time    0.0136
     EDDAV:  cpu time   16.6383: real time   16.6804
 BZINTS: Fermi energy:  6.080365;276.000000 electrons
         Band energy:***********;  BLOECHL correction: -0.033510
       DOS:  cpu time    0.0498: real time    0.0500
    CHARGE:  cpu time    0.5106: real time    0.5118
    MIXING:  cpu time    0.0024: real time    0.0024
    --------------------------------------------
      LOOP:  cpu time   17.3046: real time   17.3486

 eigenvalue-minimisations  : 15180
 total energy-change (2. order) : 0.2033084E+00  (-0.1944145E-01)
 number of electron     276.0000104 magnetization      46.8337689
 augmentation part      112.6905232 magnetization      33.0483034

 Broyden mixing:
  rms(total) = 0.85065E+00    rms(broyden)= 0.85065E+00
  rms(prec ) = 0.89225E+00
  weight for this iteration     100.00

 eigenvalues of (default mixing * dielectric matrix)
  average eigenvalue GAMMA=   1.0990
  2.0660  1.8229  1.4023  0.3772  0.7508  0.6368  0.6368

 Free energy of the ion-electron system (eV)
  ---------------------------------------------------
  alpha Z        PSCENC =      1362.55286497
  Ewald energy   TEWEN  =    -25513.06237826
  -Hartree energ DENC   =     -9973.21732183
  -exchange      EXHF   =         0.00000000
  -V(xc)+E(xc)   XCENC  =      1359.59831115
  PAW double counting   =     36268.02480458   -37437.36564315
  entropy T*S    EENTRO =         0.00000000
  eigenvalues    EBANDS =     -3559.45315631
  atomic energy  EATOM  =     37271.56874335
  Solvation  Ediel_sol  =         0.00000000
  ---------------------------------------------------
  free energy    TOTEN  =      -221.35377550 eV

  energy without entropy =     -221.35377550  energy(sigma->0) =     -221.35377550


--------------------------------------------------------------------------------------------------------




--------------------------------------- Iteration      1(  13)  ---------------------------------------


    POTLOK:  cpu time    0.0869: real time    0.0877
    SETDIJ:  cpu time    0.0133: real time    0.0133
     EDDAV:  cpu time   15.6712: real time   15.7114
 BZINTS: Fermi energy:  6.141460;276.000000 electrons
         Band energy:***********;  BLOECHL correction: -0.034469
       DOS:  cpu time    0.0508: real time    0.0509
    CHARGE:  cpu time    0.5157: real time    0.5169
    MIXING:  cpu time    0.0027: real time    0.0027
    --------------------------------------------
      LOOP:  cpu time   16.3405: real time   16.3829

 eigenvalue-minimisations  : 13992
 total energy-change (2. order) : 0.4194736E-02  (-0.1160263E-01)
 number of electron     276.0000103 magnetization      43.9289179
 augmentation part      112.4111562 magnetization      30.3902034

 Broyden mixing:
  rms(total) = 0.46424E+00    rms(broyden)= 0.46424E+00
  rms(prec ) = 0.48743E+00
  weight for this iteration     100.00

 eigenvalues of (default mixing * dielectric matrix)
  average eigenvalue GAMMA=   1.3989
  3.4804  3.4229  0.3775  0.9317  0.9317  0.7229  0.7229  0.6011

 Free energy of the ion-electron system (eV)
  ---------------------------------------------------
  alpha Z        PSCENC =      1362.55286497
  Ewald energy   TEWEN  =    -25513.06237826
  -Hartree energ DENC   =     -9991.58435608
  -exchange      EXHF   =         0.00000000
  -V(xc)+E(xc)   XCENC  =      1358.76184052
  PAW double counting   =     36035.22724510   -37201.49628796
  entropy T*S    EENTRO =         0.00000000
  eigenvalues    EBANDS =     -3543.31725241
  atomic energy  EATOM  =     37271.56874335
  Solvation  Ediel_sol  =         0.00000000
  ---------------------------------------------------
  free energy    TOTEN  =      -221.34958076 eV

  energy without entropy =     -221.34958076  energy(sigma->0) =     -221.34958076


--------------------------------------------------------------------------------------------------------




--------------------------------------- Iteration      1(  14)  ---------------------------------------


    POTLOK:  cpu time    0.0896: real time    0.0903
    SETDIJ:  cpu time    0.0132: real time    0.0132
     EDDAV:  cpu time   17.2475: real time   17.2917
 BZINTS: Fermi energy:  6.173743;276.000000 electrons
         Band energy:***********;  BLOECHL correction: -0.032748
       DOS:  cpu time    0.0483: real time    0.0484
    CHARGE:  cpu time    0.5163: real time    0.5175
    MIXING:  cpu time    0.0030: real time    0.0030
    --------------------------------------------
      LOOP:  cpu time   17.9179: real time   17.9641

 eigenvalue-minimisations  : 14796
 total energy-change (2. order) :-0.4585830E-01  (-0.1608411E-01)
 number of electron     276.0000103 magnetization      43.0314254
 augmentation part      112.2262393 magnetization      29.8747051

 Broyden mixing:
  rms(total) = 0.17627E+00    rms(broyden)= 0.17625E+00
  rms(prec ) = 0.18352E+00
  weight for this iteration     100.00

 eigenvalues of (default mixing * dielectric matrix)
  average eigenvalue GAMMA=   1.5079
  5.3609  2.7785  1.2346  0.3775  0.8417  0.8417  0.8807  0.6277  0.6277

 Free energy of the ion-electron system (eV)
  ---------------------------------------------------
  alpha Z        PSCENC =      1362.55286497
  Ewald energy   TEWEN  =    -25513.06237826
  -Hartree energ DENC   =    -10004.17371648
  -exchange      EXHF   =         0.00000000
  -V(xc)+E(xc)   XCENC  =      1357.66541508
  PAW double counting   =     35834.81928164   -36998.07324225
  entropy T*S    EENTRO =         0.00000000
  eigenvalues    EBANDS =     -3532.69240711
  atomic energy  EATOM  =     37271.56874335
  Solvation  Ediel_sol  =         0.00000000
  ---------------------------------------------------
  free energy    TOTEN  =      -221.39543906 eV

  energy without entropy =     -221.39543906  energy(sigma->0) =     -221.39543906


--------------------------------------------------------------------------------------------------------




--------------------------------------- Iteration      1(  15)  ---------------------------------------


    POTLOK:  cpu time    0.0898: real time    0.0901
    SETDIJ:  cpu time    0.0132: real time    0.0134
     EDDAV:  cpu time   14.6159: real time   14.6527
 BZINTS: Fermi energy:  6.158777;276.000000 electrons
         Band energy:***********;  BLOECHL correction: -0.033028
       DOS:  cpu time    0.0471: real time    0.0472
    CHARGE:  cpu time    0.5176: real time    0.5190
    MIXING:  cpu time    0.0029: real time    0.0029
    --------------------------------------------
      LOOP:  cpu time   15.2864: real time   15.3253

 eigenvalue-minimisations  : 12444
 total energy-change (2. order) :-0.1858132E-01  (-0.6332915E-02)
 number of electron     276.0000103 magnetization      42.6028107
 augmentation part      112.2820660 magnetization      29.6205694

 Broyden mixing:
  rms(total) = 0.14096E+00    rms(broyden)= 0.14095E+00
  rms(prec ) = 0.14952E+00
  weight for this iteration     100.00

 eigenvalues of (default mixing * dielectric matrix)
  average eigenvalue GAMMA=   1.5459
  6.1149  2.8487  1.3616  1.0750  0.3775  0.8495  0.8495  0.6932  0.6932  0.5957

 Free energy of the ion-electron system (eV)
  ---------------------------------------------------
  alpha Z        PSCENC =      1362.55286497
  Ewald energy   TEWEN  =    -25513.06237826
  -Hartree energ DENC   =    -10002.69123544
  -exchange      EXHF   =         0.00000000
  -V(xc)+E(xc)   XCENC  =      1357.17466803
  PAW double counting   =     35822.79584732   -36985.69058327
  entropy T*S    EENTRO =         0.00000000
  eigenvalues    EBANDS =     -3534.06194709
  atomic energy  EATOM  =     37271.56874335
  Solvation  Ediel_sol  =         0.00000000
  ---------------------------------------------------
  free energy    TOTEN  =      -221.41402038 eV

  energy without entropy =     -221.41402038  energy(sigma->0) =     -221.41402038


--------------------------------------------------------------------------------------------------------




--------------------------------------- Iteration      1(  16)  ---------------------------------------


    POTLOK:  cpu time    0.0894: real time    0.0897
    SETDIJ:  cpu time    0.0135: real time    0.0135
     EDDAV:  cpu time   16.1964: real time   16.2374
 BZINTS: Fermi energy:  6.180795;276.000000 electrons
         Band energy:***********;  BLOECHL correction: -0.032877
       DOS:  cpu time    0.0496: real time    0.0497
    CHARGE:  cpu time    0.5181: real time    0.5195
    MIXING:  cpu time    0.0030: real time    0.0030
    --------------------------------------------
      LOOP:  cpu time   16.8699: real time   16.9128

 eigenvalue-minimisations  : 14196
 total energy-change (2. order) : 0.5251917E-02  (-0.9399281E-03)
 number of electron     276.0000103 magnetization      42.4751044
 augmentation part      112.1888093 magnetization      29.4883761

 Broyden mixing:
  rms(total) = 0.35122E-01    rms(broyden)= 0.35115E-01
  rms(prec ) = 0.36638E-01
  weight for this iteration     100.00

 eigenvalues of (default mixing * dielectric matrix)
  average eigenvalue GAMMA=   1.5341
  6.2880  2.7849  1.3091  1.3091  1.1147  0.3775  0.8125  0.8125  0.7298  0.7298
  0.6078

 Free energy of the ion-electron system (eV)
  ---------------------------------------------------
  alpha Z        PSCENC =      1362.55286497
  Ewald energy   TEWEN  =    -25513.06237826
  -Hartree energ DENC   =    -10007.40376734
  -exchange      EXHF   =         0.00000000
  -V(xc)+E(xc)   XCENC  =      1357.07287522
  PAW double counting   =     35781.88801783   -36944.71274754
  entropy T*S    EENTRO =         0.00000000
  eigenvalues    EBANDS =     -3529.31237669
  atomic energy  EATOM  =     37271.56874335
  Solvation  Ediel_sol  =         0.00000000
  ---------------------------------------------------
  free energy    TOTEN  =      -221.40876847 eV

  energy without entropy =     -221.40876847  energy(sigma->0) =     -221.40876847


--------------------------------------------------------------------------------------------------------




--------------------------------------- Iteration      1(  17)  ---------------------------------------


    POTLOK:  cpu time    0.0901: real time    0.0909
    SETDIJ:  cpu time    0.0135: real time    0.0135
     EDDAV:  cpu time   14.4528: real time   14.4894
 BZINTS: Fermi energy:  6.181496;276.000000 electrons
         Band energy:***********;  BLOECHL correction: -0.032829
       DOS:  cpu time    0.0496: real time    0.0497
    CHARGE:  cpu time    0.5190: real time    0.5204
    MIXING:  cpu time    0.0032: real time    0.0033
    --------------------------------------------
      LOOP:  cpu time   15.1282: real time   15.1672

 eigenvalue-minimisations  : 12276
 total energy-change (2. order) :-0.7097162E-03  (-0.4603541E-03)
 number of electron     276.0000103 magnetization      42.3803235
 augmentation part      112.1864636 magnetization      29.4070953

 Broyden mixing:
  rms(total) = 0.19025E-01    rms(broyden)= 0.19022E-01
  rms(prec ) = 0.19634E-01
  weight for this iteration     100.00

 eigenvalues of (default mixing * dielectric matrix)
  average eigenvalue GAMMA=   1.5582
  6.4788  2.7565  2.4612  1.0726  1.0726  0.3775  0.8931  0.8931  0.7173  0.7173
  0.6032  0.6548

 Free energy of the ion-electron system (eV)
  ---------------------------------------------------
  alpha Z        PSCENC =      1362.55286497
  Ewald energy   TEWEN  =    -25513.06237826
  -Hartree energ DENC   =    -10007.03110473
  -exchange      EXHF   =         0.00000000
  -V(xc)+E(xc)   XCENC  =      1357.01130488
  PAW double counting   =     35802.53857857   -36965.92664486
  entropy T*S    EENTRO =         0.00000000
  eigenvalues    EBANDS =     -3529.06084211
  atomic energy  EATOM  =     37271.56874335
  Solvation  Ediel_sol  =         0.00000000
  ---------------------------------------------------
  free energy    TOTEN  =      -221.40947818 eV

  energy without entropy =     -221.40947818  energy(sigma->0) =     -221.40947818


--------------------------------------------------------------------------------------------------------




--------------------------------------- Iteration      1(  18)  ---------------------------------------


    POTLOK:  cpu time    0.0906: real time    0.0912
    SETDIJ:  cpu time    0.0134: real time    0.0135
     EDDAV:  cpu time   16.3323: real time   16.3735
 BZINTS: Fermi energy:  6.181964;276.000000 electrons
         Band energy:***********;  BLOECHL correction: -0.032955
       DOS:  cpu time    0.0497: real time    0.0498
    CHARGE:  cpu time    0.5176: real time    0.5190
    MIXING:  cpu time    0.0034: real time    0.0034
    --------------------------------------------
      LOOP:  cpu time   17.0070: real time   17.0503

 eigenvalue-minimisations  : 14064
 total energy-change (2. order) :-0.2437602E-03  (-0.2286359E-04)
 number of electron     276.0000103 magnetization      42.3294678
 augmentation part      112.1814463 magnetization      29.3732995

 Broyden mixing:
  rms(total) = 0.91115E-02    rms(broyden)= 0.91098E-02
  rms(prec ) = 0.94845E-02
  weight for this iteration     100.00

 eigenvalues of (default mixing * dielectric matrix)
  average eigenvalue GAMMA=   1.5278
  6.6067  2.8330  2.4574  1.1454  1.1454  0.9566  0.9566  0.3775  0.7357  0.7357
  0.6937  0.6088  0.6088

 Free energy of the ion-electron system (eV)
  ---------------------------------------------------
  alpha Z        PSCENC =      1362.55286497
  Ewald energy   TEWEN  =    -25513.06237826
  -Hartree energ DENC   =    -10007.31754192
  -exchange      EXHF   =         0.00000000
  -V(xc)+E(xc)   XCENC  =      1356.96502275
  PAW double counting   =     35800.80754955   -36964.24515185
  entropy T*S    EENTRO =         0.00000000
  eigenvalues    EBANDS =     -3528.67883053
  atomic energy  EATOM  =     37271.56874335
  Solvation  Ediel_sol  =         0.00000000
  ---------------------------------------------------
  free energy    TOTEN  =      -221.40972194 eV

  energy without entropy =     -221.40972194  energy(sigma->0) =     -221.40972194


--------------------------------------------------------------------------------------------------------




--------------------------------------- Iteration      1(  19)  ---------------------------------------


    POTLOK:  cpu time    0.0897: real time    0.0901
    SETDIJ:  cpu time    0.0135: real time    0.0135
     EDDAV:  cpu time   15.7692: real time   15.8091
 BZINTS: Fermi energy:  6.182948;276.000000 electrons
         Band energy:***********;  BLOECHL correction: -0.033023
       DOS:  cpu time    0.0498: real time    0.0499
    CHARGE:  cpu time    0.5154: real time    0.5166
    MIXING:  cpu time    0.0034: real time    0.0034
    --------------------------------------------
      LOOP:  cpu time   16.4409: real time   16.4825

 eigenvalue-minimisations  : 13932
 total energy-change (2. order) :-0.6631634E-04  (-0.1010979E-04)
 number of electron     276.0000103 magnetization      42.3179004
 augmentation part      112.1770703 magnetization      29.3698630

 Broyden mixing:
  rms(total) = 0.21039E-02    rms(broyden)= 0.21011E-02
  rms(prec ) = 0.22384E-02
  weight for this iteration     100.00

 eigenvalues of (default mixing * dielectric matrix)
  average eigenvalue GAMMA=   1.5141
  6.6819  2.8639  2.4269  1.3048  1.2525  1.0053  1.0053  0.3775  0.7876  0.7876
  0.7406  0.7406  0.6116  0.6116

 Free energy of the ion-electron system (eV)
  ---------------------------------------------------
  alpha Z        PSCENC =      1362.55286497
  Ewald energy   TEWEN  =    -25513.06237826
  -Hartree energ DENC   =    -10007.66256732
  -exchange      EXHF   =         0.00000000
  -V(xc)+E(xc)   XCENC  =      1356.94498974
  PAW double counting   =     35796.41992477   -36959.80510396
  entropy T*S    EENTRO =         0.00000000
  eigenvalues    EBANDS =     -3528.36626154
  atomic energy  EATOM  =     37271.56874335
  Solvation  Ediel_sol  =         0.00000000
  ---------------------------------------------------
  free energy    TOTEN  =      -221.40978826 eV

  energy without entropy =     -221.40978826  energy(sigma->0) =     -221.40978826


--------------------------------------------------------------------------------------------------------




--------------------------------------- Iteration      1(  20)  ---------------------------------------


    POTLOK:  cpu time    0.0870: real time    0.0873
    SETDIJ:  cpu time    0.0134: real time    0.0134
     EDDAV:  cpu time   14.8124: real time   14.8499
 BZINTS: Fermi energy:  6.183388;276.000000 electrons
         Band energy:***********;  BLOECHL correction: -0.033035
       DOS:  cpu time    0.0495: real time    0.0496
    CHARGE:  cpu time    0.5178: real time    0.5192
    MIXING:  cpu time    0.0036: real time    0.0036
    --------------------------------------------
      LOOP:  cpu time   15.4837: real time   15.5231

 eigenvalue-minimisations  : 12624
 total energy-change (2. order) :-0.1287811E-04  (-0.2458907E-05)
 number of electron     276.0000103 magnetization      42.3131557
 augmentation part      112.1757777 magnetization      29.3667876

 Broyden mixing:
  rms(total) = 0.86787E-03    rms(broyden)= 0.86709E-03
  rms(prec ) = 0.89012E-03
  weight for this iteration     100.00

 eigenvalues of (default mixing * dielectric matrix)
  average eigenvalue GAMMA=   1.5008
  6.7148  2.9562  2.4080  1.7722  1.0247  1.0247  1.0350  1.0350  0.3775  0.7383
  0.7383  0.6043  0.7072  0.7072  0.6684

 Free energy of the ion-electron system (eV)
  ---------------------------------------------------
  alpha Z        PSCENC =      1362.55286497
  Ewald energy   TEWEN  =    -25513.06237826
  -Hartree energ DENC   =    -10007.76906227
  -exchange      EXHF   =         0.00000000
  -V(xc)+E(xc)   XCENC  =      1356.94026912
  PAW double counting   =     35795.95577649   -36959.34337517
  entropy T*S    EENTRO =         0.00000000
  eigenvalues    EBANDS =     -3528.25263937
  atomic energy  EATOM  =     37271.56874335
  Solvation  Ediel_sol  =         0.00000000
  ---------------------------------------------------
  free energy    TOTEN  =      -221.40980114 eV

  energy without entropy =     -221.40980114  energy(sigma->0) =     -221.40980114


--------------------------------------------------------------------------------------------------------




--------------------------------------- Iteration      1(  21)  ---------------------------------------


    POTLOK:  cpu time    0.0894: real time    0.0903
    SETDIJ:  cpu time    0.0133: real time    0.0133
     EDDAV:  cpu time   14.3051: real time   14.3412
 BZINTS: Fermi energy:  6.183611;276.000000 electrons
         Band energy:***********;  BLOECHL correction: -0.033039
       DOS:  cpu time    0.0472: real time    0.0473
    CHARGE:  cpu time    0.5186: real time    0.5200
    MIXING:  cpu time    0.0039: real time    0.0039
    --------------------------------------------
      LOOP:  cpu time   14.9774: real time   15.0160

 eigenvalue-minimisations  : 12084
 total energy-change (2. order) :-0.4534260E-05  (-0.2679348E-06)
 number of electron     276.0000103 magnetization      42.3145320
 augmentation part      112.1750494 magnetization      29.3686030

 Broyden mixing:
  rms(total) = 0.10200E-02    rms(broyden)= 0.10199E-02
  rms(prec ) = 0.10771E-02
  weight for this iteration     100.00

 eigenvalues of (default mixing * dielectric matrix)
  average eigenvalue GAMMA=   1.4944
  6.7228  2.9827  2.3668  2.2159  1.1305  1.1305  1.0185  1.0185  0.3775  0.7991
  0.7991  0.7273  0.7273  0.6755  0.6096  0.6096

 Free energy of the ion-electron system (eV)
  ---------------------------------------------------
  alpha Z        PSCENC =      1362.55286497
  Ewald energy   TEWEN  =    -25513.06237826
  -Hartree energ DENC   =    -10007.82416521
  -exchange      EXHF   =         0.00000000
  -V(xc)+E(xc)   XCENC  =      1356.93949474
  PAW double counting   =     35795.50001792   -36958.89057734
  entropy T*S    EENTRO =         0.00000000
  eigenvalues    EBANDS =     -3528.19380584
  atomic energy  EATOM  =     37271.56874335
  Solvation  Ediel_sol  =         0.00000000
  ---------------------------------------------------
  free energy    TOTEN  =      -221.40980567 eV

  energy without entropy =     -221.40980567  energy(sigma->0) =     -221.40980567


--------------------------------------------------------------------------------------------------------




--------------------------------------- Iteration      1(  22)  ---------------------------------------


    POTLOK:  cpu time    0.0908: real time    0.0914
    SETDIJ:  cpu time    0.0135: real time    0.0135
     EDDAV:  cpu time   13.4858: real time   13.5199
 BZINTS: Fermi energy:  6.183467;276.000000 electrons
         Band energy:***********;  BLOECHL correction: -0.033041
       DOS:  cpu time    0.0495: real time    0.0496
    CHARGE:  cpu time    0.5187: real time    0.5199
    MIXING:  cpu time    0.0039: real time    0.0039
    --------------------------------------------
      LOOP:  cpu time   14.1621: real time   14.1983

 eigenvalue-minimisations  : 11172
 total energy-change (2. order) :-0.1692984E-05  (-0.1095918E-06)
 number of electron     276.0000103 magnetization      42.3169185
 augmentation part      112.1756925 magnetization      29.3711665

 Broyden mixing:
  rms(total) = 0.56324E-03    rms(broyden)= 0.56323E-03
  rms(prec ) = 0.58225E-03
  weight for this iteration     100.00

 eigenvalues of (default mixing * dielectric matrix)
  average eigenvalue GAMMA=   1.4761
  6.7094  2.9894  2.5112  2.2699  1.2257  1.2257  1.0227  1.0227  0.3775  0.8536
  0.8536  0.7244  0.7244  0.7051  0.6069  0.6354  0.6354

 Free energy of the ion-electron system (eV)
  ---------------------------------------------------
  alpha Z        PSCENC =      1362.55286497
  Ewald energy   TEWEN  =    -25513.06237826
  -Hartree energ DENC   =    -10007.79281460
  -exchange      EXHF   =         0.00000000
  -V(xc)+E(xc)   XCENC  =      1356.93930297
  PAW double counting   =     35795.69590781   -36959.08719763
  entropy T*S    EENTRO =         0.00000000
  eigenvalues    EBANDS =     -3528.22423597
  atomic energy  EATOM  =     37271.56874335
  Solvation  Ediel_sol  =         0.00000000
  ---------------------------------------------------
  free energy    TOTEN  =      -221.40980736 eV

  energy without entropy =     -221.40980736  energy(sigma->0) =     -221.40980736


--------------------------------------------------------------------------------------------------------




--------------------------------------- Iteration      1(  23)  ---------------------------------------


    POTLOK:  cpu time    0.0894: real time    0.0897
    SETDIJ:  cpu time    0.0134: real time    0.0134
     EDDAV:  cpu time   10.9841: real time   11.0119
 BZINTS: Fermi energy:  6.183441;276.000000 electrons
         Band energy:***********;  BLOECHL correction: -0.033038
       DOS:  cpu time    0.0485: real time    0.0486
    CHARGE:  cpu time    0.5181: real time    0.5195
    MIXING:  cpu time    0.0040: real time    0.0040
    --------------------------------------------
      LOOP:  cpu time   11.6575: real time   11.6871

 eigenvalue-minimisations  :  8304
 total energy-change (2. order) : 0.2704284E-05  (-0.1992102E-07)
 number of electron     276.0000103 magnetization      42.3177722
 augmentation part      112.1758602 magnetization      29.3716296

 Broyden mixing:
  rms(total) = 0.22935E-03    rms(broyden)= 0.22933E-03
  rms(prec ) = 0.23938E-03
  weight for this iteration     100.00

 eigenvalues of (default mixing * dielectric matrix)
  average eigenvalue GAMMA=   1.4628
  6.7041  3.0382  2.5845  2.2647  1.3163  1.3163  1.0281  1.0281  0.3775  0.9313
  0.9313  0.7353  0.7353  0.7652  0.6774  0.6774  0.6100  0.6100

 Free energy of the ion-electron system (eV)
  ---------------------------------------------------
  alpha Z        PSCENC =      1362.55286497
  Ewald energy   TEWEN  =    -25513.06237826
  -Hartree energ DENC   =    -10007.77936634
  -exchange      EXHF   =         0.00000000
  -V(xc)+E(xc)   XCENC  =      1356.94042318
  PAW double counting   =     35795.92413990   -36959.31984523
  entropy T*S    EENTRO =         0.00000000
  eigenvalues    EBANDS =     -3528.23438624
  atomic energy  EATOM  =     37271.56874335
  Solvation  Ediel_sol  =         0.00000000
  ---------------------------------------------------
  free energy    TOTEN  =      -221.40980466 eV

  energy without entropy =     -221.40980466  energy(sigma->0) =     -221.40980466


--------------------------------------------------------------------------------------------------------




--------------------------------------- Iteration      1(  24)  ---------------------------------------


    POTLOK:  cpu time    0.0886: real time    0.0889
    SETDIJ:  cpu time    0.0135: real time    0.0136
     EDDAV:  cpu time    9.3802: real time    9.4039
 BZINTS: Fermi energy:  6.183445;276.000000 electrons
         Band energy:***********;  BLOECHL correction: -0.033037
       DOS:  cpu time    0.0496: real time    0.0497
    CHARGE:  cpu time    0.5166: real time    0.5180
    MIXING:  cpu time    0.0041: real time    0.0041
    --------------------------------------------
      LOOP:  cpu time   10.0527: real time   10.0783

 eigenvalue-minimisations  :  6468
 total energy-change (2. order) : 0.1159402E-05  (-0.9660293E-08)
 number of electron     276.0000103 magnetization      42.3178529
 augmentation part      112.1758735 magnetization      29.3715663

 Broyden mixing:
  rms(total) = 0.13196E-03    rms(broyden)= 0.13194E-03
  rms(prec ) = 0.13910E-03
  weight for this iteration     100.00

 eigenvalues of (default mixing * dielectric matrix)
[...]
  0.000  -0.002  -0.000  -0.000  -0.001   0.000   0.000  -0.000  -0.006  -0.000   0.000   0.000  -0.000   0.009  -0.000  -0.000
 total augmentation occupancy for first ion, spin component:           2
 -0.003   0.000   0.000  -0.010  -0.000   0.000   0.002   0.001  -0.000   0.000   0.000  -0.003  -0.002   0.000  -0.000  -0.000
  0.000  -0.003   0.000  -0.000  -0.010   0.000  -0.000  -0.000  -0.001   0.000   0.000   0.000   0.000   0.002  -0.000  -0.000
 -0.000   0.000  -0.003  -0.000   0.000  -0.010   0.000  -0.000   0.000   0.001  -0.002  -0.000   0.000  -0.000  -0.002   0.003
 -0.010  -0.000  -0.000   0.021   0.000   0.000  -0.085  -0.050  -0.000   0.002   0.013   0.049   0.032   0.000  -0.001  -0.008
  0.000  -0.010  -0.000   0.000   0.017  -0.000   0.000  -0.000   0.076   0.000  -0.000  -0.000  -0.000  -0.043   0.000   0.000
  0.000  -0.000  -0.010   0.000  -0.000   0.021   0.013  -0.002  -0.000  -0.050   0.085  -0.008   0.001   0.000   0.032  -0.049
  0.002  -0.000   0.000  -0.085  -0.000   0.013   4.294   0.575   0.000  -0.179  -0.000  -2.428  -0.469  -0.000   0.166   0.002
  0.001   0.000  -0.000  -0.050   0.000  -0.002   0.575   5.019   0.000   0.000  -0.179  -0.468  -3.024  -0.000   0.003   0.166
 -0.000  -0.001   0.000  -0.000   0.076  -0.000   0.000   0.000   4.389   0.000  -0.000   0.000  -0.000  -2.384  -0.000   0.000
  0.000  -0.000   0.001   0.002  -0.000  -0.050  -0.179   0.000   0.000   5.019  -0.575   0.166  -0.003  -0.000  -3.024   0.468
  0.000   0.000  -0.002   0.013  -0.000   0.085   0.000  -0.179  -0.000  -0.575   4.294  -0.002   0.166   0.000   0.469  -2.428
 -0.003   0.000  -0.000   0.049   0.000  -0.008  -2.428  -0.468   0.000   0.166  -0.002   1.294   0.331  -0.000  -0.129  -0.000
 -0.002   0.000   0.000   0.032   0.000   0.001  -0.469  -3.024  -0.000  -0.003   0.166   0.331   1.750   0.000  -0.000  -0.129
  0.000   0.002  -0.000   0.000  -0.043   0.000  -0.000  -0.000  -2.384  -0.000   0.000   0.000   0.000   1.232   0.000  -0.000
 -0.000  -0.000  -0.002  -0.001   0.000   0.032   0.166   0.003  -0.000  -3.024   0.469  -0.129  -0.000   0.000   1.750  -0.331
 -0.000  -0.000   0.003  -0.008   0.000  -0.049   0.002   0.166   0.000   0.468  -2.428  -0.000  -0.129  -0.000  -0.331   1.294
  0.000   0.000   0.000  -0.000   0.001   0.000  -0.000  -0.000   0.044  -0.000  -0.000   0.000   0.000  -0.022   0.000   0.000
  0.000   0.000  -0.000  -0.000   0.001   0.000   0.000   0.000   0.007   0.000  -0.000  -0.000   0.000  -0.005   0.000   0.000


------------------------ aborting loop because EDIFF is reached ----------------------------------------


 


 total charge     
 
# of ion       s       p       d       tot
------------------------------------------
    1        0.284   6.340   5.852  12.476
    2        0.284   6.340   5.855  12.478
    3        0.284   6.340   5.862  12.486
    4        0.284   6.340   5.852  12.475
    5        0.284   6.340   5.854  12.478
    6        0.284   6.340   5.865  12.489
    7        0.284   6.340   5.851  12.474
    8        0.284   6.340   5.853  12.477
    9        0.283   6.340   5.854  12.477
   10        0.283   6.340   5.868  12.492
   11        0.283   6.340   5.865  12.489
   12        0.283   6.340   5.857  12.480
   13        1.568   3.416   0.000   4.984
   14        1.568   3.416   0.000   4.983
   15        1.568   3.416   0.000   4.984
   16        1.568   3.417   0.000   4.985
   17        1.568   3.417   0.000   4.985
   18        1.568   3.416   0.000   4.984
   19        1.567   3.404   0.000   4.971
   20        1.567   3.403   0.000   4.970
   21        1.567   3.404   0.000   4.971
   22        1.567   3.404   0.000   4.971
   23        1.567   3.404   0.000   4.971
   24        1.567   3.404   0.000   4.971
   25        1.569   3.417   0.000   4.986
   26        1.569   3.417   0.000   4.985
   27        1.569   3.418   0.000   4.987
   28        1.569   3.419   0.000   4.988
   29        1.569   3.419   0.000   4.988
   30        1.569   3.419   0.000   4.987
--------------------------------------------------
tot         31.624 137.509  70.289 239.422
 


 magnetization (x)
 
# of ion       s       p       d       tot
------------------------------------------
    1        0.024   0.036   3.139   3.200
    2        0.024   0.036   3.136   3.197
    3        0.025   0.036   3.133   3.194
    4        0.025   0.036   3.139   3.200
    5        0.025   0.036   3.139   3.200
    6        0.025   0.036   3.131   3.192
    7        0.024   0.036   3.124   3.184
    8        0.024   0.036   3.121   3.181
    9        0.025   0.036   3.121   3.182
   10        0.025   0.036   3.115   3.176
   11        0.025   0.036   3.117   3.178
   12        0.025   0.036   3.121   3.182
   13        0.020   0.139   0.000   0.159
   14        0.020   0.138   0.000   0.159
   15        0.020   0.139   0.000   0.159
   16        0.020   0.140   0.000   0.160
   17        0.020   0.140   0.000   0.161
   18        0.020   0.139   0.000   0.159
   19        0.021   0.143   0.000   0.165
   20        0.021   0.143   0.000   0.164
   21        0.021   0.144   0.000   0.165
   22        0.021   0.144   0.000   0.165
   23        0.021   0.144   0.000   0.165
   24        0.021   0.144   0.000   0.165
   25        0.020   0.135   0.000   0.156
   26        0.020   0.135   0.000   0.155
   27        0.020   0.136   0.000   0.157
   28        0.020   0.137   0.000   0.158
   29        0.020   0.137   0.000   0.157
   30        0.020   0.137   0.000   0.157
--------------------------------------------------
tot          0.668   2.945  37.538  41.151
 
    CHARGE:  cpu time    0.5181: real time    0.5195
    FORLOC:  cpu time    0.0101: real time    0.0101
    FORNL :  cpu time    3.6368: real time    3.6459
    STRESS:  cpu time   10.6285: real time   10.6553
    FORCOR:  cpu time    0.0957: real time    0.0959
    FORHAR:  cpu time    0.0177: real time    0.0178
    MIXING:  cpu time    0.0050: real time    0.0050
    OFIELD:  cpu time    0.0000: real time    0.0000

  FORCE on cell =-STRESS in cart. coord.  units (eV):
  Direction    XX          YY          ZZ          XY          YZ          ZX
  --------------------------------------------------------------------------------------
  Alpha Z  1362.55286  1362.55286  1362.55286
  Ewald   -8201.75422 -8201.75360 -9109.63806     0.00000     0.00002    -0.00000
  Hartree  3503.93764  3503.93750  2999.89547    -0.00000     0.00001    -0.00000
  E(xc)   -1615.76637 -1615.76642 -1617.33093    -0.00004     0.00000    -0.00000
  Local    -164.91780  -164.91830  1231.05263    -0.00071    -0.00004     0.00000
  n-local  -743.72075  -742.60781  -745.23160    -4.17598     0.50133     0.13116
  augment  1844.94316  1844.94352  1846.80895     0.00058     0.00000    -0.00000
  Kinetic  4006.56889  4008.67378  4024.39957     7.64263    -1.99332    -5.07317
  Fock        0.00000     0.00000     0.00000     0.00000     0.00000     0.00000
  -------------------------------------------------------------------------------------
  Total      -6.54753    -6.54753    -7.49110     0.00000     0.00000     0.00000
  in kB     -34.72824   -34.72823   -39.73294     0.00000     0.00000     0.00000
  external pressure =      -36.40 kB  Pullay stress =        0.00 kB


 VOLUME and BASIS-vectors are now :
 -----------------------------------------------------------------------------
  energy-cutoff  :      620.00
  volume of cell :      302.07
      direct lattice vectors                 reciprocal lattice vectors
     5.035100000  0.000000000  0.000000000     0.198605787  0.114665118  0.000000000
    -2.517550000  4.360524000  0.000000000     0.000000000  0.229330236  0.000000000
     0.000000000  0.000000000 13.758100000     0.000000000  0.000000000  0.072684455

  length of vectors
     5.035100000  5.035099558 13.758100000     0.229330216  0.229330236  0.072684455


 FORCES acting on ions
    electron-ion (+dipol)            ewald-force                    non-local-force                 convergence-correction
 -----------------------------------------------------------------------------------------------
   0.156E-03 0.366E-03 -.126E+03   -.101E-02 0.523E-03 0.128E+03   0.434E-18 -.564E-17 -.289E+01   0.117E-08 -.524E-09 -.174E-04
   -.402E-03 0.579E-03 0.126E+03   0.101E-02 -.523E-03 -.128E+03   -.651E-17 0.651E-17 0.289E+01   -.210E-08 0.122E-08 0.174E-04
   -.135E-03 0.534E-03 -.126E+03   0.314E-02 -.187E-02 0.128E+03   0.564E-17 0.304E-17 -.289E+01   -.145E-07 0.858E-08 -.163E-04
   -.327E-03 0.645E-03 -.126E+03   -.220E-02 0.121E-02 0.128E+03   0.651E-17 -.173E-17 -.289E+01   0.117E-07 -.656E-08 -.159E-04
   0.810E-04 0.300E-03 0.126E+03   0.220E-02 -.121E-02 -.128E+03   -.173E-17 0.260E-17 0.289E+01   -.126E-07 0.725E-08 0.159E-04
   -.111E-03 0.411E-03 0.126E+03   -.314E-02 0.187E-02 -.128E+03   0.304E-17 0.434E-18 0.289E+01   0.136E-07 -.789E-08 0.163E-04
   0.566E-03 -.105E-02 0.126E+03   0.964E-03 -.523E-03 -.128E+03   -.195E-17 0.867E-18 0.289E+01   -.185E-08 0.928E-09 0.174E-04
   0.104E-02 -.127E-02 -.126E+03   -.964E-03 0.523E-03 0.128E+03   -.195E-17 0.434E-18 -.289E+01   0.135E-08 -.920E-09 -.174E-04
   0.105E-02 -.132E-02 0.126E+03   0.215E-02 -.121E-02 -.128E+03   0.867E-17 0.304E-17 0.289E+01   -.123E-07 0.703E-08 0.159E-04
   0.749E-03 -.110E-02 -.126E+03   0.319E-02 -.187E-02 0.128E+03   -.716E-17 -.260E-17 -.289E+01   -.144E-07 0.811E-08 -.163E-04
   0.857E-03 -.121E-02 0.126E+03   -.319E-02 0.187E-02 -.128E+03   0.716E-17 0.130E-17 0.289E+01   0.139E-07 -.810E-08 0.163E-04
   0.557E-03 -.990E-03 -.126E+03   -.215E-02 0.121E-02 0.128E+03   0.260E-17 -.304E-17 -.289E+01   0.118E-07 -.702E-08 -.159E-04
   -.424E+02 -.134E-02 0.215E-03   0.418E+02 0.106E-02 -.470E-03   0.678E+00 0.394E-17 0.585E-17   -.145E-04 -.292E-08 0.737E-09
   0.424E+02 -.861E-04 -.336E-03   -.418E+02 -.106E-02 0.470E-03   -.678E+00 -.304E-17 -.997E-17   0.145E-04 0.306E-08 -.294E-09
   -.424E+02 -.319E-02 -.584E-02   0.418E+02 0.570E-03 -.997E-03   0.678E+00 -.228E-17 -.108E-17   -.145E-04 0.390E-08 -.337E-06
   -.424E+02 0.239E-02 0.544E-02   0.418E+02 -.163E-02 0.147E-02   0.678E+00 0.233E-17 0.640E-17   -.145E-04 -.712E-09 0.337E-06
   0.424E+02 -.382E-02 -.556E-02   -.418E+02 0.163E-02 -.147E-02   -.678E+00 0.350E-17 0.260E-17   0.145E-04 0.851E-09 -.337E-06
   0.424E+02 0.176E-02 0.572E-02   -.418E+02 -.570E-03 0.997E-03   -.678E+00 -.477E-17 0.683E-17   0.145E-04 -.376E-08 0.338E-06
   0.212E+02 -.367E+02 -.307E-03   -.209E+02 0.362E+02 0.438E-03   -.339E+00 0.588E+00 0.000E+00   0.723E-05 -.125E-04 -.278E-09
   -.212E+02 0.367E+02 0.194E-03   0.209E+02 -.362E+02 -.438E-03   0.339E+00 -.588E+00 -.173E-17   -.723E-05 0.125E-04 0.736E-09
   0.212E+02 -.367E+02 -.553E-02   -.209E+02 0.362E+02 -.150E-02   -.339E+00 0.588E+00 0.607E-17   0.723E-05 -.125E-04 -.337E-06
   0.212E+02 -.367E+02 0.574E-02   -.209E+02 0.362E+02 0.964E-03   -.339E+00 0.588E+00 0.260E-17   0.724E-05 -.125E-04 0.338E-06
   -.212E+02 0.367E+02 -.586E-02   0.209E+02 -.362E+02 -.964E-03   0.339E+00 -.588E+00 -.260E-17   -.724E-05 0.125E-04 -.337E-06
   -.212E+02 0.367E+02 0.542E-02   0.209E+02 -.362E+02 0.150E-02   0.339E+00 -.588E+00 0.434E-17   -.723E-05 0.125E-04 0.337E-06
   0.212E+02 0.367E+02 0.940E-04   -.209E+02 -.362E+02 0.322E-04   -.339E+00 -.588E+00 -.173E-17   0.724E-05 0.125E-04 -.455E-09
   -.212E+02 -.367E+02 0.144E-03   0.209E+02 0.362E+02 -.322E-04   0.339E+00 0.588E+00 0.651E-17   -.724E-05 -.125E-04 -.438E-09
   0.212E+02 0.367E+02 -.408E-02   -.209E+02 -.362E+02 -.303E-02   -.339E+00 -.588E+00 -.130E-17   0.723E-05 0.125E-04 -.337E-06
   -.212E+02 -.367E+02 -.403E-02   0.209E+02 0.362E+02 -.310E-02   0.339E+00 0.588E+00 0.564E-17   -.723E-05 -.125E-04 -.337E-06
   0.212E+02 0.367E+02 0.427E-02   -.209E+02 -.362E+02 0.310E-02   -.339E+00 -.588E+00 0.217E-17   0.723E-05 0.125E-04 0.336E-06
   -.212E+02 -.367E+02 0.432E-02   0.209E+02 0.362E+02 0.303E-02   0.339E+00 0.588E+00 0.347E-17   -.723E-05 -.125E-04 0.336E-06
 -----------------------------------------------------------------------------------------------
   0.150E-01 -.165E-01 -.113E-04   -.995E-13 -.995E-13 -.192E-12   0.111E-15 0.222E-15 -.410E-15   -.381E-08 0.747E-09 0.118E-08
 
 
 POSITION                                       TOTAL-FORCE (eV/Angst)
 -----------------------------------------------------------------------------------
      0.00000      0.00000      4.88853         0.000000     -0.000000     -0.926701
      0.00000      0.00000      8.86957         0.000000      0.000000      0.926701
     -0.00000      2.90702      0.30250         0.000000     -0.000000     -0.926701
      2.51755      1.45351      9.47456         0.000000     -0.000000     -0.926701
     -0.00000      2.90702      4.28354         0.000000      0.000000      0.926701
      2.51755      1.45351     13.45560         0.000000      0.000000      0.926701
      0.00000      0.00000      1.99052         0.000000      0.000000      0.926701
      0.00000      0.00000     11.76758         0.000000     -0.000000     -0.926701
     -0.00000      2.90702     11.16259         0.000000      0.000000      0.926701
     -0.00000      2.90702      7.18155         0.000000     -0.000000     -0.926701
      2.51755      1.45351      6.57655         0.000000      0.000000      0.926701
      2.51755      1.45351      2.59551         0.000000     -0.000000     -0.926701
      1.54165      0.00000      3.43953         0.088659      0.000000     -0.000000
      3.49345      0.00000     10.31858        -0.088659     -0.000000     -0.000000
      1.54164      2.90702     12.61160         0.088659      0.000000     -0.000000
      4.05920      1.45351      8.02555         0.088659      0.000000     -0.000000
     -1.54165      2.90702      5.73255        -0.088659     -0.000000     -0.000000
      0.97591      1.45351      1.14650        -0.088659     -0.000000      0.000000
     -0.77082      1.33511      3.43953        -0.044330      0.076781     -0.000000
     -1.74673      3.02542     10.31858         0.044330     -0.076781     -0.000000
     -0.77083      4.24212     12.61160        -0.044330      0.076781     -0.000000
      1.74673      2.78861      8.02555        -0.044330      0.076781     -0.000000
      0.77082      1.57191      5.73255         0.044330     -0.076781     -0.000000
      3.28838      0.11840      1.14650         0.044330     -0.076781      0.000000
      1.74673      3.02542      3.43953        -0.044330     -0.076781     -0.000000
      0.77082      1.33511     10.31858         0.044330      0.076781     -0.000000
     -0.77083      1.57191     12.61160        -0.044330     -0.076781     -0.000000
      0.77082      4.24212      5.73255         0.044330      0.076781     -0.000000
      1.74673      0.11840      8.02555        -0.044330     -0.076781      0.000000
      3.28838      2.78861      1.14650         0.044330      0.076781      0.000000
 -----------------------------------------------------------------------------------
    total drift:                                0.014952     -0.016511     -0.000011


--------------------------------------------------------------------------------------------------------



  FREE ENERGIE OF THE ION-ELECTRON SYSTEM (eV)
  ---------------------------------------------------
  free  energy   TOTEN  =      -221.40980309 eV

  energy  without entropy=     -221.40980309  energy(sigma->0) =     -221.40980309
 


--------------------------------------------------------------------------------------------------------


    POTLOK:  cpu time    0.1018: real time    0.1021


--------------------------------------------------------------------------------------------------------


     LOOP+:  cpu time  440.7346: real time  441.8740
    4ORBIT:  cpu time    0.0000: real time    0.0000
 


 total charge     
 
# of ion       s       p       d       tot
------------------------------------------
    1        0.284   6.340   5.852  12.476
    2        0.284   6.340   5.855  12.478
    3        0.284   6.340   5.862  12.486
    4        0.284   6.340   5.852  12.475
    5        0.284   6.340   5.854  12.478
    6        0.284   6.340   5.865  12.489
    7        0.284   6.340   5.851  12.474
    8        0.284   6.340   5.853  12.477
    9        0.283   6.340   5.854  12.477
   10        0.283   6.340   5.868  12.492
   11        0.283   6.340   5.865  12.489
   12        0.283   6.340   5.857  12.480
   13        1.568   3.416   0.000   4.984
   14        1.568   3.416   0.000   4.983
   15        1.568   3.416   0.000   4.984
   16        1.568   3.417   0.000   4.985
   17        1.568   3.417   0.000   4.985
   18        1.568   3.416   0.000   4.984
   19        1.567   3.404   0.000   4.971
   20        1.567   3.403   0.000   4.970
   21        1.567   3.404   0.000   4.971
   22        1.567   3.404   0.000   4.971
   23        1.567   3.404   0.000   4.971
   24        1.567   3.404   0.000   4.971
   25        1.569   3.417   0.000   4.986
   26        1.569   3.417   0.000   4.985
   27        1.569   3.418   0.000   4.987
   28        1.569   3.419   0.000   4.988
   29        1.569   3.419   0.000   4.988
   30        1.569   3.419   0.000   4.987
--------------------------------------------------
tot         31.624 137.509  70.289 239.422
 


 magnetization (x)
 
# of ion       s       p       d       tot
------------------------------------------
    1        0.024   0.036   3.139   3.200
    2        0.024   0.036   3.136   3.197
    3        0.025   0.036   3.133   3.194
    4        0.025   0.036   3.139   3.200
    5        0.025   0.036   3.139   3.200
    6        0.025   0.036   3.131   3.192
    7        0.024   0.036   3.124   3.184
    8        0.024   0.036   3.121   3.181
    9        0.025   0.036   3.121   3.182
   10        0.025   0.036   3.115   3.176
   11        0.025   0.036   3.117   3.178
   12        0.025   0.036   3.121   3.182
   13        0.020   0.139   0.000   0.159
   14        0.020   0.138   0.000   0.159
   15        0.020   0.139   0.000   0.159
   16        0.020   0.140   0.000   0.160
   17        0.020   0.140   0.000   0.161
   18        0.020   0.139   0.000   0.159
   19        0.021   0.143   0.000   0.165
   20        0.021   0.143   0.000   0.164
   21        0.021   0.144   0.000   0.165
   22        0.021   0.144   0.000   0.165
   23        0.021   0.144   0.000   0.165
   24        0.021   0.144   0.000   0.165
   25        0.020   0.135   0.000   0.156
   26        0.020   0.135   0.000   0.155
   27        0.020   0.136   0.000   0.157
   28        0.020   0.137   0.000   0.158
   29        0.020   0.137   0.000   0.157
   30        0.020   0.137   0.000   0.157
--------------------------------------------------
tot          0.668   2.945  37.538  41.151
 
 BZINTS: Fermi energy:  6.183416;276.000000 electrons
         Band energy:***********;  BLOECHL correction: -0.033036

 total amount of memory used by VASP MPI-rank0    94523. kBytes
=======================================================================

   base      :      30000. kBytes
   nonlr-proj:       8026. kBytes
   fftplans  :       3991. kBytes
   grid      :      10218. kBytes
   one-center:        248. kBytes
   wavefun   :      42040. kBytes
 
  
  
 General timing and accounting informations for this job:
 ========================================================
  
                  Total CPU time used (sec):      448.355
                            User time (sec):      446.809
                          System time (sec):        1.546
                         Elapsed time (sec):      449.569
  
                   Maximum memory used (kb):      137568.
                   Average memory used (kb):           0.
  
                          Minor page faults:        86115
                          Major page faults:            0
                 Voluntary context switches:          213
