=========================================
SLURM_JOB_ID = 63457030
SLURM_JOB_NODELIST = lnode51
SLURM_GPUS = 
SLURM_CPUS_ON_NODE = 8
SLURM_JOB_PARTITION = lenovo
SLURM_TASK_PID = 964362
CUDA_VISIBLE_DEVICES = 
==========================================
 running on    8 total cores
 distrk:  each k-point on    8 cores,    1 groups
 distr:  one band on    4 cores,    2 groups
 using from now: INCAR     
 vasp.5.4.4.18Apr17-6-g9f103f2a35 (build Apr 28 2018 00:24:27) complex          
  
 POSCAR found type information on POSCAR  Eu S 
 POSCAR found :  2 types and       2 ions
 scaLAPACK will be used

 ----------------------------------------------------------------------------- 
|                                                                             |
|  ADVICE TO THIS USER RUNNING 'VASP/VAMP'   (HEAR YOUR MASTER'S VOICE ...):  |
|                                                                             |
|      You have a (more or less) 'small supercell' and for smaller cells      |
|      it is recommended  to use the reciprocal-space projection scheme!      |
|      The real space optimization is not  efficient for small cells and it   |
|      is also less accurate ...                                              |
|      Therefore set LREAL=.FALSE. in the  INCAR file                         |
|                                                                             |
 ----------------------------------------------------------------------------- 

 LDA part: xc-table for Pade appr. of Perdew
 POSCAR, INCAR and KPOINTS ok, starting setup
 FFT: planning ...
 WAVECAR not read
 entering main loop
       N       E                     dE             d eps       ncg     rms          rms(c)
DAV:   1     0.156727603327E+03    0.15673E+03   -0.10167E+04  1884   0.240E+03
DAV:   2     0.257728898675E+01   -0.15415E+03   -0.13706E+03  1736   0.267E+02
DAV:   3    -0.150430731180E+02   -0.17620E+02   -0.17086E+02  1856   0.102E+02
DAV:   4    -0.159757295435E+02   -0.93266E+00   -0.91320E+00  2552   0.212E+01
DAV:   5    -0.160322274677E+02   -0.56498E-01   -0.56392E-01  2400   0.420E+00    0.132E+01
DAV:   6    -0.202089781088E+02   -0.41768E+01   -0.46499E+01  2336   0.680E+01    0.177E+01
DAV:   7    -0.190864350628E+02    0.11225E+01   -0.28787E+00  1940   0.388E+01    0.657E+00
DAV:   8    -0.187620376485E+02    0.32440E+00   -0.14319E+00  2716   0.142E+01    0.254E+00
DAV:   9    -0.188334679022E+02   -0.71430E-01   -0.13625E+00  2148   0.985E+00    0.333E+00
DAV:  10    -0.187495881427E+02    0.83880E-01   -0.81021E-01  2076   0.742E+00    0.105E+00
DAV:  11    -0.187616570385E+02   -0.12069E-01   -0.18216E-02  2552   0.967E-01    0.542E-01
DAV:  12    -0.187601794947E+02    0.14775E-02   -0.53488E-03  2488   0.700E-01    0.510E-01
DAV:  13    -0.187585128519E+02    0.16666E-02   -0.43684E-03  2420   0.554E-01    0.270E-01
DAV:  14    -0.187582375943E+02    0.27526E-03   -0.14668E-03  2644   0.316E-01    0.154E-01
DAV:  15    -0.187583120004E+02   -0.74406E-04   -0.19668E-03  2108   0.371E-01    0.102E-02
DAV:  16    -0.187583146589E+02   -0.26585E-05   -0.92589E-05  2476   0.480E-02    0.101E-02
DAV:  17    -0.187583141185E+02    0.54043E-06   -0.31448E-06  2436   0.873E-03    0.902E-03
DAV:  18    -0.187583195488E+02   -0.54303E-05   -0.80136E-07  2404   0.686E-03    0.958E-03
DAV:  19    -0.187583068591E+02    0.12690E-04   -0.19212E-06  2044   0.119E-02    0.393E-03
DAV:  20    -0.187583017054E+02    0.51537E-05   -0.48695E-07  1756   0.570E-03    0.187E-03
DAV:  21    -0.187583009312E+02    0.77418E-06   -0.47299E-08  1024   0.189E-03    0.144E-03
DAV:  22    -0.187583023759E+02   -0.14447E-05   -0.46066E-08   984   0.236E-03    0.702E-04
DAV:  23    -0.187583031872E+02   -0.81129E-06   -0.20355E-08   932   0.128E-03    0.273E-04
DAV:  24    -0.187583036140E+02   -0.42682E-06   -0.76291E-09   948   0.737E-04    0.735E-05
DAV:  25    -0.187583037483E+02   -0.13428E-06   -0.26491E-09   920   0.499E-04    0.821E-05
DAV:  26    -0.187583037106E+02    0.37761E-07   -0.13156E-09   916   0.338E-04
   1 F= -.18758304E+02 E0= -.18758304E+02  d E =0.000000E+00  mag=     6.9956
