 vasp.5.4.4.18Apr17-6-g9f103f2a35 (build Apr 28 2018 00:24:27) complex          
  
 executed on             LinuxIFC date 2021.03.25  02:01:05
 running on    8 total cores
 distrk:  each k-point on    8 cores,    1 groups
 distr:  one band on NCORES_PER_BAND=   8 cores,    1 groups


--------------------------------------------------------------------------------------------------------


 INCAR:
 POTCAR:    PAW_PBE Mn 06Sep2000                  
 POTCAR:    PAW_PBE Bi 08Apr2002                  

 ----------------------------------------------------------------------------- 
|                                                                             |
|           W    W    AA    RRRRR   N    N  II  N    N   GGGG   !!!           |
|           W    W   A  A   R    R  NN   N  II  NN   N  G    G  !!!           |
|           W    W  A    A  R    R  N N  N  II  N N  N  G       !!!           |
|           W WW W  AAAAAA  RRRRR   N  N N  II  N  N N  G  GGG   !            |
|           WW  WW  A    A  R   R   N   NN  II  N   NN  G    G                |
|           W    W  A    A  R    R  N    N  II  N    N   GGGG   !!!           |
|                                                                             |
|      For optimal performance we recommend to set                            |
|        NCORE= 4 - approx SQRT( number of cores)                             |
|      NCORE specifies how many cores store one orbital (NPAR=cpu/NCORE).     |
|      This setting can  greatly improve the performance of VASP for DFT.     |
|      The default,   NCORE=1            might be grossly inefficient         |
|      on modern multi-core architectures or massively parallel machines.     |
|      Do your own testing !!!!                                               |
|      Unfortunately you need to use the default for GW and RPA calculations. |
|      (for HF NCORE is supported but not extensively tested yet)             |
|                                                                             |
 ----------------------------------------------------------------------------- 

 POTCAR:    PAW_PBE Mn 06Sep2000                  
   SHA256 =  791c87526310ff945dc83749a51ee60ee299d345ff72743aeb14609b9ed68bfc Mn
   COPYR  = (c) Copyright 06Sep2000 Georg Kresse                                
   COPYR  = This file is part of the software VASP. Any use, copying, and all ot
   COPYR  = If you do not have a valid VASP license, you may not use, copy or di
   VRHFIN =Mn: d6 s1                                                            
   LEXCH  = PE                                                                  
   EATOM  =   416.7541 eV,   30.6306 Ry                                         
                                                                                
   TITEL  = PAW_PBE Mn 06Sep2000                                                
   LULTRA =        F    use ultrasoft PP ?                                      
   IUNSCR =        1    unscreen: 0-lin 1-nonlin 2-no                           
   RPACOR =    2.000    partial core radius                                     
   POMASS =   54.938; ZVAL   =    7.000    mass and valenz                      
   RCORE  =    2.300    outmost cutoff radius                                   
   RWIGS  =    2.500; RWIGS  =    1.323    wigner-seitz radius (au A)           
   ENMAX  =  269.864; ENMIN  =  202.398 eV                                      
   RCLOC  =    1.725    cutoff for local pot                                    
   LCOR   =        T    correct aug charges                                     
   LPAW   =        T    paw PP                                                  
   EAUG   =  500.711                                                            
   DEXC   =    0.000                                                            
   RMAX   =    2.343    core radius for proj-oper                               
   RAUG   =    1.300    factor for augmentation sphere                          
   RDEP   =    2.338    radius for radial grids                                 
   RDEPT  =    1.911    core radius for aug-charge                              
                                                                                
   Atomic configuration                                                         
    9 entries                                                                   
     n  l   j            E        occ.                                          
     1  0  0.50     -6424.8288   2.0000                                         
     2  0  0.50      -739.1154   2.0000                                         
     2  1  1.50      -625.3949   6.0000                                         
     3  0  0.50       -81.6100   2.0000                                         
     3  1  1.50       -50.4667   6.0000                                         
     3  2  2.50        -3.3745   6.0000                                         
     4  0  0.50        -4.1331   1.0000                                         
     4  1  0.50        -4.0817   0.0000                                         
     4  3  2.50        -1.3606   0.0000                                         
   Description                                                                  
     l       E           TYP  RCUT    TYP  RCUT                                 
     2     -3.3744664     23  2.300                                             
     2     -4.7350490     23  2.300                                             
     0     -4.1331408     23  2.300                                             
     0      7.6656614     23  2.300                                             
     1     -2.7211652     23  2.300                                             
     1     20.4087390     23  2.300                                             
  local pseudopotential read in
  partial core-charges read in
  partial kinetic energy density read in
  atomic valenz-charges read in
  non local Contribution for L=           2  read in
    real space projection operators read in
  non local Contribution for L=           2  read in
    real space projection operators read in
  non local Contribution for L=           0  read in
    real space projection operators read in
  non local Contribution for L=           0  read in
    real space projection operators read in
  non local Contribution for L=           1  read in
    real space projection operators read in
  non local Contribution for L=           1  read in
    real space projection operators read in
    PAW grid and wavefunctions read in
 
   number of l-projection  operators is LMAX  =           6
   number of lm-projection operators is LMMAX =          18
 
 POTCAR:    PAW_PBE Bi 08Apr2002                  
   SHA256 =  d6b6753ed5db3f0e277fb15e6dbb6699c4bc829850a481068e9e7236faeca489 Bi
   COPYR  = (c) Copyright 08Apr2002 Georg Kresse                                
   COPYR  = This file is part of the software VASP. Any use, copying, and all ot
   COPYR  = If you do not have a valid VASP license, you may not use, copy or di
   VRHFIN =Bi:                                                                  
   LEXCH  = PE                                                                  
   EATOM  =   150.8133 eV,   11.0845 Ry                                         
                                                                                
   TITEL  = PAW_PBE Bi 08Apr2002                                                
   LULTRA =        F    use ultrasoft PP ?                                      
   IUNSCR =        1    unscreen: 0-lin 1-nonlin 2-no                           
   RPACOR =    2.200    partial core radius                                     
   POMASS =  208.980; ZVAL   =    5.000    mass and valenz                      
   RCORE  =    3.000    outmost cutoff radius                                   
   RWIGS  =    3.090; RWIGS  =    1.635    wigner-seitz radius (au A)           
   ENMAX  =  105.037; ENMIN  =   78.777 eV                                      
   ICORE  =        3    local potential                                         
   LCOR   =        T    correct aug charges                                     
   LPAW   =        T    paw PP                                                  
   EAUG   =  265.427                                                            
   DEXC   =    0.000                                                            
   RMAX   =    3.067    core radius for proj-oper                               
   RAUG   =    1.300    factor for augmentation sphere                          
   RDEP   =    3.012    radius for radial grids                                 
   RDEPT  =    2.604    core radius for aug-charge                              
                                                                                
   Atomic configuration                                                         
   17 entries                                                                   
     n  l   j            E        occ.                                          
     1  0  0.50    -90639.6582   2.0000                                         
     2  0  0.50    -16282.4667   2.0000                                         
     2  1  1.50    -13922.8287   6.0000                                         
     3  0  0.50     -3930.4763   2.0000                                         
     3  1  1.50     -3256.7013   6.0000                                         
     3  2  2.50     -2581.6169  10.0000                                         
     4  0  0.50      -902.2614   2.0000                                         
     4  1  1.50      -681.5915   6.0000                                         
     4  2  2.50      -429.8249  10.0000                                         
     4  3  3.50      -152.6004  14.0000                                         
     5  0  0.50      -157.7156   2.0000                                         
     5  1  1.50       -95.8054   6.0000                                         
     5  2  2.50       -27.0806  10.0000                                         
     6  0  0.50       -14.4732   2.0000                                         
     6  1  1.50        -4.5702   3.0000                                         
     6  2  2.50        -2.7212   0.0000                                         
     5  3  2.50        -2.7212   0.0000                                         
   Description                                                                  
     l       E           TYP  RCUT    TYP  RCUT                                 
     0    -14.4732299     23  3.000                                             
     0    -12.2452434     23  3.000                                             
     1     -4.5701666     23  3.000                                             
     1    -13.6058260     23  3.000                                             
     2     -2.7211652     23  3.000                                             
     3     -1.3605826      7  3.000                                             
  local pseudopotential read in
  partial core-charges read in
  partial kinetic energy density read in
  kinetic energy density of atom read in
  atomic valenz-charges read in
  non local Contribution for L=           0  read in
    real space projection operators read in
  non local Contribution for L=           0  read in
    real space projection operators read in
  non local Contribution for L=           1  read in
    real space projection operators read in
  non local Contribution for L=           1  read in
    real space projection operators read in
  non local Contribution for L=           2  read in
    real space projection operators read in
    PAW grid and wavefunctions read in
 
   number of l-projection  operators is LMAX  =           5
   number of lm-projection operators is LMMAX =          13
 
  PAW_PBE Mn 06Sep2000                  :
 energy of atom  1       EATOM= -416.7541
 kinetic energy error for atom=    0.0024 (will be added to EATOM!!)
  PAW_PBE Bi 08Apr2002                  :
 energy of atom  2       EATOM= -150.8133
 kinetic energy error for atom=    0.0001 (will be added to EATOM!!)
 
 
 POSCAR: Mn1 Bi1 str #: 9                        
  positions in direct lattice
  No initial velocities read in
 exchange correlation table for  LEXCH =        8
   RHO(1)=    0.500       N(1)  =     2000
   RHO(2)=  100.500       N(2)  =     4000
 


--------------------------------------------------------------------------------------------------------


 ion  position               nearest neighbor table
   1  0.250  0.500  0.875-  12 2.76  12 2.76   8 2.76  11 2.76
   2  0.583  0.833  0.042-   7 2.76   7 2.76   9 2.76  12 2.76
   3  0.917  0.167  0.208-   8 2.76   8 2.76  10 2.76   7 2.76
   4  0.250  0.500  0.375-   9 2.76   9 2.76  11 2.76   8 2.76
   5  0.583  0.833  0.542-  10 2.76  10 2.76  12 2.76   9 2.76
   6  0.917  0.167  0.708-  11 2.76  11 2.76   7 2.76  10 2.76
   7  0.000  0.000  0.000-   2 2.76   2 2.76   6 2.76   3 2.76
   8  0.333  0.333  0.167-   3 2.76   3 2.76   1 2.76   4 2.76
   9  0.667  0.667  0.333-   4 2.76   4 2.76   2 2.76   5 2.76
  10  0.000  0.000  0.500-   5 2.76   5 2.76   3 2.76   6 2.76
  11  0.333  0.333  0.667-   6 2.76   6 2.76   4 2.76   1 2.76
  12  0.667  0.667  0.833-   1 2.76   1 2.76   5 2.76   2 2.76
 

IMPORTANT INFORMATION: All symmetrisations will be switched off!
NOSYMM: (Re-)initialisation of all symmetry stuff for point group C_1.

 
 

Automatic generation of k-mesh.
 generate k-points for:    3    2    2
Space group operators:
 irot       det(A)        alpha          n_x          n_y          n_z        tau_x        tau_y        tau_z
    1     1.000000     0.000000     1.000000     0.000000     0.000000     0.000000     0.000000     0.000000
 
 Subroutine IBZKPT returns following result:
 ===========================================
 
 Found      8 irreducible k-points:
 
 Following reciprocal coordinates:
            Coordinates               Weight
  0.000000  0.000000  0.000000      1.000000
  0.333333 -0.000000  0.000000      2.000000
  0.000000  0.500000 -0.000000      1.000000
  0.333333  0.500000 -0.000000      2.000000
  0.000000 -0.000000  0.500000      1.000000
  0.333333 -0.000000  0.500000      2.000000
  0.000000  0.500000  0.500000      1.000000
  0.333333  0.500000  0.500000      2.000000
 
 Following cartesian coordinates:
            Coordinates               Weight
  0.000000  0.000000  0.000000      1.000000
  0.074065 -0.014254 -0.010079      2.000000
  0.000000  0.042761  0.030237      1.000000
  0.074065  0.028508  0.020158      2.000000
  0.000000 -0.042761  0.037796      1.000000
  0.074065 -0.057015  0.027717      2.000000
  0.000000  0.000000  0.068033      1.000000
  0.074065 -0.014254  0.057954      2.000000
 


--------------------------------------------------------------------------------------------------------




 Dimension of arrays:
   k-points           NKPTS =      8   k-points in BZ     NKDIM =      8   number of bands    NBANDS=     43
   number of dos      NEDOS =    301   number of ions     NIONS =     12
   non local maximal  LDIM  =      6   non local SUM 2l+1 LMDIM =     18
   total plane-waves  NPLWV = 201600
   max r-space proj   IRMAX =      1   max aug-charges    IRDMAX=  49848
   dimension x,y,z NGX =    36 NGY =   80 NGZ =   70
   dimension x,y,z NGXF=    72 NGYF=  160 NGZF=  140
   support grid    NGXF=    72 NGYF=  160 NGZF=  140
   ions per type =               6   6
   NGX,Y,Z   is equivalent  to a cutoff of  13.30, 13.22, 12.93 a.u.
   NGXF,Y,Z  is equivalent  to a cutoff of  26.60, 26.43, 25.86 a.u.

 SYSTEM =  BiMn                                    
 POSCAR =  Mn1 Bi1 str #: 9                        

 Startparameter for this run:
   NWRITE =      2    write-flag & timer
   PREC   = accura    normal or accurate (medium, high low for compatibility)
   ISTART =      0    job   : 0-new  1-cont  2-samecut
   ICHARG =      2    charge: 1-file 2-atom 10-const
   ISPIN  =      2    spin polarized calculation?
   LNONCOLLINEAR =      F non collinear calculations
   LSORBIT =      F    spin-orbit coupling
   INIWAV =      1    electr: 0-lowe 1-rand  2-diag
   LASPH  =      F    aspherical Exc in radial PAW
   METAGGA=      F    non-selfconsistent MetaGGA calc.

 Electronic Relaxation 1
   ENCUT  =  500.0 eV  36.75 Ry    6.06 a.u.   8.21 18.35 16.41*2*pi/ulx,y,z
   ENINI  =  500.0     initial cutoff
   ENAUG  =  500.7 eV  augmentation charge cutoff
   NELM   =     60;   NELMIN=  2; NELMDL= -5     # of ELM steps 
   EDIFF  = 0.1E-05   stopping-criterion for ELM
   LREAL  =      F    real-space projection
   NLSPLINE    = F    spline interpolate recip. space projectors
   LCOMPAT=      F    compatible to vasp.4.4
   GGA_COMPAT  = T    GGA compatible to vasp.4.4-vasp.4.6
   LMAXPAW     = -100 max onsite density
   LMAXMIX     =    2 max onsite mixed and CHGCAR
   VOSKOWN=      0    Vosko Wilk Nusair interpolation
   ROPT   =    0.00000   0.00000
 Ionic relaxation
   EDIFFG = 0.1E-04   stopping-criterion for IOM
   NSW    =      0    number of steps for IOM
   NBLOCK =      1;   KBLOCK =      1    inner block; outer block 
   IBRION =     -1    ionic relax: 0-MD 1-quasi-New 2-CG
   NFREE  =      1    steps in history (QN), initial steepest desc. (CG)
   ISIF   =      2    stress and relaxation
   IWAVPR =     10    prediction:  0-non 1-charg 2-wave 3-comb
   ISYM   =      0    0-nonsym 1-usesym 2-fastsym
   LCORR  =      T    Harris-Foulkes like correction to forces

   POTIM  = 0.5000    time-step for ionic-motion
   TEIN   =    0.0    initial temperature
   TEBEG  =    0.0;   TEEND  =   0.0 temperature during run
   SMASS  =  -3.00    Nose mass-parameter (am)
   estimated Nose-frequenzy (Omega)   =  0.10E-29 period in steps =****** mass=  -0.463E-27a.u.
   SCALEE = 1.0000    scale energy and forces
   NPACO  =    256;   APACO  = 16.0  distance and # of slots for P.C.
   PSTRESS=    0.0 pullay stress

  Mass of Ions in am
   POMASS =  54.94208.98
  Ionic Valenz
   ZVAL   =   7.00  5.00
  Atomic Wigner-Seitz radii
   RWIGS  =  -1.00 -1.00
  virtual crystal weights 
   VCA    =   1.00  1.00
   NELECT =      72.0000    total number of electrons
   NUPDOWN=      -1.0000    fix difference up-down

 DOS related values:
   EMIN   =  10.00;   EMAX   =-10.00  energy-range for DOS
   EFERMI =   0.00
   ISMEAR =     1;   SIGMA  =   0.10  broadening in eV -4-tet -1-fermi 0-gaus

 Electronic relaxation 2 (details)
   IALGO  =     38    algorithm
   LDIAG  =      T    sub-space diagonalisation (order eigenvalues)
   LSUBROT=      F    optimize rotation matrix (better conditioning)
   TURBO    =      0    0=normal 1=particle mesh
   IRESTART =      0    0=no restart 2=restart with 2 vectors
   NREBOOT  =      0    no. of reboots
   NMIN     =      0    reboot dimension
   EREF     =   0.00    reference energy to select bands
   IMIX   =      4    mixing-type and parameters
     AMIX     =   0.40;   BMIX     =  1.00
     AMIX_MAG =   1.60;   BMIX_MAG =  1.00
     AMIN     =   0.10
     WC   =   100.;   INIMIX=   1;  MIXPRE=   1;  MAXMIX= -45

 Intra band minimization:
   WEIMIN = 0.0000     energy-eigenvalue tresh-hold
   EBREAK =  0.58E-08  absolut break condition
   DEPER  =   0.30     relativ break condition  

   TIME   =   0.40     timestep for ELM

  volume/ion in A,a.u.               =      32.23       217.50
  Fermi-wavevector in a.u.,A,eV,Ry     =   0.934775  1.766469 11.888837  0.873805
  Thomas-Fermi vector in A             =   2.061615
 
 Write flags
   LWAVE        =      F    write WAVECAR
   LDOWNSAMPLE  =      F    k-point downsampling of WAVECAR
   LCHARG       =      F    write CHGCAR
   LVTOT        =      F    write LOCPOT, total local potential
   LVHAR        =      F    write LOCPOT, Hartree potential only
   LELF         =      F    write electronic localiz. function (ELF)
   LORBIT       =     11    0 simple, 1 ext, 2 COOP (PROOUT), +10 PAW based schemes


 Dipole corrections
   LMONO  =      F    monopole corrections only (constant potential shift)
   LDIPOL =      F    correct potential (dipole corrections)
   IDIPOL =      0    1-x, 2-y, 3-z, 4-all directions 
   EPSILON=  1.0000000 bulk dielectric constant

 Exchange correlation treatment:
   GGA     =    --    GGA type
   LEXCH   =     8    internal setting for exchange type
   VOSKOWN=      0    Vosko Wilk Nusair interpolation
   LHFCALC =     F    Hartree Fock is set to
   LHFONE  =     F    Hartree Fock one center treatment
   AEXX    =    0.0000 exact exchange contribution

 Linear response parameters
   LEPSILON=     F    determine dielectric tensor
   LRPA    =     F    only Hartree local field effects (RPA)
   LNABLA  =     F    use nabla operator in PAW spheres
   LVEL    =     F    velocity operator in full k-point grid
   LINTERFAST=   F  fast interpolation
   KINTER  =     0    interpolate to denser k-point grid
   CSHIFT  =0.1000    complex shift for real part using Kramers Kronig
   OMEGAMAX=  -1.0    maximum frequency
   DEG_THRESHOLD= 0.2000000E-02 threshold for treating states as degnerate
   RTIME   =   -0.100 relaxation time in fs
  (WPLASMAI=    0.000 imaginary part of plasma frequency in eV, 0.658/RTIME)
   DFIELD  = 0.0000000 0.0000000 0.0000000 field for delta impulse in time
 
 Orbital magnetization related:
   ORBITALMAG=     F  switch on orbital magnetization
   LCHIMAG   =     F  perturbation theory with respect to B field
   DQ        =  0.001000  dq finite difference perturbation B field
   LLRAUG    =     F  two centre corrections for induced B field



--------------------------------------------------------------------------------------------------------


 Static calculation
 charge density and potential will be updated during run
 spin polarized calculation
 Variant of blocked Davidson
 Davidson routine will perform the subspace rotation
 perform sub-space diagonalisation
    after iterative eigenvector-optimisation
 modified Broyden-mixing scheme, WC =      100.0
 initial mixing is a Kerker type mixing with AMIX =  0.4000 and BMIX =      1.0000
 Hartree-type preconditioning will be used
 using additional bands            7
 reciprocal scheme for non local part
 use partial core corrections
 calculate Harris-corrections to forces 
   (improved forces if not selfconsistent)
 use gradient corrections 
 use of overlap-Matrix (Vanderbilt PP)
 Methfessel and Paxton  Order N= 1 SIGMA  =   0.10


--------------------------------------------------------------------------------------------------------


  energy-cutoff  :      500.00
  volume of cell :      386.75
      direct lattice vectors                 reciprocal lattice vectors
     4.500557900  0.000000000  0.000000000     0.222194675 -0.042761382 -0.030236863
     2.250278800  6.495995900  7.349380200     0.000000000  0.085522770  0.060473731
     0.000000000 -5.196796600  7.349380200     0.000000000 -0.085522770  0.075592165

  length of vectors
     4.500557900 10.063553385  9.001115721     0.228283327  0.104743574  0.114141664


 
 k-points in units of 2pi/SCALE and weight: read from INCAR                         
   0.00000000  0.00000000  0.00000000       0.083
   0.07406489 -0.01425379 -0.01007895       0.167
   0.00000000  0.04276138  0.03023687       0.083
   0.07406489  0.02850759  0.02015791       0.167
   0.00000000 -0.04276138  0.03779608       0.083
   0.07406489 -0.05701518  0.02771713       0.167
   0.00000000  0.00000000  0.06803295       0.083
   0.07406489 -0.01425379  0.05795399       0.167
 
 k-points in reciprocal lattice and weights: read from INCAR                         
   0.00000000  0.00000000  0.00000000       0.083
   0.33333333 -0.00000000  0.00000000       0.167
   0.00000000  0.50000000 -0.00000000       0.083
   0.33333333  0.50000000 -0.00000000       0.167
   0.00000000 -0.00000000  0.50000000       0.083
   0.33333333 -0.00000000  0.50000000       0.167
   0.00000000  0.50000000  0.50000000       0.083
   0.33333333  0.50000000  0.50000000       0.167
 
 position of ions in fractional coordinates (direct lattice) 
   0.25000000  0.50000001  0.87500000
   0.58333333  0.83333335  0.04166667
   0.91666667  0.16666668  0.20833334
   0.25000000  0.50000001  0.37500000
   0.58333333  0.83333335  0.54166667
   0.91666667  0.16666668  0.70833334
   0.00000000  0.00000000  0.00000000
   0.33333333  0.33333333  0.16666667
   0.66666667  0.66666667  0.33333333
   0.00000000  0.00000000  0.50000000
   0.33333333  0.33333333  0.66666667
   0.66666667  0.66666667  0.83333333
 
 position of ions in cartesian coordinates  (Angst):
   2.25027890 -1.29919900 10.10539790
   4.50055780  5.19679680  6.43070780
   4.50055790  0.00000010  2.75601770
   2.25027890  1.29919930  6.43070780
   4.50055780  2.59839850 10.10539790
   4.50055790 -2.59839820  6.43070780
   0.00000000  0.00000000  0.00000000
   2.25027890  1.29919920  3.67469010
   4.50055780  2.59839840  7.34938020
   0.00000000 -2.59839830  3.67469010
   2.25027890 -1.29919910  7.34938020
   4.50055780  0.00000010 11.02407030
 


--------------------------------------------------------------------------------------------------------


 k-point  1 :   0.0000 0.0000 0.0000  plane waves:    9813
 k-point  2 :   0.3333-0.0000 0.0000  plane waves:    9825
 k-point  3 :   0.0000 0.5000-0.0000  plane waves:    9832
 k-point  4 :   0.3333 0.5000-0.0000  plane waves:    9826
 k-point  5 :   0.0000-0.0000 0.5000  plane waves:    9788
 k-point  6 :   0.3333-0.0000 0.5000  plane waves:    9813
 k-point  7 :   0.0000 0.5000 0.5000  plane waves:    9822
 k-point  8 :   0.3333 0.5000 0.5000  plane waves:    9806

 maximum and minimum number of plane-waves per node :      1246     1209

 maximum number of plane-waves:      9832
 maximum index in each direction: 
   IXMAX=    8   IYMAX=   18   IZMAX=   16
   IXMIN=   -8   IYMIN=  -18   IZMIN=  -16


 parallel 3D FFT for wavefunctions:
    minimum data exchange during FFTs selected (reduces bandwidth)
 parallel 3D FFT for charge:
    minimum data exchange during FFTs selected (reduces bandwidth)


 total amount of memory used by VASP MPI-rank0    73289. kBytes
=======================================================================

   base      :      30000. kBytes
   nonl-proj :       3072. kBytes
   fftplans  :       7698. kBytes
   grid      :      18565. kBytes
   one-center:         62. kBytes
   wavefun   :      13892. kBytes
 
     INWAV:  cpu time    0.0000: real time    0.0001
 Broyden mixing: mesh for mixing (old mesh)
   NGX = 17   NGY = 37   NGZ = 33
  (NGX  = 72   NGY  =160   NGZ  =140)
  gives a total of  20757 points

 initial charge density was supplied:
 charge density of overlapping atoms calculated
 number of electron      72.0000000 magnetization      -0.0000000
 keeping initial charge density in first step


--------------------------------------------------------------------------------------------------------


 Maximum index for augmentation-charges         5943 (set IRDMAX)


--------------------------------------------------------------------------------------------------------


 First call to EWALD:  gamma=   0.243
 Maximum number of real-space cells 4x 2x 2
 Maximum number of reciprocal cells 2x 4x 3

    FEWALD:  cpu time    0.0013: real time    0.0013


--------------------------------------- Iteration      1(   1)  ---------------------------------------


    POTLOK:  cpu time    0.2590: real time    0.3502
    SETDIJ:  cpu time    0.0235: real time    0.0236
     EDDAV:  cpu time    2.3671: real time    2.3758
       DOS:  cpu time    0.0020: real time    0.0020
    --------------------------------------------
      LOOP:  cpu time    2.6515: real time    2.7516

 eigenvalue-minimisations  :  1376
 total energy-change (2. order) : 0.5494662E+03  (-0.2374988E+04)
 number of electron      72.0000000 magnetization       0.0000000
 augmentation part       72.0000000 magnetization       0.0000000

 Free energy of the ion-electron system (eV)
  ---------------------------------------------------
  alpha Z        PSCENC =       101.49540615
  Ewald energy   TEWEN  =     -2683.79588848
  -Hartree energ DENC   =      -967.30630471
  -exchange      EXHF   =         0.00000000
  -V(xc)+E(xc)   XCENC  =      -728.90537171
  PAW double counting   =      3780.13508079    -2989.48258254
  entropy T*S    EENTRO =        -0.00519499
  eigenvalues    EBANDS =       631.94145492
  atomic energy  EATOM  =      3405.38964915
  Solvation  Ediel_sol  =         0.00000000
  ---------------------------------------------------
  free energy    TOTEN  =       549.46624858 eV

  energy without entropy =      549.47144357  energy(sigma->0) =      549.46798024


--------------------------------------------------------------------------------------------------------




--------------------------------------- Iteration      1(   2)  ---------------------------------------


     EDDAV:  cpu time    2.3368: real time    2.3435
       DOS:  cpu time    0.0023: real time    0.0023
    --------------------------------------------
      LOOP:  cpu time    2.3391: real time    2.3458

 eigenvalue-minimisations  :  1376
 total energy-change (2. order) :-0.5285214E+03  (-0.5173481E+03)
 number of electron      72.0000000 magnetization       0.0000000
 augmentation part       72.0000000 magnetization       0.0000000

 Free energy of the ion-electron system (eV)
  ---------------------------------------------------
  alpha Z        PSCENC =       101.49540615
  Ewald energy   TEWEN  =     -2683.79588848
  -Hartree energ DENC   =      -967.30630471
  -exchange      EXHF   =         0.00000000
  -V(xc)+E(xc)   XCENC  =      -728.90537171
  PAW double counting   =      3780.13508079    -2989.48258254
  entropy T*S    EENTRO =         0.00360724
  eigenvalues    EBANDS =       103.41129031
  atomic energy  EATOM  =      3405.38964915
  Solvation  Ediel_sol  =         0.00000000
  ---------------------------------------------------
  free energy    TOTEN  =        20.94488621 eV

  energy without entropy =       20.94127896  energy(sigma->0) =       20.94368379


--------------------------------------------------------------------------------------------------------




--------------------------------------- Iteration      1(   3)  ---------------------------------------


     EDDAV:  cpu time    3.8316: real time    3.8411
       DOS:  cpu time    0.0025: real time    0.0025
    --------------------------------------------
      LOOP:  cpu time    3.8341: real time    3.8436

 eigenvalue-minimisations  :  2296
 total energy-change (2. order) :-0.8622432E+02  (-0.8293577E+02)
 number of electron      72.0000000 magnetization       0.0000000
 augmentation part       72.0000000 magnetization       0.0000000

 Free energy of the ion-electron system (eV)
  ---------------------------------------------------
  alpha Z        PSCENC =       101.49540615
  Ewald energy   TEWEN  =     -2683.79588848
  -Hartree energ DENC   =      -967.30630471
  -exchange      EXHF   =         0.00000000
  -V(xc)+E(xc)   XCENC  =      -728.90537171
  PAW double counting   =      3780.13508079    -2989.48258254
  entropy T*S    EENTRO =         0.00393186
  eigenvalues    EBANDS =        17.18664723
  atomic energy  EATOM  =      3405.38964915
  Solvation  Ediel_sol  =         0.00000000
  ---------------------------------------------------
  free energy    TOTEN  =       -65.27943226 eV

  energy without entropy =      -65.28336411  energy(sigma->0) =      -65.28074288


--------------------------------------------------------------------------------------------------------




--------------------------------------- Iteration      1(   4)  ---------------------------------------


     EDDAV:  cpu time    3.8110: real time    3.8205
       DOS:  cpu time    0.0026: real time    0.0026
    --------------------------------------------
      LOOP:  cpu time    3.8136: real time    3.8231

 eigenvalue-minimisations  :  2392
 total energy-change (2. order) :-0.9099795E+01  (-0.8865491E+01)
 number of electron      72.0000000 magnetization       0.0000000
 augmentation part       72.0000000 magnetization       0.0000000

 Free energy of the ion-electron system (eV)
  ---------------------------------------------------
  alpha Z        PSCENC =       101.49540615
  Ewald energy   TEWEN  =     -2683.79588848
  -Hartree energ DENC   =      -967.30630471
  -exchange      EXHF   =         0.00000000
  -V(xc)+E(xc)   XCENC  =      -728.90537171
  PAW double counting   =      3780.13508079    -2989.48258254
  entropy T*S    EENTRO =        -0.00395540
  eigenvalues    EBANDS =         8.09473962
  atomic energy  EATOM  =      3405.38964915
  Solvation  Ediel_sol  =         0.00000000
  ---------------------------------------------------
  free energy    TOTEN  =       -74.37922712 eV

  energy without entropy =      -74.37527172  energy(sigma->0) =      -74.37790866


--------------------------------------------------------------------------------------------------------




--------------------------------------- Iteration      1(   5)  ---------------------------------------


     EDDAV:  cpu time    3.9436: real time    3.9533
       DOS:  cpu time    0.0025: real time    0.0025
    CHARGE:  cpu time    0.3105: real time    0.3112
    MIXING:  cpu time    0.0061: real time    0.0061
    --------------------------------------------
      LOOP:  cpu time    4.2627: real time    4.2732

 eigenvalue-minimisations  :  2272
 total energy-change (2. order) :-0.6088539E+00  (-0.6029555E+00)
 number of electron      71.9999990 magnetization      -0.0072706
 augmentation part        5.6520818 magnetization       0.0010566

 Broyden mixing:
  rms(total) = 0.23460E+01    rms(broyden)= 0.23460E+01
  rms(prec ) = 0.32564E+01
  weight for this iteration     100.00

 Free energy of the ion-electron system (eV)
  ---------------------------------------------------
  alpha Z        PSCENC =       101.49540615
  Ewald energy   TEWEN  =     -2683.79588848
  -Hartree energ DENC   =      -967.30630471
  -exchange      EXHF   =         0.00000000
  -V(xc)+E(xc)   XCENC  =      -728.90537171
  PAW double counting   =      3780.13508079    -2989.48258254
  entropy T*S    EENTRO =        -0.00604494
  eigenvalues    EBANDS =         7.48797531
  atomic energy  EATOM  =      3405.38964915
  Solvation  Ediel_sol  =         0.00000000
  ---------------------------------------------------
  free energy    TOTEN  =       -74.98808098 eV

  energy without entropy =      -74.98203604  energy(sigma->0) =      -74.98606600


--------------------------------------------------------------------------------------------------------




--------------------------------------- Iteration      1(   6)  ---------------------------------------


    POTLOK:  cpu time    0.2694: real time    0.2701
    SETDIJ:  cpu time    0.0235: real time    0.0236
     EDDAV:  cpu time    4.3013: real time    4.3116
       DOS:  cpu time    0.0031: real time    0.0031
    CHARGE:  cpu time    0.3136: real time    0.3143
    MIXING:  cpu time    0.0056: real time    0.0056
    --------------------------------------------
      LOOP:  cpu time    4.9165: real time    4.9283

 eigenvalue-minimisations  :  2524
 total energy-change (2. order) :-0.9795959E+01  (-0.2718914E+02)
 number of electron      71.9999982 magnetization      -0.0287221
 augmentation part       19.4205496 magnetization       0.0361589

 Broyden mixing:
  rms(total) = 0.54297E+01    rms(broyden)= 0.54296E+01
  rms(prec ) = 0.65586E+01
  weight for this iteration     100.00

 eigenvalues of (default mixing * dielectric matrix)
  average eigenvalue GAMMA=   0.2087
  0.2087

 Free energy of the ion-electron system (eV)
  ---------------------------------------------------
  alpha Z        PSCENC =       101.49540615
  Ewald energy   TEWEN  =     -2683.79588848
  -Hartree energ DENC   =      -838.87885759
  -exchange      EXHF   =         0.00000000
  -V(xc)+E(xc)   XCENC  =      -726.73469506
  PAW double counting   =      3796.04278784    -2996.49206780
  entropy T*S    EENTRO =        -0.01147978
  eigenvalues    EBANDS =      -141.79889399
  atomic energy  EATOM  =      3405.38964915
  Solvation  Ediel_sol  =         0.00000000
  ---------------------------------------------------
  free energy    TOTEN  =       -84.78403956 eV

  energy without entropy =      -84.77255978  energy(sigma->0) =      -84.78021296


--------------------------------------------------------------------------------------------------------




--------------------------------------- Iteration      1(   7)  ---------------------------------------


    POTLOK:  cpu time    0.2726: real time    0.2734
    SETDIJ:  cpu time    0.0240: real time    0.0240
     EDDAV:  cpu time    4.0179: real time    4.0275
       DOS:  cpu time    0.0028: real time    0.0028
    CHARGE:  cpu time    0.3058: real time    0.3065
    MIXING:  cpu time    0.0055: real time    0.0055
    --------------------------------------------
      LOOP:  cpu time    4.6286: real time    4.6397

 eigenvalue-minimisations  :  2344
 total energy-change (2. order) : 0.1674566E+02  (-0.1007215E+02)
 number of electron      71.9999987 magnetization       0.0137225
 augmentation part       11.8360607 magnetization      -0.0188750

 Broyden mixing:
  rms(total) = 0.93813E+00    rms(broyden)= 0.93807E+00
  rms(prec ) = 0.10592E+01
  weight for this iteration     100.00

 eigenvalues of (default mixing * dielectric matrix)
  average eigenvalue GAMMA=   0.5095
  0.7142  0.3048

 Free energy of the ion-electron system (eV)
  ---------------------------------------------------
  alpha Z        PSCENC =       101.49540615
  Ewald energy   TEWEN  =     -2683.79588848
  -Hartree energ DENC   =      -903.78534238
  -exchange      EXHF   =         0.00000000
  -V(xc)+E(xc)   XCENC  =      -727.75775902
  PAW double counting   =      4019.34456740    -3228.60945307
  entropy T*S    EENTRO =         0.00439656
  eigenvalues    EBANDS =       -50.32395548
  atomic energy  EATOM  =      3405.38964915
  Solvation  Ediel_sol  =         0.00000000
  ---------------------------------------------------
  free energy    TOTEN  =       -68.03837916 eV

  energy without entropy =      -68.04277572  energy(sigma->0) =      -68.03984468


--------------------------------------------------------------------------------------------------------




--------------------------------------- Iteration      1(   8)  ---------------------------------------


    POTLOK:  cpu time    0.2710: real time    0.2717
    SETDIJ:  cpu time    0.0255: real time    0.0256
     EDDAV:  cpu time    4.3108: real time    4.3210
       DOS:  cpu time    0.0028: real time    0.0028
    CHARGE:  cpu time    0.3093: real time    0.3100
    MIXING:  cpu time    0.0057: real time    0.0057
    --------------------------------------------
      LOOP:  cpu time    4.9251: real time    4.9369

 eigenvalue-minimisations  :  2608
 total energy-change (2. order) :-0.8616302E+00  (-0.1379678E+01)
 number of electron      71.9999988 magnetization       0.0121105
 augmentation part       10.0892705 magnetization       0.0075955

 Broyden mixing:
  rms(total) = 0.68891E+00    rms(broyden)= 0.68886E+00
  rms(prec ) = 0.85497E+00
  weight for this iteration     100.00

 eigenvalues of (default mixing * dielectric matrix)
  average eigenvalue GAMMA=   0.6330
  1.1205  0.3893  0.3893

 Free energy of the ion-electron system (eV)
  ---------------------------------------------------
  alpha Z        PSCENC =       101.49540615
  Ewald energy   TEWEN  =     -2683.79588848
  -Hartree energ DENC   =      -915.12934017
  -exchange      EXHF   =         0.00000000
  -V(xc)+E(xc)   XCENC  =      -723.90478448
  PAW double counting   =      4128.73741320    -3342.39745878
  entropy T*S    EENTRO =        -0.00139104
  eigenvalues    EBANDS =       -39.29361488
  atomic energy  EATOM  =      3405.38964915
  Solvation  Ediel_sol  =         0.00000000
  ---------------------------------------------------
  free energy    TOTEN  =       -68.90000932 eV

  energy without entropy =      -68.89861829  energy(sigma->0) =      -68.89954564


--------------------------------------------------------------------------------------------------------




--------------------------------------- Iteration      1(   9)  ---------------------------------------


    POTLOK:  cpu time    0.2597: real time    0.2605
    SETDIJ:  cpu time    0.0241: real time    0.0242
     EDDAV:  cpu time    4.3234: real time    4.3337
       DOS:  cpu time    0.0029: real time    0.0029
    CHARGE:  cpu time    0.3082: real time    0.3089
    MIXING:  cpu time    0.0059: real time    0.0060
    --------------------------------------------
      LOOP:  cpu time    4.9243: real time    4.9362

 eigenvalue-minimisations  :  2544
 total energy-change (2. order) :-0.1558094E+00  (-0.4832742E+00)
 number of electron      71.9999988 magnetization       0.0380563
 augmentation part       10.0816733 magnetization       0.0230206

 Broyden mixing:
  rms(total) = 0.63168E+00    rms(broyden)= 0.63166E+00
  rms(prec ) = 0.82770E+00
  weight for this iteration     100.00

 eigenvalues of (default mixing * dielectric matrix)
  average eigenvalue GAMMA=   0.7574
  1.8571  0.5295  0.3569  0.2862

 Free energy of the ion-electron system (eV)
  ---------------------------------------------------
  alpha Z        PSCENC =       101.49540615
  Ewald energy   TEWEN  =     -2683.79588848
  -Hartree energ DENC   =      -912.46584187
  -exchange      EXHF   =         0.00000000
  -V(xc)+E(xc)   XCENC  =      -722.04195314
  PAW double counting   =      4218.31771758    -3434.04708963
  entropy T*S    EENTRO =         0.00504006
  eigenvalues    EBANDS =       -41.91285860
  atomic energy  EATOM  =      3405.38964915
  Solvation  Ediel_sol  =         0.00000000
  ---------------------------------------------------
  free energy    TOTEN  =       -69.05581877 eV

  energy without entropy =      -69.06085883  energy(sigma->0) =      -69.05749879


--------------------------------------------------------------------------------------------------------




--------------------------------------- Iteration      1(  10)  ---------------------------------------


    POTLOK:  cpu time    0.2733: real time    0.2741
    SETDIJ:  cpu time    0.0226: real time    0.0226
     EDDAV:  cpu time    4.2816: real time    4.2917
       DOS:  cpu time    0.0030: real time    0.0030
    CHARGE:  cpu time    0.3052: real time    0.3060
    MIXING:  cpu time    0.0058: real time    0.0058
    --------------------------------------------
      LOOP:  cpu time    4.8914: real time    4.9032

 eigenvalue-minimisations  :  2544
 total energy-change (2. order) : 0.2657406E+00  (-0.1556047E+00)
 number of electron      71.9999988 magnetization       0.0411739
 augmentation part       10.3170589 magnetization       0.0329438

 Broyden mixing:
  rms(total) = 0.23264E+00    rms(broyden)= 0.23263E+00
  rms(prec ) = 0.27701E+00
  weight for this iteration     100.00

 eigenvalues of (default mixing * dielectric matrix)
  average eigenvalue GAMMA=   0.7679
  2.0156  0.5924  0.5924  0.3515  0.2874

 Free energy of the ion-electron system (eV)
  ---------------------------------------------------
  alpha Z        PSCENC =       101.49540615
  Ewald energy   TEWEN  =     -2683.79588848
  -Hartree energ DENC   =      -906.67219075
  -exchange      EXHF   =         0.00000000
  -V(xc)+E(xc)   XCENC  =      -720.00371732
  PAW double counting   =      4344.68256553    -3562.96601737
  entropy T*S    EENTRO =         0.00032466
  eigenvalues    EBANDS =       -46.92020971
  atomic energy  EATOM  =      3405.38964915
  Solvation  Ediel_sol  =         0.00000000
  ---------------------------------------------------
  free energy    TOTEN  =       -68.79007814 eV

  energy without entropy =      -68.79040280  energy(sigma->0) =      -68.79018636


--------------------------------------------------------------------------------------------------------




--------------------------------------- Iteration      1(  11)  ---------------------------------------


    POTLOK:  cpu time    0.2798: real time    0.2808
    SETDIJ:  cpu time    0.0234: real time    0.0235
     EDDAV:  cpu time    4.0987: real time    4.1087
       DOS:  cpu time    0.0030: real time    0.0030
    CHARGE:  cpu time    0.3077: real time    0.3084
    MIXING:  cpu time    0.0060: real time    0.0060
    --------------------------------------------
      LOOP:  cpu time    4.7185: real time    4.7304

 eigenvalue-minimisations  :  2448
 total energy-change (2. order) :-0.3265542E-01  (-0.4541807E-01)
 number of electron      71.9999987 magnetization       0.0270085
 augmentation part       10.4627322 magnetization       0.0330920

 Broyden mixing:
  rms(total) = 0.18649E+00    rms(broyden)= 0.18649E+00
  rms(prec ) = 0.21908E+00
  weight for this iteration     100.00

 eigenvalues of (default mixing * dielectric matrix)
  average eigenvalue GAMMA=   0.7437
  2.1072  0.7604  0.6342  0.3723  0.2941  0.2941

 Free energy of the ion-electron system (eV)
  ---------------------------------------------------
  alpha Z        PSCENC =       101.49540615
  Ewald energy   TEWEN  =     -2683.79588848
  -Hartree energ DENC   =      -905.18924698
  -exchange      EXHF   =         0.00000000
  -V(xc)+E(xc)   XCENC  =      -720.07610596
  PAW double counting   =      4368.51709654    -3587.28159149
  entropy T*S    EENTRO =        -0.00219010
  eigenvalues    EBANDS =       -47.87986240
  atomic energy  EATOM  =      3405.38964915
  Solvation  Ediel_sol  =         0.00000000
  ---------------------------------------------------
  free energy    TOTEN  =       -68.82273356 eV

  energy without entropy =      -68.82054346  energy(sigma->0) =      -68.82200352


--------------------------------------------------------------------------------------------------------




--------------------------------------- Iteration      1(  12)  ---------------------------------------


    POTLOK:  cpu time    0.2717: real time    0.2724
    SETDIJ:  cpu time    0.0233: real time    0.0233
     EDDAV:  cpu time    4.0718: real time    4.0814
       DOS:  cpu time    0.0029: real time    0.0029
    CHARGE:  cpu time    0.3088: real time    0.3096
    MIXING:  cpu time    0.0066: real time    0.0066
    --------------------------------------------
      LOOP:  cpu time    4.6849: real time    4.6961

 eigenvalue-minimisations  :  2432
 total energy-change (2. order) :-0.1072904E-01  (-0.1395207E-01)
 number of electron      71.9999987 magnetization       0.0133126
 augmentation part       10.5404924 magnetization       0.0142734

 Broyden mixing:
  rms(total) = 0.10783E+00    rms(broyden)= 0.10783E+00
  rms(prec ) = 0.11920E+00
  weight for this iteration     100.00

 eigenvalues of (default mixing * dielectric matrix)
  average eigenvalue GAMMA=   0.8047
  2.1813  1.2906  0.6209  0.6209  0.3421  0.2885  0.2885

 Free energy of the ion-electron system (eV)
  ---------------------------------------------------
  alpha Z        PSCENC =       101.49540615
  Ewald energy   TEWEN  =     -2683.79588848
  -Hartree energ DENC   =      -904.22413749
  -exchange      EXHF   =         0.00000000
  -V(xc)+E(xc)   XCENC  =      -720.31749508
  PAW double counting   =      4386.66750902    -3605.80032549
  entropy T*S    EENTRO =        -0.00030688
  eigenvalues    EBANDS =       -48.24787351
  atomic energy  EATOM  =      3405.38964915
  Solvation  Ediel_sol  =         0.00000000
  ---------------------------------------------------
  free energy    TOTEN  =       -68.83346260 eV

  energy without entropy =      -68.83315572  energy(sigma->0) =      -68.83336031


--------------------------------------------------------------------------------------------------------




--------------------------------------- Iteration      1(  13)  ---------------------------------------


    POTLOK:  cpu time    0.2629: real time    0.2636
    SETDIJ:  cpu time    0.0242: real time    0.0243
     EDDAV:  cpu time    4.0044: real time    4.0139
       DOS:  cpu time    0.0029: real time    0.0029
    CHARGE:  cpu time    0.3056: real time    0.3063
    MIXING:  cpu time    0.0058: real time    0.0058
    --------------------------------------------
      LOOP:  cpu time    4.6057: real time    4.6167

 eigenvalue-minimisations  :  2384
 total energy-change (2. order) :-0.4201324E-02  (-0.4435996E-02)
 number of electron      71.9999987 magnetization       0.0094166
 augmentation part       10.5382856 magnetization       0.0059340

 Broyden mixing:
  rms(total) = 0.56543E-01    rms(broyden)= 0.56542E-01
  rms(prec ) = 0.66212E-01
  weight for this iteration     100.00

 eigenvalues of (default mixing * dielectric matrix)
  average eigenvalue GAMMA=   0.8098
  2.3189  1.5128  0.6680  0.6680  0.3527  0.3527  0.3183  0.2869

 Free energy of the ion-electron system (eV)
  ---------------------------------------------------
  alpha Z        PSCENC =       101.49540615
  Ewald energy   TEWEN  =     -2683.79588848
  -Hartree energ DENC   =      -904.27712499
  -exchange      EXHF   =         0.00000000
  -V(xc)+E(xc)   XCENC  =      -720.59472254
  PAW double counting   =      4393.35506218    -3612.61508994
  entropy T*S    EENTRO =         0.00042549
  eigenvalues    EBANDS =       -47.79538095
  atomic energy  EATOM  =      3405.38964915
  Solvation  Ediel_sol  =         0.00000000
  ---------------------------------------------------
  free energy    TOTEN  =       -68.83766392 eV

  energy without entropy =      -68.83808941  energy(sigma->0) =      -68.83780575


--------------------------------------------------------------------------------------------------------




--------------------------------------- Iteration      1(  14)  ---------------------------------------


    POTLOK:  cpu time    0.2619: real time    0.2627
    SETDIJ:  cpu time    0.0244: real time    0.0244
     EDDAV:  cpu time    3.9915: real time    4.0011
       DOS:  cpu time    0.0029: real time    0.0029
    CHARGE:  cpu time    0.3043: real time    0.3050
    MIXING:  cpu time    0.0058: real time    0.0058
    --------------------------------------------
      LOOP:  cpu time    4.5908: real time    4.6019

 eigenvalue-minimisations  :  2392
 total energy-change (2. order) :-0.1889404E-03  (-0.1574614E-02)
 number of electron      71.9999987 magnetization       0.0083285
 augmentation part       10.5220396 magnetization       0.0014261

 Broyden mixing:
  rms(total) = 0.26591E-01    rms(broyden)= 0.26590E-01
  rms(prec ) = 0.33391E-01
  weight for this iteration     100.00

 eigenvalues of (default mixing * dielectric matrix)
  average eigenvalue GAMMA=   0.8184
  2.4787  1.5011  0.7799  0.7799  0.5627  0.3542  0.2920  0.3085  0.3085

 Free energy of the ion-electron system (eV)
  ---------------------------------------------------
  alpha Z        PSCENC =       101.49540615
  Ewald energy   TEWEN  =     -2683.79588848
  -Hartree energ DENC   =      -904.45761090
  -exchange      EXHF   =         0.00000000
  -V(xc)+E(xc)   XCENC  =      -720.69424084
  PAW double counting   =      4397.21221963    -3616.56031040
  entropy T*S    EENTRO =         0.00031903
  eigenvalues    EBANDS =       -47.42739621
  atomic energy  EATOM  =      3405.38964915
  Solvation  Ediel_sol  =         0.00000000
  ---------------------------------------------------
  free energy    TOTEN  =       -68.83785286 eV

  energy without entropy =      -68.83817189  energy(sigma->0) =      -68.83795921


--------------------------------------------------------------------------------------------------------




--------------------------------------- Iteration      1(  15)  ---------------------------------------


    POTLOK:  cpu time    0.2798: real time    0.2805
    SETDIJ:  cpu time    0.0268: real time    0.0268
     EDDAV:  cpu time    3.9491: real time    3.9584
       DOS:  cpu time    0.0029: real time    0.0029
    CHARGE:  cpu time    0.3034: real time    0.3041
    MIXING:  cpu time    0.0065: real time    0.0065
    --------------------------------------------
      LOOP:  cpu time    4.5683: real time    4.5793

 eigenvalue-minimisations  :  2296
 total energy-change (2. order) :-0.1287153E-05  (-0.3925850E-03)
 number of electron      71.9999987 magnetization       0.0047430
 augmentation part       10.5171291 magnetization       0.0037943

 Broyden mixing:
  rms(total) = 0.12937E-01    rms(broyden)= 0.12936E-01
  rms(prec ) = 0.15708E-01
  weight for this iteration     100.00

 eigenvalues of (default mixing * dielectric matrix)
  average eigenvalue GAMMA=   0.8076
  2.4829  1.6425  0.9280  0.7252  0.5280  0.4797  0.2904  0.2904  0.3545  0.3545

 Free energy of the ion-electron system (eV)
  ---------------------------------------------------
  alpha Z        PSCENC =       101.49540615
  Ewald energy   TEWEN  =     -2683.79588848
  -Hartree energ DENC   =      -904.55094024
  -exchange      EXHF   =         0.00000000
  -V(xc)+E(xc)   XCENC  =      -720.69378643
  PAW double counting   =      4399.81435031    -3619.22475992
  entropy T*S    EENTRO =         0.00024999
  eigenvalues    EBANDS =       -47.27213470
  atomic energy  EATOM  =      3405.38964915
  Solvation  Ediel_sol  =         0.00000000
  ---------------------------------------------------
  free energy    TOTEN  =       -68.83785415 eV

  energy without entropy =      -68.83810414  energy(sigma->0) =      -68.83793748


--------------------------------------------------------------------------------------------------------




--------------------------------------- Iteration      1(  16)  ---------------------------------------


    POTLOK:  cpu time    0.2603: real time    0.2611
    SETDIJ:  cpu time    0.0231: real time    0.0232
     EDDAV:  cpu time    3.9050: real time    3.9146
       DOS:  cpu time    0.0029: real time    0.0029
    CHARGE:  cpu time    0.3016: real time    0.3025
    MIXING:  cpu time    0.0068: real time    0.0068
    --------------------------------------------
      LOOP:  cpu time    4.4998: real time    4.5110

 eigenvalue-minimisations  :  2336
 total energy-change (2. order) :-0.2964709E-04  (-0.1211167E-03)
 number of electron      71.9999987 magnetization       0.0030122
 augmentation part       10.5118590 magnetization       0.0019777

 Broyden mixing:
  rms(total) = 0.78660E-02    rms(broyden)= 0.78658E-02
  rms(prec ) = 0.96377E-02
  weight for this iteration     100.00

 eigenvalues of (default mixing * dielectric matrix)
  average eigenvalue GAMMA=   0.8207
  2.4605  1.8443  1.0404  0.8241  0.6306  0.5564  0.2941  0.2941  0.3796  0.3516
  0.3516

 Free energy of the ion-electron system (eV)
  ---------------------------------------------------
  alpha Z        PSCENC =       101.49540615
  Ewald energy   TEWEN  =     -2683.79588848
  -Hartree energ DENC   =      -904.65434377
  -exchange      EXHF   =         0.00000000
  -V(xc)+E(xc)   XCENC  =      -720.71653941
  PAW double counting   =      4400.27200780    -3619.68411590
  entropy T*S    EENTRO =         0.00015361
  eigenvalues    EBANDS =       -47.14421295
  atomic energy  EATOM  =      3405.38964915
  Solvation  Ediel_sol  =         0.00000000
  ---------------------------------------------------
  free energy    TOTEN  =       -68.83788380 eV

  energy without entropy =      -68.83803741  energy(sigma->0) =      -68.83793500


--------------------------------------------------------------------------------------------------------




--------------------------------------- Iteration      1(  17)  ---------------------------------------


    POTLOK:  cpu time    0.2630: real time    0.2637
    SETDIJ:  cpu time    0.0243: real time    0.0243
     EDDAV:  cpu time    4.1000: real time    4.1098
       DOS:  cpu time    0.0029: real time    0.0029
    CHARGE:  cpu time    0.3068: real time    0.3075
    MIXING:  cpu time    0.0072: real time    0.0072
    --------------------------------------------
      LOOP:  cpu time    4.7041: real time    4.7154

 eigenvalue-minimisations  :  2464
 total energy-change (2. order) :-0.6902462E-05  (-0.3338917E-04)
 number of electron      71.9999987 magnetization       0.0019097
 augmentation part       10.5103789 magnetization       0.0014266

 Broyden mixing:
  rms(total) = 0.45561E-02    rms(broyden)= 0.45560E-02
  rms(prec ) = 0.56487E-02
  weight for this iteration     100.00

 eigenvalues of (default mixing * dielectric matrix)
  average eigenvalue GAMMA=   0.8234
  2.4484  1.8335  1.2960  0.7653  0.7653  0.5637  0.5637  0.3640  0.3640  0.3000
  0.3000  0.3168

 Free energy of the ion-electron system (eV)
  ---------------------------------------------------
  alpha Z        PSCENC =       101.49540615
  Ewald energy   TEWEN  =     -2683.79588848
  -Hartree energ DENC   =      -904.71504452
  -exchange      EXHF   =         0.00000000
  -V(xc)+E(xc)   XCENC  =      -720.72440017
  PAW double counting   =      4400.37793299    -3619.78110464
  entropy T*S    EENTRO =         0.00027297
  eigenvalues    EBANDS =       -47.08471416
  atomic energy  EATOM  =      3405.38964915
  Solvation  Ediel_sol  =         0.00000000
  ---------------------------------------------------
  free energy    TOTEN  =       -68.83789070 eV

  energy without entropy =      -68.83816367  energy(sigma->0) =      -68.83798169


--------------------------------------------------------------------------------------------------------




--------------------------------------- Iteration      1(  18)  ---------------------------------------


    POTLOK:  cpu time    0.2747: real time    0.2755
    SETDIJ:  cpu time    0.0228: real time    0.0229
     EDDAV:  cpu time    3.9407: real time    3.9500
       DOS:  cpu time    0.0029: real time    0.0029
    CHARGE:  cpu time    0.2947: real time    0.2955
    MIXING:  cpu time    0.0069: real time    0.0074
    --------------------------------------------
      LOOP:  cpu time    4.5427: real time    4.5542

 eigenvalue-minimisations  :  2352
 total energy-change (2. order) :-0.6405789E-05  (-0.9814311E-05)
 number of electron      71.9999987 magnetization       0.0006765
 augmentation part       10.5108424 magnetization       0.0002807

 Broyden mixing:
  rms(total) = 0.25559E-02    rms(broyden)= 0.25558E-02
  rms(prec ) = 0.31089E-02
  weight for this iteration     100.00

 eigenvalues of (default mixing * dielectric matrix)
  average eigenvalue GAMMA=   0.8466
  2.3628  2.0186  1.5493  0.8595  0.8595  0.5853  0.5853  0.5330  0.3923  0.2963
  0.2963  0.3271  0.3402

 Free energy of the ion-electron system (eV)
  ---------------------------------------------------
  alpha Z        PSCENC =       101.49540615
  Ewald energy   TEWEN  =     -2683.79588848
  -Hartree energ DENC   =      -904.73354227
  -exchange      EXHF   =         0.00000000
  -V(xc)+E(xc)   XCENC  =      -720.71707307
  PAW double counting   =      4400.39752101    -3619.79276813
  entropy T*S    EENTRO =         0.00023182
  eigenvalues    EBANDS =       -47.08143328
  atomic energy  EATOM  =      3405.38964915
  Solvation  Ediel_sol  =         0.00000000
  ---------------------------------------------------
  free energy    TOTEN  =       -68.83789711 eV

  energy without entropy =      -68.83812893  energy(sigma->0) =      -68.83797438


--------------------------------------------------------------------------------------------------------




--------------------------------------- Iteration      1(  19)  ---------------------------------------


    POTLOK:  cpu time    0.2315: real time    0.2331
    SETDIJ:  cpu time    0.0228: real time    0.0229
     EDDAV:  cpu time    3.5745: real time    3.5889
       DOS:  cpu time    0.0029: real time    0.0029
    CHARGE:  cpu time    0.2951: real time    0.2958
    MIXING:  cpu time    0.0066: real time    0.0067
    --------------------------------------------
      LOOP:  cpu time    4.1333: real time    4.1502

 eigenvalue-minimisations  :  2320
 total energy-change (2. order) :-0.6200573E-05  (-0.3724156E-05)
 number of electron      71.9999987 magnetization       0.0004773
 augmentation part       10.5125681 magnetization      -0.0000203

 Broyden mixing:
  rms(total) = 0.16016E-02    rms(broyden)= 0.16016E-02
  rms(prec ) = 0.20430E-02
  weight for this iteration     100.00

 eigenvalues of (default mixing * dielectric matrix)
  average eigenvalue GAMMA=   0.8462
  2.3888  2.0354  1.7129  0.8808  0.8808  0.6715  0.6715  0.5457  0.3989  0.3989
  0.2969  0.2969  0.3508  0.3164

 Free energy of the ion-electron system (eV)
  ---------------------------------------------------
  alpha Z        PSCENC =       101.49540615
  Ewald energy   TEWEN  =     -2683.79588848
  -Hartree energ DENC   =      -904.74386539
  -exchange      EXHF   =         0.00000000
  -V(xc)+E(xc)   XCENC  =      -720.71319586
  PAW double counting   =      4400.49144650    -3619.87849383
  entropy T*S    EENTRO =         0.00022408
  eigenvalues    EBANDS =       -47.08318564
  atomic energy  EATOM  =      3405.38964915
  Solvation  Ediel_sol  =         0.00000000
  ---------------------------------------------------
  free energy    TOTEN  =       -68.83790331 eV

  energy without entropy =      -68.83812739  energy(sigma->0) =      -68.83797800


--------------------------------------------------------------------------------------------------------




--------------------------------------- Iteration      1(  20)  ---------------------------------------


    POTLOK:  cpu time    0.2448: real time    0.2454
    SETDIJ:  cpu time    0.0239: real time    0.0240
     EDDAV:  cpu time    3.8859: real time    3.8951
       DOS:  cpu time    0.0030: real time    0.0030
    CHARGE:  cpu time    0.3124: real time    0.3132
    MIXING:  cpu time    0.0087: real time    0.0087
    --------------------------------------------
      LOOP:  cpu time    4.4787: real time    4.4894

 eigenvalue-minimisations  :  2216
 total energy-change (2. order) :-0.2101356E-05  (-0.1736215E-05)
 number of electron      71.9999987 magnetization       0.0002076
 augmentation part       10.5133950 magnetization       0.0001316

 Broyden mixing:
  rms(total) = 0.86013E-03    rms(broyden)= 0.86008E-03
  rms(prec ) = 0.11611E-02
  weight for this iteration     100.00

 eigenvalues of (default mixing * dielectric matrix)
  average eigenvalue GAMMA=   0.8755
  2.5889  1.9994  1.9994  1.0098  1.0098  0.6484  0.6484  0.6087  0.6087  0.2969
  0.2969  0.3855  0.3237  0.3543  0.3543

 Free energy of the ion-electron system (eV)
  ---------------------------------------------------
  alpha Z        PSCENC =       101.49540615
  Ewald energy   TEWEN  =     -2683.79588848
  -Hartree energ DENC   =      -904.74568022
  -exchange      EXHF   =         0.00000000
  -V(xc)+E(xc)   XCENC  =      -720.71030958
  PAW double counting   =      4400.63316895    -3620.02055419
  entropy T*S    EENTRO =         0.00023606
  eigenvalues    EBANDS =       -47.08393326
  atomic energy  EATOM  =      3405.38964915
  Solvation  Ediel_sol  =         0.00000000
  ---------------------------------------------------
  free energy    TOTEN  =       -68.83790541 eV

  energy without entropy =      -68.83814147  energy(sigma->0) =      -68.83798409


--------------------------------------------------------------------------------------------------------




--------------------------------------- Iteration      1(  21)  ---------------------------------------


    POTLOK:  cpu time    0.2627: real time    0.2635
    SETDIJ:  cpu time    0.0271: real time    0.0272
     EDDAV:  cpu time    2.8224: real time    2.8291
       DOS:  cpu time    0.0029: real time    0.0029
    CHARGE:  cpu time    0.3124: real time    0.3132
    MIXING:  cpu time    0.0091: real time    0.0091
    --------------------------------------------
      LOOP:  cpu time    3.4366: real time    3.4450

 eigenvalue-minimisations  :  1440
 total energy-change (2. order) :-0.1834937E-05  (-0.5357718E-06)
 number of electron      71.9999987 magnetization       0.0000999
 augmentation part       10.5137252 magnetization      -0.0000247

 Broyden mixing:
  rms(total) = 0.48207E-03    rms(broyden)= 0.48205E-03
  rms(prec ) = 0.62991E-03
  weight for this iteration     100.00

 eigenvalues of (default mixing * dielectric matrix)
  average eigenvalue GAMMA=   0.8703
  2.6341  1.9560  1.9560  1.2443  0.9565  0.7607  0.6306  0.6306  0.6128  0.5468
  0.4044  0.2969  0.2969  0.3450  0.3263  0.3263

 Free energy of the ion-electron system (eV)
  ---------------------------------------------------
  alpha Z        PSCENC =       101.49540615
  Ewald energy   TEWEN  =     -2683.79588848
  -Hartree energ DENC   =      -904.74958968
  -exchange      EXHF   =         0.00000000
  -V(xc)+E(xc)   XCENC  =      -720.70730642
  PAW double counting   =      4400.78783614    -3620.17712361
  entropy T*S    EENTRO =         0.00023286
  eigenvalues    EBANDS =       -47.08112337
  atomic energy  EATOM  =      3405.38964915
  Solvation  Ediel_sol  =         0.00000000
  ---------------------------------------------------
  free energy    TOTEN  =       -68.83790724 eV

  energy without entropy =      -68.83814011  energy(sigma->0) =      -68.83798486


--------------------------------------------------------------------------------------------------------




--------------------------------------- Iteration      1(  22)  ---------------------------------------


    POTLOK:  cpu time    0.2602: real time    0.2610
    SETDIJ:  cpu time    0.0267: real time    0.0268
     EDDAV:  cpu time    2.5792: real time    2.5853
       DOS:  cpu time    0.0030: real time    0.0030
    --------------------------------------------
      LOOP:  cpu time    2.8692: real time    2.8761

 eigenvalue-minimisations  :  1224
 total energy-change (2. order) :-0.5586871E-06  (-0.1933729E-06)
 number of electron      71.9999987 magnetization       0.0000999
 augmentation part       10.5137252 magnetization      -0.0000247

 Free energy of the ion-electron system (eV)
  ---------------------------------------------------
  alpha Z        PSCENC =       101.49540615
  Ewald energy   TEWEN  =     -2683.79588848
  -Hartree energ DENC   =      -904.75570853
  -exchange      EXHF   =         0.00000000
  -V(xc)+E(xc)   XCENC  =      -720.70779059
  PAW double counting   =      4400.81836184    -3620.20793311
  entropy T*S    EENTRO =         0.00023049
  eigenvalues    EBANDS =       -47.07423474
  atomic energy  EATOM  =      3405.38964915
  Solvation  Ediel_sol  =         0.00000000
  ---------------------------------------------------
  free energy    TOTEN  =       -68.83790780 eV

  energy without entropy =      -68.83813829  energy(sigma->0) =      -68.83798463


--------------------------------------------------------------------------------------------------------




 average (electrostatic) potential at core
  the test charge radii are     1.0210  1.4024
  (the norm of the test charge is              1.0000)
       1 -47.0414       2 -47.0240       3 -47.0080       4 -47.0414       5 -47.0238
       6 -47.0081       7 -63.3411       8 -63.3932       9 -63.3630      10 -63.3411
      11 -63.3931      12 -63.3630
 
 
 
 E-fermi :   2.7780     XC(G=0):  -8.7817     alpha+bet : -8.1043


 spin component 1

 k-point     1 :       0.0000    0.0000    0.0000
  band No.  band energies     occupation 
      1      -8.1065      1.00000
      2      -7.4992      1.00000
      3      -7.4581      1.00000
      4      -7.3951      1.00000
      5      -7.3484      1.00000
      6      -7.3249      1.00000
      7      -0.7475      1.00000
      8      -0.6120      1.00000
      9      -0.5293      1.00000
     10      -0.4305      1.00000
     11      -0.4041      1.00000
     12      -0.1482      1.00000
     13      -0.1331      1.00000
     14      -0.0051      1.00000
     15       0.0169      1.00000
     16       0.0944      1.00000
     17       0.1525      1.00000
     18       0.2677      1.00000
     19       0.2803      1.00000
     20       0.2951      1.00000
     21       0.3108      1.00000
     22       0.3273      1.00000
     23       0.4042      1.00000
     24       0.5141      1.00000
     25       0.9891      1.00000
     26       1.0160      1.00000
     27       1.6115      1.00000
     28       1.8671      1.00000
     29       1.8768      1.00000
     30       1.9650      1.00000
     31       2.0064      1.00000
     32       2.1596      1.00000
     33       2.5009      1.00032
     34       2.7072      0.96272
     35       3.1318     -0.00000
     36       3.2098     -0.00000
     37       3.2512     -0.00000
     38       3.2657     -0.00000
     39       3.6964     -0.00000
     40       3.7929     -0.00000
     41       3.9106     -0.00000
     42       4.0724     -0.00000
     43       4.1155     -0.00000

 k-point     2 :       0.3333   -0.0000    0.0000
  band No.  band energies     occupation 
      1      -7.7144      1.00000
      2      -7.4417      1.00000
      3      -7.3152      1.00000
      4      -7.2086      1.00000
      5      -7.1794      1.00000
      6      -7.1511      1.00000
      7      -0.7160      1.00000
      8      -0.6402      1.00000
      9      -0.5353      1.00000
     10      -0.4391      1.00000
     11      -0.3522      1.00000
     12      -0.2139      1.00000
     13      -0.0515      1.00000
     14       0.0218      1.00000
     15       0.0509      1.00000
     16       0.1613      1.00000
     17       0.1759      1.00000
     18       0.2155      1.00000
     19       0.2517      1.00000
     20       0.2939      1.00000
     21       0.3188      1.00000
     22       0.3781      1.00000
     23       0.4125      1.00000
     24       0.5494      1.00000
     25       0.5931      1.00000
     26       0.6963      1.00000
     27       1.0924      1.00000
     28       1.3107      1.00000
     29       1.4009      1.00000
     30       1.6582      1.00000
     31       1.8232      1.00000
     32       1.9543      1.00000
     33       2.1019      1.00000
     34       2.2164      1.00000
     35       2.5446      1.00235
     36       2.6414      1.03294
     37       2.7205      0.90849
     38       2.7562      0.68005
     39       2.9997     -0.00373
     40       3.6444     -0.00000
     41       3.7521     -0.00000
     42       3.8939     -0.00000
     43       3.9771     -0.00000

 k-point     3 :       0.0000    0.5000   -0.0000
  band No.  band energies     occupation 
      1      -7.9128      1.00000
      2      -7.8881      1.00000
      3      -7.4273      1.00000
      4      -7.3997      1.00000
      5      -7.3723      1.00000
      6      -7.1217      1.00000
      7      -0.8497      1.00000
      8      -0.6933      1.00000
      9      -0.4579      1.00000
     10      -0.4266      1.00000
     11      -0.2187      1.00000
     12      -0.1903      1.00000
     13      -0.1118      1.00000
     14      -0.0812      1.00000
     15       0.0711      1.00000
     16       0.0769      1.00000
     17       0.1855      1.00000
     18       0.2063      1.00000
     19       0.2772      1.00000
     20       0.3040      1.00000
     21       0.3068      1.00000
     22       0.3251      1.00000
     23       0.4094      1.00000
     24       0.6117      1.00000
     25       0.6729      1.00000
     26       1.3848      1.00000
     27       1.6117      1.00000
     28       1.8115      1.00000
     29       1.9021      1.00000
     30       1.9375      1.00000
     31       1.9416      1.00000
     32       2.1375      1.00000
     33       2.4708      1.00006
     34       2.6192      1.02362
     35       2.9260     -0.02854
     36       3.0083     -0.00267
     37       3.3762     -0.00000
     38       3.6009     -0.00000
     39       3.6824     -0.00000
     40       3.7306     -0.00000
     41       3.9515     -0.00000
     42       3.9601     -0.00000
     43       4.0615     -0.00000

 k-point     4 :       0.3333    0.5000   -0.0000
  band No.  band energies     occupation 
      1      -7.6716      1.00000
      2      -7.5229      1.00000
      3      -7.2918      1.00000
      4      -7.2093      1.00000
      5      -7.1812      1.00000
      6      -7.1346      1.00000
      7      -0.7132      1.00000
      8      -0.6125      1.00000
      9      -0.5242      1.00000
     10      -0.3737      1.00000
     11      -0.3280      1.00000
     12      -0.2757      1.00000
     13      -0.0307      1.00000
     14       0.0216      1.00000
     15       0.0679      1.00000
     16       0.1589      1.00000
     17       0.1734      1.00000
     18       0.1985      1.00000
     19       0.2540      1.00000
     20       0.2666      1.00000
     21       0.3194      1.00000
     22       0.3445      1.00000
     23       0.4528      1.00000
     24       0.5431      1.00000
     25       0.6830      1.00000
     26       0.7309      1.00000
     27       0.9700      1.00000
     28       1.2274      1.00000
     29       1.3436      1.00000
     30       1.5082      1.00000
     31       1.7828      1.00000
     32       1.9658      1.00000
     33       2.0887      1.00000
     34       2.1878      1.00000
     35       2.5083      1.00046
     36       2.7201      0.91031
     37       2.7842      0.44751
     38       2.8802     -0.02720
     39       3.0134     -0.00217
     40       3.6598     -0.00000
     41       3.8011     -0.00000
     42       3.8934     -0.00000
     43       4.0098     -0.00000

 k-point     5 :       0.0000   -0.0000    0.5000
  band No.  band energies     occupation 
      1      -7.8932      1.00000
      2      -7.8426      1.00000
      3      -7.4872      1.00000
      4      -7.4146      1.00000
      5      -7.2845      1.00000
      6      -7.2315      1.00000
      7      -0.6483      1.00000
      8      -0.6130      1.00000
      9      -0.3506      1.00000
     10      -0.2899      1.00000
     11      -0.2530      1.00000
     12      -0.1315      1.00000
     13      -0.1044      1.00000
     14      -0.0097      1.00000
     15       0.0161      1.00000
     16       0.0864      1.00000
     17       0.1304      1.00000
     18       0.1786      1.00000
     19       0.2782      1.00000
     20       0.2961      1.00000
     21       0.3065      1.00000
     22       0.3321      1.00000
     23       0.3653      1.00000
     24       0.5351      1.00000
     25       0.9180      1.00000
     26       1.1455      1.00000
     27       1.5832      1.00000
     28       1.6784      1.00000
     29       1.8804      1.00000
     30       1.9050      1.00000
     31       1.9468      1.00000
     32       1.9608      1.00000
     33       2.3372      1.00000
     34       2.4112      1.00000
     35       2.8233      0.15686
     36       3.1480     -0.00000
     37       3.2385     -0.00000
     38       3.3117     -0.00000
     39       3.7766     -0.00000
     40       3.8621     -0.00000
     41       3.9718     -0.00000
     42       4.1391     -0.00000
     43       4.1597     -0.00000

 k-point     6 :       0.3333   -0.0000    0.5000
  band No.  band energies     occupation 
      1      -7.5672      1.00000
      2      -7.4969      1.00000
      3      -7.3741      1.00000
      4      -7.2668      1.00000
      5      -7.2071      1.00000
      6      -7.1279      1.00000
      7      -0.5425      1.00000
      8      -0.4934      1.00000
      9      -0.4457      1.00000
     10      -0.2811      1.00000
     11      -0.2400      1.00000
     12      -0.1623      1.00000
     13      -0.1252      1.00000
     14      -0.0617      1.00000
     15      -0.0203      1.00000
     16       0.0701      1.00000
     17       0.1382      1.00000
     18       0.1981      1.00000
     19       0.2612      1.00000
     20       0.2684      1.00000
     21       0.3118      1.00000
     22       0.3504      1.00000
     23       0.3941      1.00000
     24       0.5290      1.00000
     25       0.7187      1.00000
     26       0.9122      1.00000
     27       1.0311      1.00000
     28       1.2249      1.00000
     29       1.2552      1.00000
     30       1.4363      1.00000
     31       1.7175      1.00000
     32       1.8146      1.00000
     33       2.0574      1.00000
     34       2.1668      1.00000
     35       2.4892      1.00017
     36       2.5513      1.00307
     37       2.6841      1.01756
     38       2.9560     -0.01524
     39       3.0388     -0.00071
     40       3.6552     -0.00000
     41       3.7682     -0.00000
     42       3.9085     -0.00000
     43       4.0213     -0.00000

 k-point     7 :       0.0000    0.5000    0.5000
  band No.  band energies     occupation 
      1      -7.8176      1.00000
      2      -7.7541      1.00000
      3      -7.6666      1.00000
      4      -7.5774      1.00000
      5      -7.2142      1.00000
      6      -7.1220      1.00000
      7      -0.6495      1.00000
      8      -0.4447      1.00000
      9      -0.3431      1.00000
     10      -0.2967      1.00000
     11      -0.2632      1.00000
     12      -0.1742      1.00000
     13      -0.1112      1.00000
     14      -0.0795      1.00000
     15       0.0713      1.00000
     16       0.1378      1.00000
     17       0.1732      1.00000
     18       0.2459      1.00000
     19       0.2711      1.00000
     20       0.3098      1.00000
     21       0.3234      1.00000
     22       0.3267      1.00000
     23       0.4043      1.00000
     24       0.5028      1.00000
     25       0.9004      1.00000
     26       1.1791      1.00000
     27       1.2491      1.00000
     28       1.3719      1.00000
     29       1.5526      1.00000
     30       1.8604      1.00000
     31       1.9160      1.00000
     32       1.9518      1.00000
     33       2.4401      1.00001
     34       2.5966      1.01390
     35       2.8707     -0.01571
     36       3.1148     -0.00001
     37       3.3922     -0.00000
     38       3.6388     -0.00000
     39       3.7191     -0.00000
     40       3.9001     -0.00000
     41       3.9397     -0.00000
     42       3.9887     -0.00000
     43       4.0102     -0.00000

 k-point     8 :       0.3333    0.5000    0.5000
  band No.  band energies     occupation 
      1      -7.5490      1.00000
      2      -7.4661      1.00000
      3      -7.4243      1.00000
      4      -7.3001      1.00000
      5      -7.1961      1.00000
      6      -7.1055      1.00000
      7      -0.5426      1.00000
      8      -0.5062      1.00000
      9      -0.4592      1.00000
     10      -0.2866      1.00000
     11      -0.2704      1.00000
     12      -0.2023      1.00000
     13      -0.1499      1.00000
     14      -0.0284      1.00000
     15      -0.0034      1.00000
     16       0.1116      1.00000
     17       0.1673      1.00000
     18       0.2300      1.00000
     19       0.2493      1.00000
     20       0.2686      1.00000
     21       0.3193      1.00000
     22       0.3639      1.00000
     23       0.4509      1.00000
     24       0.5373      1.00000
     25       0.8176      1.00000
     26       0.8466      1.00000
     27       1.0356      1.00000
     28       1.1989      1.00000
     29       1.3372      1.00000
     30       1.4519      1.00000
     31       1.7165      1.00000
     32       1.8780      1.00000
     33       1.9661      1.00000
     34       2.1068      1.00000
     35       2.2964      1.00000
     36       2.4673      1.00005
     37       2.5824      1.00918
     38       2.9488     -0.01820
     39       3.1086     -0.00002
     40       3.6292     -0.00000
[...]
     34       2.5967      1.01392
     35       2.8707     -0.01573
     36       3.1147     -0.00001
     37       3.3922     -0.00000
     38       3.6387     -0.00000
     39       3.7192     -0.00000
     40       3.9002     -0.00000
     41       3.9399     -0.00000
     42       3.9955     -0.00000
     43       4.1124     -0.00000

 k-point     8 :       0.3333    0.5000    0.5000
  band No.  band energies     occupation 
      1      -7.5490      1.00000
      2      -7.4661      1.00000
      3      -7.4243      1.00000
      4      -7.3001      1.00000
      5      -7.1961      1.00000
      6      -7.1055      1.00000
      7      -0.5426      1.00000
      8      -0.5062      1.00000
      9      -0.4592      1.00000
     10      -0.2866      1.00000
     11      -0.2703      1.00000
     12      -0.2023      1.00000
     13      -0.1498      1.00000
     14      -0.0284      1.00000
     15      -0.0034      1.00000
     16       0.1116      1.00000
     17       0.1673      1.00000
     18       0.2300      1.00000
     19       0.2493      1.00000
     20       0.2686      1.00000
     21       0.3193      1.00000
     22       0.3640      1.00000
     23       0.4509      1.00000
     24       0.5373      1.00000
     25       0.8176      1.00000
     26       0.8466      1.00000
     27       1.0356      1.00000
     28       1.1989      1.00000
     29       1.3373      1.00000
     30       1.4519      1.00000
     31       1.7165      1.00000
     32       1.8781      1.00000
     33       1.9661      1.00000
     34       2.1068      1.00000
     35       2.2964      1.00000
     36       2.4673      1.00005
     37       2.5824      1.00919
     38       2.9488     -0.01821
     39       3.1086     -0.00002
     40       3.6292     -0.00000
     41       3.8038     -0.00000
     42       3.9054     -0.00000
     43       3.9841     -0.00000


--------------------------------------------------------------------------------------------------------


 soft charge-density along one line, spin component           1
         0         1         2         3         4         5         6         7         8         9
 total charge-density along one line
 
 soft charge-density along one line, spin component           2
         0         1         2         3         4         5         6         7         8         9
 total charge-density along one line
 
 pseudopotential strength for first ion, spin component:           1
 -8.421   0.001   0.002   0.036  -0.000  -8.938   0.001   0.002
  0.001  -8.426   0.002  -0.001   0.043   0.001  -8.942   0.002
  0.002   0.002  -8.365   0.001   0.007   0.002   0.002  -8.882
  0.036  -0.001   0.001  -8.443  -0.000   0.035  -0.001   0.001
 -0.000   0.043   0.007  -0.000  -8.402  -0.000   0.042   0.007
 -8.938   0.001   0.002   0.035  -0.000  -9.429   0.001   0.002
  0.001  -8.942   0.002  -0.001   0.042   0.001  -9.434   0.002
  0.002   0.002  -8.882   0.001   0.007   0.002   0.002  -9.374
  0.035  -0.001   0.001  -8.959  -0.000   0.035  -0.001   0.001
 -0.000   0.042   0.007  -0.000  -8.919  -0.000   0.042   0.007
  0.001   0.001  -0.001  -0.000   0.003   0.001   0.001  -0.001
  0.001   0.003  -0.002  -0.000   0.005   0.001   0.003  -0.002
 -0.000   0.008  -0.000  -0.000   0.008  -0.000   0.008  -0.000
 -0.000   0.000  -0.009  -0.000   0.000  -0.000   0.000  -0.009
  0.009  -0.000   0.000   0.009  -0.000   0.009  -0.000   0.000
 -0.000   0.009  -0.000  -0.000   0.009  -0.000   0.009  -0.000
 -0.000   0.000  -0.011  -0.001   0.001  -0.000   0.000  -0.011
  0.011  -0.000   0.000   0.010  -0.000   0.010  -0.000   0.000
 pseudopotential strength for first ion, spin component:           2
 -6.189   0.001  -0.001  -0.059   0.001  -6.747   0.001  -0.001
  0.001  -6.132  -0.001  -0.001  -0.072   0.001  -6.691  -0.001
 -0.001  -0.001  -6.224  -0.001   0.006  -0.001  -0.001  -6.782
 -0.059  -0.001  -0.001  -6.129   0.001  -0.058  -0.001  -0.001
  0.001  -0.072   0.006   0.001  -6.210   0.001  -0.072   0.006
 -6.747   0.001  -0.001  -0.058   0.001  -7.280   0.001  -0.001
  0.001  -6.691  -0.001  -0.001  -0.072   0.001  -7.225  -0.001
 -0.001  -0.001  -6.782  -0.001   0.006  -0.001  -0.001  -7.315
 -0.058  -0.001  -0.001  -6.688   0.001  -0.058  -0.001  -0.001
  0.001  -0.072   0.006   0.001  -6.768   0.001  -0.071   0.006
 -0.000  -0.003  -0.004  -0.000   0.000  -0.000  -0.003  -0.004
 -0.000  -0.005  -0.008  -0.000   0.000  -0.000  -0.006  -0.008
 -0.001   0.002  -0.001  -0.000  -0.005  -0.001   0.002  -0.001
 -0.000   0.001   0.013  -0.000  -0.001  -0.000   0.001   0.013
 -0.002  -0.000   0.000   0.000  -0.001  -0.002  -0.000   0.000
 -0.001   0.002  -0.001  -0.000  -0.008  -0.001   0.002  -0.001
 -0.000   0.002   0.018  -0.001  -0.001  -0.000   0.002   0.017
 -0.004  -0.000   0.001  -0.001  -0.001  -0.004  -0.000   0.001
 total augmentation occupancy for first ion, spin component:           1
  2.578   0.011  -0.005  -0.026   0.014  -1.174  -0.008   0.004  -0.077  -0.010   0.002   0.001  -0.004   0.000  -0.107   0.000
  0.011   2.659   0.011  -0.003  -0.098  -0.008  -1.162  -0.007   0.002  -0.028  -0.010   0.000  -0.071  -0.001  -0.005   0.004
 -0.005   0.011   2.829  -0.001   0.065   0.004  -0.007  -1.411   0.001  -0.045   0.020  -0.008  -0.015   0.200   0.001  -0.000
 -0.026  -0.003  -0.001   2.757  -0.003  -0.077   0.002   0.001  -1.228   0.002   0.001  -0.000   0.001  -0.000  -0.089   0.000
  0.014  -0.098   0.065  -0.003   2.704  -0.010  -0.026  -0.045   0.002  -1.260  -0.019   0.001  -0.117  -0.000  -0.004   0.005
 -1.174  -0.008   0.004  -0.077  -0.010   0.903   0.006  -0.001   0.209   0.007  -0.003  -0.001   0.003  -0.000   0.166  -0.000
 -0.008  -1.162  -0.007   0.002  -0.026   0.006   0.783   0.007  -0.002   0.185   0.008  -0.000   0.115  -0.000   0.003  -0.006
  0.004  -0.007  -1.411   0.001  -0.045  -0.001   0.007   1.190   0.000   0.033   0.001   0.002   0.008  -0.254  -0.001   0.000
 -0.077   0.002   0.001  -1.228   0.002   0.209  -0.002   0.000   0.816  -0.002  -0.001  -0.000  -0.001  -0.000   0.129  -0.000
 -0.010  -0.028  -0.045   0.002  -1.260   0.007   0.185   0.033  -0.002   0.985   0.015   0.000   0.176   0.003   0.003  -0.008
  0.002  -0.010   0.020   0.001  -0.019  -0.003   0.008   0.001  -0.001   0.015   1.588  -0.097   0.002  -0.001  -0.000   0.000
  0.001   0.000  -0.008  -0.000   0.001  -0.001  -0.000   0.002  -0.000   0.000  -0.097   0.016   0.000   0.001  -0.000   0.000
 -0.004  -0.071  -0.015   0.001  -0.117   0.003   0.115   0.008  -0.001   0.176   0.002   0.000   0.112   0.000   0.002  -0.005
  0.000  -0.001   0.200  -0.000  -0.000  -0.000  -0.000  -0.254  -0.000   0.003  -0.001   0.001   0.000   0.126   0.000  -0.000
 -0.107  -0.005   0.001  -0.089  -0.004   0.166   0.003  -0.001   0.129   0.003  -0.000  -0.000   0.002   0.000   0.109  -0.000
  0.000   0.004  -0.000   0.000   0.005  -0.000  -0.006   0.000  -0.000  -0.008   0.000   0.000  -0.005  -0.000  -0.000   0.000
  0.000   0.001  -0.008   0.000  -0.001   0.000  -0.000   0.011  -0.000   0.000  -0.000   0.000  -0.000  -0.005  -0.000   0.000
  0.006   0.000   0.000   0.003   0.000  -0.008  -0.000   0.000  -0.006  -0.000   0.000   0.000  -0.000  -0.000  -0.005   0.000
 total augmentation occupancy for first ion, spin component:           2
  2.339   0.011  -0.006  -0.133   0.014  -0.781  -0.008   0.004   0.081  -0.010   0.000   0.001  -0.004   0.001  -0.011   0.000
  0.011   2.499   0.008  -0.003  -0.207  -0.008  -0.907  -0.003   0.002   0.125  -0.010   0.000   0.003  -0.002  -0.005  -0.001
 -0.006   0.008   2.509  -0.002   0.064   0.004  -0.002  -0.950   0.001  -0.053  -0.021  -0.006  -0.016   0.099   0.001  -0.000
 -0.133  -0.003  -0.002   2.602  -0.003   0.083   0.002   0.001  -0.977   0.002   0.001  -0.000   0.001   0.000  -0.023   0.000
  0.014  -0.207   0.064  -0.003   2.468  -0.010   0.124  -0.052   0.002  -0.901  -0.020   0.001  -0.024  -0.006  -0.004  -0.001
 -0.781  -0.008   0.004   0.083  -0.010   0.105   0.005  -0.004  -0.105   0.007   0.001  -0.001   0.003  -0.000  -0.031  -0.000
 -0.008  -0.907  -0.002   0.002   0.124   0.005   0.243  -0.004  -0.001  -0.135   0.002   0.000  -0.027   0.003   0.004   0.001
  0.004  -0.003  -0.950   0.001  -0.052  -0.004  -0.004   0.206  -0.002   0.042   0.003   0.001   0.013  -0.022  -0.000  -0.000
  0.081   0.002   0.001  -0.977   0.002  -0.105  -0.001  -0.002   0.300  -0.001  -0.000   0.000  -0.000   0.000  -0.012  -0.000
 -0.010   0.125  -0.053   0.002  -0.901   0.007  -0.135   0.042  -0.001   0.190   0.007   0.000  -0.022   0.001   0.003   0.002
  0.000  -0.010  -0.021   0.001  -0.020   0.001   0.002   0.003  -0.000   0.007  -0.102   0.085   0.003   0.009  -0.001   0.000
  0.001   0.000  -0.006  -0.000   0.001  -0.001   0.000   0.001   0.000   0.000   0.085  -0.007   0.000   0.001  -0.000  -0.000
 -0.004   0.003  -0.016   0.001  -0.024   0.003  -0.027   0.013  -0.000  -0.022   0.003   0.000   0.004  -0.002   0.002   0.001
  0.001  -0.002   0.099   0.000  -0.006  -0.000   0.003  -0.022   0.000   0.001   0.009   0.001  -0.002   0.022   0.000   0.000
 -0.011  -0.005   0.001  -0.023  -0.004  -0.031   0.004  -0.000  -0.012   0.003  -0.001  -0.000   0.002   0.000   0.004  -0.000
  0.000  -0.001  -0.000   0.000  -0.001  -0.000   0.001  -0.000  -0.000   0.002   0.000  -0.000   0.001   0.000  -0.000  -0.000
  0.000   0.001  -0.000   0.000  -0.000  -0.000  -0.000  -0.001  -0.000   0.000   0.000  -0.000   0.000   0.000  -0.000   0.000
  0.000   0.000   0.000  -0.001   0.000   0.001  -0.000  -0.000   0.001  -0.000   0.000   0.000  -0.000   0.000   0.000   0.000


------------------------ aborting loop because EDIFF is reached ----------------------------------------


 


 total charge     
 
# of ion       s       p       d       tot
------------------------------------------
    1        0.310   0.197   4.959   5.466
    2        0.310   0.198   4.957   5.465
    3        0.310   0.196   4.962   5.468
    4        0.310   0.197   4.959   5.466
    5        0.310   0.198   4.957   5.465
    6        0.310   0.196   4.962   5.468
    7        1.680   2.232   0.064   3.976
    8        1.680   2.229   0.063   3.971
    9        1.680   2.232   0.063   3.974
   10        1.680   2.232   0.064   3.976
   11        1.680   2.229   0.063   3.971
   12        1.680   2.232   0.063   3.974
--------------------------------------------------
tot         11.937  14.566  30.135  56.638
 


 magnetization (x)
 
# of ion       s       p       d       tot
------------------------------------------
    1        0.046   0.020   3.705   3.771
    2        0.048   0.023   3.742   3.813
    3        0.042   0.018   3.685   3.745
    4       -0.046  -0.020  -3.705  -3.771
    5       -0.048  -0.023  -3.742  -3.813
    6       -0.042  -0.018  -3.685  -3.745
    7        0.001  -0.208   0.017  -0.190
    8       -0.002  -0.255   0.016  -0.241
    9        0.003   0.291  -0.017   0.278
   10       -0.001   0.208  -0.017   0.190
   11        0.002   0.255  -0.016   0.241
   12       -0.003  -0.291   0.017  -0.278
--------------------------------------------------
tot         -0.000   0.000  -0.000   0.000
 
    CHARGE:  cpu time    0.3075: real time    0.3082
    FORLOC:  cpu time    0.0155: real time    0.0155
    FORNL :  cpu time    1.1741: real time    1.1771
    STRESS:  cpu time    1.2744: real time    1.2774
    FORCOR:  cpu time    0.2760: real time    0.2767
    FORHAR:  cpu time    0.0381: real time    0.0382
    MIXING:  cpu time    0.0091: real time    0.0091
    OFIELD:  cpu time    0.0001: real time    0.0000

  FORCE on cell =-STRESS in cart. coord.  units (eV):
  Direction    XX          YY          ZZ          XY          YZ          ZX
  --------------------------------------------------------------------------------------
  Alpha Z   101.49541   101.49541   101.49541
  Ewald    -894.60019  -894.60028  -894.60037     0.00003     0.00004     0.00002
  Hartree   299.54553   303.48094   301.75117     0.09971    -1.08454     0.00781
  E(xc)    -340.44604  -341.46274  -341.03177    -0.01096     0.32024    -0.01710
  Local    -146.08595  -160.20946  -154.32336    -0.22634     4.23742    -0.16101
  n-local   325.98943   330.52645   329.15356     0.07687    -1.62149     0.03032
  augment    24.79386    24.80843    24.56894    -0.00977     0.19262    -0.01209
  Kinetic   625.57371   637.20441   633.41899     0.36506    -3.00795     0.24136
  Fock        0.00000     0.00000     0.00000     0.00000     0.00000     0.00000
  -------------------------------------------------------------------------------------
  Total      -3.73424     1.24315     0.43257     0.29460    -0.96367     0.08932
  in kB     -15.46955     5.14991     1.79198     1.22041    -3.99211     0.37003
  external pressure =       -2.84 kB  Pullay stress =        0.00 kB


 VOLUME and BASIS-vectors are now :
 -----------------------------------------------------------------------------
  energy-cutoff  :      500.00
  volume of cell :      386.75
      direct lattice vectors                 reciprocal lattice vectors
     4.500557900  0.000000000  0.000000000     0.222194675 -0.042761382 -0.030236863
     2.250278800  6.495995900  7.349380200     0.000000000  0.085522770  0.060473731
     0.000000000 -5.196796600  7.349380200     0.000000000 -0.085522770  0.075592165

  length of vectors
     4.500557900 10.063553385  9.001115721     0.228283327  0.104743574  0.114141664


 FORCES acting on ions
    electron-ion (+dipol)            ewald-force                    non-local-force                 convergence-correction
 -----------------------------------------------------------------------------------------------
   -.263E-01 -.250E-01 0.251E+00   -.269E-05 -.264E-05 -.195E-05   0.212E-01 0.289E-01 -.740E-01   -.156E-05 0.664E-03 -.476E-04
   -.616E-01 0.293E+00 -.244E+00   -.282E-05 -.212E-05 -.211E-05   0.694E-01 -.162E+00 0.235E+00   0.222E-04 0.935E-03 0.608E-03
   0.281E-01 -.184E+00 0.151E+00   -.289E-05 -.284E-05 -.225E-05   -.151E-01 0.256E+00 -.125E+00   0.331E-04 -.148E-02 -.412E-03
   -.264E-01 -.244E-01 0.251E+00   -.269E-05 -.264E-05 -.195E-05   0.212E-01 0.290E-01 -.740E-01   0.254E-04 0.110E-03 0.394E-03
   -.615E-01 0.294E+00 -.244E+00   -.282E-05 -.212E-05 -.211E-05   0.694E-01 -.162E+00 0.236E+00   -.165E-04 0.746E-03 0.613E-03
   0.282E-01 -.184E+00 0.152E+00   -.289E-05 -.284E-05 -.225E-05   -.151E-01 0.256E+00 -.125E+00   -.241E-05 -.860E-03 -.943E-03
   0.212E-01 -.226E+00 0.137E+00   0.278E-05 0.264E-05 0.195E-05   -.176E-02 0.288E+00 -.235E+00   -.736E-05 0.194E-04 0.499E-03
   -.188E-01 -.438E-01 -.142E+00   0.281E-05 0.269E-05 0.217E-05   -.403E-02 0.208E-01 -.173E-01   -.525E-06 -.112E-02 -.657E-03
   -.171E-01 0.377E-01 -.245E+00   0.281E-05 0.226E-05 0.219E-05   0.460E-02 -.283E+00 0.307E+00   0.230E-05 0.390E-03 0.123E-02
   0.212E-01 -.226E+00 0.138E+00   0.278E-05 0.264E-05 0.195E-05   -.176E-02 0.288E+00 -.235E+00   0.785E-05 -.212E-03 -.601E-03
   -.188E-01 -.444E-01 -.142E+00   0.281E-05 0.269E-05 0.217E-05   -.403E-02 0.208E-01 -.172E-01   -.363E-06 -.450E-03 -.378E-03
   -.171E-01 0.367E-01 -.243E+00   0.281E-05 0.226E-05 0.219E-05   0.460E-02 -.283E+00 0.306E+00   0.190E-05 0.133E-02 -.128E-03
 -----------------------------------------------------------------------------------------------
   -.149E+00 -.296E+00 -.182E+00   -.866E-14 0.731E-14 0.119E-14   0.149E+00 0.296E+00 0.182E+00   0.640E-04 0.674E-04 0.175E-03
 
 
 POSITION                                       TOTAL-FORCE (eV/Angst)
 -----------------------------------------------------------------------------------
      2.25028     -1.29920     10.10540        -0.005146      0.004621      0.177133
      4.50056      5.19680      6.43071         0.007854      0.132390     -0.008046
      4.50056      0.00000      2.75602         0.013100      0.070732      0.026071
      2.25028      1.29920      6.43071        -0.005148      0.004641      0.177244
      4.50056      2.59840     10.10540         0.007856      0.132417     -0.008126
      4.50056     -2.59840      6.43071         0.013100      0.070697      0.026093
      0.00000      0.00000      0.00000         0.019466      0.061692     -0.097861
      2.25028      1.29920      3.67469        -0.022777     -0.024111     -0.160104
      4.50056      2.59840      7.34938        -0.012485     -0.245322      0.062726
      0.00000     -2.59840      3.67469         0.019454      0.061802     -0.097891
      2.25028     -1.29920      7.34938        -0.022784     -0.024101     -0.159980
      4.50056      0.00000     11.02407        -0.012490     -0.245459      0.062741
 -----------------------------------------------------------------------------------
    total drift:                               -0.000072      0.000176      0.000010


--------------------------------------------------------------------------------------------------------



  FREE ENERGIE OF THE ION-ELECTRON SYSTEM (eV)
  ---------------------------------------------------
  free  energy   TOTEN  =       -68.83790780 eV

  energy  without entropy=      -68.83813829  energy(sigma->0) =      -68.83798463
 


--------------------------------------------------------------------------------------------------------


    POTLOK:  cpu time    0.2903: real time    0.2909


--------------------------------------------------------------------------------------------------------


     LOOP+:  cpu time   96.4409: real time   96.7789
    4ORBIT:  cpu time    0.0000: real time    0.0000
 


 total charge     
 
# of ion       s       p       d       tot
------------------------------------------
    1        0.310   0.197   4.959   5.466
    2        0.310   0.198   4.957   5.465
    3        0.310   0.196   4.962   5.468
    4        0.310   0.197   4.959   5.466
    5        0.310   0.198   4.957   5.465
    6        0.310   0.196   4.962   5.468
    7        1.680   2.232   0.064   3.976
    8        1.680   2.229   0.063   3.971
    9        1.680   2.232   0.063   3.974
   10        1.680   2.232   0.064   3.976
   11        1.680   2.229   0.063   3.971
   12        1.680   2.232   0.063   3.974
--------------------------------------------------
tot         11.937  14.566  30.135  56.638
 


 magnetization (x)
 
# of ion       s       p       d       tot
------------------------------------------
    1        0.046   0.020   3.705   3.771
    2        0.048   0.023   3.742   3.813
    3        0.042   0.018   3.685   3.745
    4       -0.046  -0.020  -3.705  -3.771
    5       -0.048  -0.023  -3.742  -3.813
    6       -0.042  -0.018  -3.685  -3.745
    7        0.001  -0.208   0.017  -0.190
    8       -0.002  -0.255   0.016  -0.241
    9        0.003   0.291  -0.017   0.278
   10       -0.001   0.208  -0.017   0.190
   11        0.002   0.255  -0.016   0.241
   12       -0.003  -0.291   0.017  -0.278
--------------------------------------------------
tot         -0.000   0.000  -0.000   0.000
 

 total amount of memory used by VASP MPI-rank0    73289. kBytes
=======================================================================

   base      :      30000. kBytes
   nonl-proj :       3072. kBytes
   fftplans  :       7698. kBytes
   grid      :      18565. kBytes
   one-center:         62. kBytes
   wavefun   :      13892. kBytes
 
  
  
 General timing and accounting informations for this job:
 ========================================================
  
                  Total CPU time used (sec):       98.340
                            User time (sec):       98.081
                          System time (sec):        0.259
                         Elapsed time (sec):       99.852
  
                   Maximum memory used (kb):      118756.
                   Average memory used (kb):           0.
  
                          Minor page faults:        52560
                          Major page faults:            0
                 Voluntary context switches:         1277
