=========================================
SLURM_JOB_ID = 63599083
SLURM_JOB_NODELIST = lnode32
SLURM_GPUS = 
SLURM_CPUS_ON_NODE = 8
SLURM_JOB_PARTITION = lenovo
SLURM_TASK_PID = 2330064
CUDA_VISIBLE_DEVICES = 
==========================================
 running on    8 total cores
 distrk:  each k-point on    8 cores,    1 groups
 distr:  one band on    4 cores,    2 groups
 using from now: INCAR     
 vasp.5.4.4.18Apr17-6-g9f103f2a35 (build Apr 28 2018 00:24:27) complex          
  
 POSCAR found type information on POSCAR  Fe
 POSCAR found :  1 types and       2 ions
 scaLAPACK will be used
 LDA part: xc-table for Pade appr. of Perdew
 POSCAR, INCAR and KPOINTS ok, starting setup
 FFT: planning ...
 WAVECAR not read
 entering main loop
       N       E                     dE             d eps       ncg     rms          rms(c)
DAV:   1     0.201694443776E+03    0.20169E+03   -0.12195E+04  3792   0.138E+03
DAV:   2    -0.704766097036E+01   -0.20874E+03   -0.19744E+03  3424   0.354E+02
DAV:   3    -0.156367349698E+02   -0.85891E+01   -0.85683E+01  3600   0.806E+01
DAV:   4    -0.157002654727E+02   -0.63531E-01   -0.63528E-01  3720   0.670E+00
DAV:   5    -0.157011570202E+02   -0.89155E-03   -0.89155E-03  3608   0.728E-01    0.247E+01
DAV:   6    -0.158194756473E+02   -0.11832E+00   -0.69160E+00  3504   0.383E+01    0.644E+00
DAV:   7    -0.158970032428E+02   -0.77528E-01   -0.55621E-01  3496   0.908E+00    0.414E+00
DAV:   8    -0.159116970065E+02   -0.14694E-01   -0.13552E-02  3624   0.136E+00    0.139E+00
DAV:   9    -0.159032098133E+02    0.84872E-02   -0.44386E-03  3560   0.813E-01    0.336E-01
DAV:  10    -0.159030356911E+02    0.17412E-03   -0.22613E-03  3432   0.576E-01    0.401E-02
DAV:  11    -0.159030802042E+02   -0.44513E-04   -0.63744E-05  3536   0.621E-02    0.233E-02
DAV:  12    -0.159030811815E+02   -0.97732E-06   -0.18209E-06  3232   0.149E-02
   1 F= -.15903081E+02 E0= -.15882772E+02  d E =-.406188E-01  mag=     4.4309
 writing wavefunctions
