=========================================
SLURM_JOB_ID = 63457064
SLURM_JOB_NODELIST = lnode34
SLURM_GPUS = 
SLURM_CPUS_ON_NODE = 8
SLURM_JOB_PARTITION = lenovo
SLURM_TASK_PID = 388890
CUDA_VISIBLE_DEVICES = 
==========================================
 running on    8 total cores
 distrk:  each k-point on    8 cores,    1 groups
 distr:  one band on    4 cores,    2 groups
 using from now: INCAR     
 vasp.5.4.4.18Apr17-6-g9f103f2a35 (build Apr 28 2018 00:24:27) complex          
  
 POSCAR found type information on POSCAR  Eu O 
 POSCAR found :  2 types and       2 ions
 scaLAPACK will be used

 ----------------------------------------------------------------------------- 
|                                                                             |
|  ADVICE TO THIS USER RUNNING 'VASP/VAMP'   (HEAR YOUR MASTER'S VOICE ...):  |
|                                                                             |
|      You have a (more or less) 'small supercell' and for smaller cells      |
|      it is recommended  to use the reciprocal-space projection scheme!      |
|      The real space optimization is not  efficient for small cells and it   |
|      is also less accurate ...                                              |
|      Therefore set LREAL=.FALSE. in the  INCAR file                         |
|                                                                             |
 ----------------------------------------------------------------------------- 

 LDA part: xc-table for Pade appr. of Perdew
 generate k-points for:   14   14   14
 POSCAR, INCAR and KPOINTS ok, starting setup
 FFT: planning ...
 WAVECAR not read
 entering main loop
       N       E                     dE             d eps       ncg     rms          rms(c)
DAV:   1     0.143477076771E+03    0.14348E+03   -0.99957E+03 28612   0.256E+03
DAV:   2    -0.510208010921E+01   -0.14858E+03   -0.13061E+03 25412   0.295E+02
DAV:   3    -0.197122569124E+02   -0.14610E+02   -0.14008E+02 26632   0.978E+01
DAV:   4    -0.204723074985E+02   -0.76005E+00   -0.74019E+00 36976   0.199E+01
DAV:   5    -0.204979571185E+02   -0.25650E-01   -0.25571E-01 31572   0.281E+00    0.186E+01
DAV:   6    -0.259119091969E+02   -0.54140E+01   -0.10241E+02 34940   0.110E+02    0.282E+01
DAV:   7    -0.208276192600E+02    0.50843E+01   -0.30338E+01 29312   0.863E+01    0.104E+01
DAV:   8    -0.209153640733E+02   -0.87745E-01   -0.13332E+00 32476   0.999E+00    0.514E+00
DAV:   9    -0.209221577384E+02   -0.67937E-02   -0.15445E+00 36520   0.106E+01    0.279E+00
DAV:  10    -0.208625644420E+02    0.59593E-01   -0.22091E-01 32868   0.420E+00    0.106E+00
DAV:  11    -0.208560139681E+02    0.65505E-02   -0.16193E-02 33568   0.125E+00    0.870E-01
DAV:  12    -0.208570029847E+02   -0.98902E-03   -0.24200E-02 35544   0.144E+00    0.370E-01
DAV:  13    -0.208572408021E+02   -0.23782E-03   -0.20037E-03 34012   0.294E-01    0.238E-01
DAV:  14    -0.208573178569E+02   -0.77055E-04   -0.23868E-03 34664   0.447E-01    0.104E-01
DAV:  15    -0.208572137472E+02    0.10411E-03   -0.21456E-04 34484   0.109E-01    0.520E-02
DAV:  16    -0.208572399158E+02   -0.26169E-04   -0.31532E-05 34008   0.483E-02    0.227E-02
DAV:  17    -0.208572402072E+02   -0.29138E-06   -0.37585E-06 38340   0.143E-02    0.942E-03
DAV:  18    -0.208572412553E+02   -0.10481E-05   -0.15211E-06 32328   0.998E-03    0.797E-03
DAV:  19    -0.208572402369E+02    0.10184E-05   -0.46202E-07 31456   0.625E-03    0.190E-03
DAV:  20    -0.208572407480E+02   -0.51107E-06   -0.67182E-08 17580   0.227E-03    0.554E-04
DAV:  21    -0.208572406372E+02    0.11082E-06   -0.31662E-08 12804   0.142E-03    0.389E-04
DAV:  22    -0.208572405124E+02    0.12478E-06   -0.11721E-08 12524   0.104E-03    0.220E-04
DAV:  23    -0.208572404937E+02    0.18634E-07   -0.41469E-09 12412   0.642E-04
   1 F= -.20857240E+02 E0= -.20857240E+02  d E =0.000000E+00  mag=     6.9847
