       N       E                     dE             d eps       ncg     rms          rms(c)
DAV:   1     0.113867811871E+04    0.11387E+04   -0.31616E+04 25408   0.313E+03
DAV:   2     0.288883526528E+03   -0.84979E+03   -0.77977E+03 30704   0.612E+02
DAV:   3    -0.128895707783E+02   -0.30177E+03   -0.29355E+03 32496   0.321E+02
DAV:   4    -0.643218017670E+02   -0.51432E+02   -0.50343E+02 40576   0.126E+02
DAV:   5    -0.698921050170E+02   -0.55703E+01   -0.52932E+01 42640   0.441E+01    0.313E+01
DAV:   6    -0.888184454926E+02   -0.18926E+02   -0.29046E+02 37536   0.153E+02    0.600E+01
DAV:   7    -0.801688652106E+02    0.86496E+01   -0.23170E+02 31144   0.145E+02    0.886E+01
DAV:   8    -0.736662850973E+02    0.65026E+01   -0.19114E+02 35032   0.827E+01    0.271E+01
DAV:   9    -0.754464131483E+02   -0.17801E+01   -0.13273E+01 41336   0.218E+01    0.158E+01
DAV:  10    -0.752982125185E+02    0.14820E+00   -0.19202E+00 39904   0.941E+00    0.115E+01
DAV:  11    -0.751642222436E+02    0.13399E+00   -0.47900E-01 41360   0.480E+00    0.755E+00
DAV:  12    -0.750678684333E+02    0.96354E-01   -0.15622E-01 41352   0.357E+00    0.637E+00
DAV:  13    -0.750316872247E+02    0.36181E-01   -0.14151E-01 39520   0.320E+00    0.446E+00
DAV:  14    -0.749551936102E+02    0.76494E-01   -0.91976E-02 41720   0.251E+00    0.360E+00
DAV:  15    -0.749190866885E+02    0.36107E-01   -0.66595E-02 40408   0.226E+00    0.252E+00
DAV:  16    -0.749149013299E+02    0.41854E-02   -0.45944E-02 41680   0.177E+00    0.119E+00
DAV:  17    -0.749209555677E+02   -0.60542E-02   -0.19597E-02 43544   0.941E-01    0.424E-01
DAV:  18    -0.749198165169E+02    0.11391E-02   -0.47025E-03 40312   0.614E-01    0.192E-01
DAV:  19    -0.749201488983E+02   -0.33238E-03   -0.12624E-03 44064   0.279E-01    0.137E-01
DAV:  20    -0.749206120172E+02   -0.46312E-03   -0.33561E-04 39600   0.159E-01    0.169E-01
DAV:  21    -0.749203340928E+02    0.27792E-03   -0.13163E-04 40800   0.108E-01    0.126E-01
DAV:  22    -0.749201602174E+02    0.17388E-03   -0.10543E-04 40344   0.869E-02    0.712E-02
DAV:  23    -0.749201825178E+02   -0.22300E-04   -0.19647E-05 34672   0.409E-02    0.602E-02
DAV:  24    -0.749201971407E+02   -0.14623E-04   -0.65644E-06 24704   0.329E-02    0.444E-02
DAV:  25    -0.749201798813E+02    0.17259E-04   -0.92554E-06 29744   0.280E-02    0.235E-02
DAV:  26    -0.749201792437E+02    0.63754E-06   -0.23159E-06 19872   0.170E-02
   1 F= -.74920179E+02 E0= -.74920179E+02  d E =0.000000E+00  mag=    -0.0017
