 vasp.5.4.4.18Apr17-6-g9f103f2a35 (build Apr 28 2018 00:24:27) complex          
  
 executed on             LinuxIFC date 2021.04.17  19:11:12
 running on    8 total cores
 distrk:  each k-point on    8 cores,    1 groups
 distr:  one band on NCORES_PER_BAND=   4 cores,    2 groups


--------------------------------------------------------------------------------------------------------


 INCAR:
 POTCAR:    PAW_PBE Eu 23Dec2003                  
 POTCAR:    PAW_PBE S 06Sep2000                   
 POTCAR:    PAW_PBE Eu 23Dec2003                  
   VRHFIN =Eu : [core=Kr4d]                                                     
   LEXCH  = PE                                                                  
   EATOM  =  2619.8085 eV,  192.5505 Ry                                         
                                                                                
   TITEL  = PAW_PBE Eu 23Dec2003                                                
   LULTRA =        F    use ultrasoft PP ?                                      
   IUNSCR =        1    unscreen: 0-lin 1-nonlin 2-no                           
   RPACOR =    2.300    partial core radius                                     
   POMASS =  151.965; ZVAL   =   17.000    mass and valenz                      
   RCORE  =    2.800    outmost cutoff radius                                   
   RWIGS  =    2.800; RWIGS  =    1.482    wigner-seitz radius (au A)           
   ENMAX  =  249.668; ENMIN  =  187.251 eV                                      
   RCLOC  =    2.308    cutoff for local pot                                    
   LCOR   =        T    correct aug charges                                     
   LPAW   =        T    paw PP                                                  
   EAUG   =  549.628                                                            
   DEXC   =    0.000                                                            
   RMAX   =    2.870    core radius for proj-oper                               
   RAUG   =    1.300    factor for augmentation sphere                          
   RDEP   =    2.887    radius for radial grids                                 
   RDEPT  =    2.221    core radius for aug-charge                              
                                                                                
   Atomic configuration                                                         
   14 entries                                                                   
     n  l   j            E        occ.                                          
     1  0  0.50    -48354.7667   2.0000                                         
     2  0  0.50     -7939.6472   2.0000                                         
     2  1  1.50     -7072.6637   6.0000                                         
     3  0  0.50     -1747.1875   2.0000                                         
     3  1  1.50     -1477.5221   6.0000                                         
     3  2  2.50     -1117.4686  10.0000                                         
     4  0  0.50      -346.8682   2.0000                                         
     4  1  1.50      -258.1962   6.0000                                         
     4  2  2.50      -134.7724  10.0000                                         
     5  0  0.50       -44.6510   2.0000                                         
     6  0  0.50        -3.6227   2.0000                                         
     5  1  1.50       -23.7639   6.0000                                         
     5  2  2.50        -1.3130   0.0000                                         
     4  3  2.50        -2.7310   7.0000                                         
   Description                                                                  
     l       E           TYP  RCUT    TYP  RCUT                                 
     0    -44.6510453     23  2.400                                             
     0     -3.6226685     23  2.400                                             
     1    -23.7638687     23  2.400                                             
     1     27.2116520     23  2.400                                             
     2     -1.3129622     23  2.500                                             
     2     13.6058260     23  2.500                                             
     3     -2.7309948     23  2.800                                             
     3     -3.4014565     23  2.800                                             
  local pseudopotential read in
  partial core-charges read in
  partial kinetic energy density read in
  atomic valenz-charges read in
  non local Contribution for L=           0  read in
    real space projection operators read in
  non local Contribution for L=           0  read in
    real space projection operators read in
  non local Contribution for L=           1  read in
    real space projection operators read in
  non local Contribution for L=           1  read in
    real space projection operators read in
  non local Contribution for L=           2  read in
    real space projection operators read in
  non local Contribution for L=           2  read in
    real space projection operators read in
  non local Contribution for L=           3  read in
    real space projection operators read in
  non local Contribution for L=           3  read in
    real space projection operators read in
    PAW grid and wavefunctions read in
 
   number of l-projection  operators is LMAX  =           8
   number of lm-projection operators is LMMAX =          32
 
 POTCAR:    PAW_PBE S 06Sep2000                   
   VRHFIN =S : s2p4                                                             
   LEXCH  = PE                                                                  
   EATOM  =   276.8230 eV,   20.3459 Ry                                         
                                                                                
   TITEL  = PAW_PBE S 06Sep2000                                                 
   LULTRA =        F    use ultrasoft PP ?                                      
   IUNSCR =        1    unscreen: 0-lin 1-nonlin 2-no                           
   RPACOR =    1.500    partial core radius                                     
   POMASS =   32.066; ZVAL   =    6.000    mass and valenz                      
   RCORE  =    1.900    outmost cutoff radius                                   
   RWIGS  =    2.200; RWIGS  =    1.164    wigner-seitz radius (au A)           
   ENMAX  =  258.689; ENMIN  =  194.016 eV                                      
   ICORE  =        2    local potential                                         
   LCOR   =        T    correct aug charges                                     
   LPAW   =        T    paw PP                                                  
   EAUG   =  335.092                                                            
   DEXC   =    0.000                                                            
   RMAX   =    1.942    core radius for proj-oper                               
   RAUG   =    1.300    factor for augmentation sphere                          
   RDEP   =    1.954    radius for radial grids                                 
   RDEPT  =    1.744    core radius for aug-charge                              
                                                                                
   Atomic configuration                                                         
    6 entries                                                                   
     n  l   j            E        occ.                                          
     1  0  0.50     -2405.8406   2.0000                                         
     2  0  0.50      -211.7007   2.0000                                         
     2  1  1.50      -156.4958   6.0000                                         
     3  0  0.50       -17.2562   2.0000                                         
     3  1  0.50        -7.0085   4.0000                                         
     3  2  1.50        -6.8029   0.0000                                         
   Description                                                                  
     l       E           TYP  RCUT    TYP  RCUT                                 
     0    -17.2561641     23  1.900                                             
     0    -15.8743224     23  1.900                                             
     1     -7.0085400     23  1.900                                             
     1     -2.7779785     23  1.900                                             
     2     -6.8029130     23  1.900                                             
  local pseudopotential read in
  partial core-charges read in
  partial kinetic energy density read in
  atomic valenz-charges read in
  non local Contribution for L=           0  read in
    real space projection operators read in
  non local Contribution for L=           0  read in
    real space projection operators read in
  non local Contribution for L=           1  read in
    real space projection operators read in
  non local Contribution for L=           1  read in
    real space projection operators read in
    PAW grid and wavefunctions read in
 
   number of l-projection  operators is LMAX  =           4
   number of lm-projection operators is LMMAX =           8
 

 ----------------------------------------------------------------------------- 
|                                                                             |
|  ADVICE TO THIS USER RUNNING 'VASP/VAMP'   (HEAR YOUR MASTER'S VOICE ...):  |
|                                                                             |
|      You have a (more or less) 'small supercell' and for smaller cells      |
|      it is recommended  to use the reciprocal-space projection scheme!      |
|      The real space optimization is not  efficient for small cells and it   |
|      is also less accurate ...                                              |
|      Therefore set LREAL=.FALSE. in the  INCAR file                         |
|                                                                             |
 ----------------------------------------------------------------------------- 

 Optimization of the real space projectors (new method)

 maximal supplied QI-value         = 13.42
 optimisation between [QCUT,QGAM] = [ 11.67, 23.35] = [ 38.16,152.62] Ry 
 Optimized for a Real-space Cutoff    1.63 Angstroem

   l    n(q)    QCUT    max X(q) W(low)/X(q) W(high)/X(q)  e(spline) 
   0     11    11.673    10.400    0.14E-04    0.18E-05    0.24E-07
   0     11    11.673    10.768    0.21E-04    0.32E-05    0.49E-07
   1     11    11.673     4.094    0.40E-05    0.13E-04    0.93E-07
   1     11    11.673     4.009    0.11E-04    0.46E-04    0.33E-06
   2     10    11.673    29.030    0.79E-04    0.60E-04    0.70E-06
   2     10    11.673    19.941    0.80E-04    0.60E-04    0.71E-06
   3     10    11.673    88.889    0.23E-03    0.29E-03    0.30E-06
   3     10    11.673    76.102    0.23E-03    0.30E-03    0.30E-06
 Optimization of the real space projectors (new method)

 maximal supplied QI-value         = 19.84
 optimisation between [QCUT,QGAM] = [ 11.51, 23.22] = [ 37.09,150.92] Ry 
 Optimized for a Real-space Cutoff    1.21 Angstroem

   l    n(q)    QCUT    max X(q) W(low)/X(q) W(high)/X(q)  e(spline) 
   0      8    11.508   187.594    0.96E-04    0.18E-03    0.54E-07
   0      8    11.508   164.243    0.96E-04    0.18E-03    0.54E-07
   1      8    11.508    67.533    0.18E-03    0.65E-04    0.94E-07
   1      8    11.508    50.729    0.18E-03    0.63E-04    0.92E-07
  PAW_PBE Eu 23Dec2003                  :
 energy of atom  1       EATOM=-2619.8085
 kinetic energy error for atom=    0.0015 (will be added to EATOM!!)
  PAW_PBE S 06Sep2000                   :
 energy of atom  2       EATOM= -276.8230
 kinetic energy error for atom=    0.0016 (will be added to EATOM!!)
 
 
 POSCAR: Eu4 S4                                  
  positions in direct lattice
  velocities in cartesian coordinates
 exchange correlation table for  LEXCH =        8
   RHO(1)=    0.500       N(1)  =     2000
   RHO(2)=  100.500       N(2)  =     4000
 


--------------------------------------------------------------------------------------------------------


 ion  position               nearest neighbor table
   1  0.250  0.750  0.500-   7 2.92   7 2.92   8 2.92   8 2.92   6 2.92   5 2.93
   2  0.500  0.500  0.000-   7 2.92   7 2.92   6 2.92   6 2.92   8 2.92   5 2.93
   3  0.000  0.000  0.000-   5 2.92   5 2.92   8 2.92   8 2.92   6 2.92   7 2.93
   4  0.750  0.250  0.500-   5 2.92   5 2.92   6 2.92   6 2.92   8 2.92   7 2.93
   5  0.375  0.125  0.750-   3 2.92   4 2.92   4 2.92   3 2.92   2 2.93   1 2.93
   6  0.125  0.375  0.250-   4 2.92   4 2.92   2 2.92   2 2.92   1 2.92   3 2.92
   7  0.875  0.625  0.750-   2 2.92   1 2.92   2 2.92   1 2.92   4 2.93   3 2.93
   8  0.625  0.875  0.250-   3 2.92   3 2.92   1 2.92   1 2.92   2 2.92   4 2.92
 
  LATTYP: Found a base centered monoclinic cell.
 ALAT       =    13.7050697722
 B/A-ratio  =     0.3010964364
 C/A-ratio  =     1.0448500544
 COS(beta)  =    -0.8330241671
  
  Lattice vectors:
  
 A1 = (   2.0632738344,  -1.1935730274,   6.7477861402)
 A2 = (  -2.0632738344,  -1.1935730274,   6.7477861402)
 A3 = (   0.0000000000,  -4.7834258073, -13.4971802302)


Analysis of symmetry for initial positions (statically):
=====================================================================
 Subroutine PRICEL returns:
 Original cell was already a primitive cell.
 

 Routine SETGRP: Setting up the symmetry group for a 
 base centered monoclinic supercell.


 Subroutine GETGRP returns: Found  4 space group operations
 (whereof  2 operations were pure point group operations)
 out of a pool of  4 trial point group operations.


The static configuration has the point symmetry C_1h.
 The point group associated with its full space group is C_2h.


Analysis of symmetry for dynamics (positions and initial velocities):
=====================================================================
 Subroutine PRICEL returns:
 Original cell was already a primitive cell.
 

 Routine SETGRP: Setting up the symmetry group for a 
 base centered monoclinic supercell.


 Subroutine GETGRP returns: Found  4 space group operations
 (whereof  2 operations were pure point group operations)
 out of a pool of  4 trial point group operations.


The dynamic configuration has the point symmetry C_1h.
 The point group associated with its full space group is C_2h.


Analysis of structural, dynamic, and magnetic symmetry:
=====================================================================
 Subroutine PRICEL returns:
 Original cell was already a primitive cell.
 

 Routine SETGRP: Setting up the symmetry group for a 
 base centered monoclinic supercell.


 Subroutine GETGRP returns: Found  4 space group operations
 (whereof  2 operations were pure point group operations)
 out of a pool of  4 trial point group operations.


The magnetic configuration has the point symmetry C_1h.
 The point group associated with its full space group is C_2h.


 Subroutine INISYM returns: Found  4 space group operations
 (whereof  2 operations are pure point group operations),
 and found     1 'primitive' translations

 
 
 KPOINTS: pymatgen v2019.10.16 with grid density =

Automatic generation of k-mesh.
Space group operators:
 irot       det(A)        alpha          n_x          n_y          n_z        tau_x        tau_y        tau_z
    1     1.000000     0.000000     1.000000     0.000000     0.000000     0.000000     0.000000     0.000000
    2    -1.000000   179.999999     1.000000     0.000000     0.000000     0.000000     0.000000     0.000000
    3    -1.000000     0.000000     1.000000     0.000000     0.000000    -0.250000    -0.750000    -0.500000
    4     1.000000   179.999999     1.000000     0.000000     0.000000    -0.250000    -0.750000    -0.500000
 
 Subroutine IBZKPT returns following result:
 ===========================================
 
 Found    102 irreducible k-points:
 
 Following reciprocal coordinates:
            Coordinates               Weight
  0.000000  0.000000  0.000000      1.000000
  0.100000  0.000000 -0.000000      2.000000
  0.200000  0.000000 -0.000000      4.000000
  0.300000  0.000000 -0.000000      2.000000
  0.400000  0.000000 -0.000000      4.000000
  0.500000  0.000000 -0.000000      1.000000
  0.000000  0.200000 -0.000000      2.000000
  0.100000  0.200000 -0.000000      2.000000
  0.200000  0.200000 -0.000000      4.000000
  0.300000  0.200000  0.000000      2.000000
  0.400000  0.200000 -0.000000      4.000000
  0.500000  0.200000 -0.000000      2.000000
 -0.400000  0.200000  0.000000      4.000000
 -0.300000  0.200000  0.000000      2.000000
 -0.200000  0.200000  0.000000      4.000000
 -0.100000  0.200000  0.000000      2.000000
  0.000000  0.400000 -0.000000      2.000000
  0.100000  0.400000  0.000000      2.000000
  0.200000  0.400000 -0.000000      4.000000
  0.300000  0.400000  0.000000      2.000000
  0.400000  0.400000 -0.000000      4.000000
  0.500000  0.400000 -0.000000      2.000000
 -0.400000  0.400000  0.000000      4.000000
 -0.300000  0.400000  0.000000      2.000000
 -0.200000  0.400000  0.000000      4.000000
 -0.100000  0.400000  0.000000      2.000000
  0.000000  0.000000  0.200000      2.000000
  0.100000  0.000000  0.200000      2.000000
  0.200000  0.000000  0.200000      4.000000
  0.300000  0.000000  0.200000      2.000000
  0.400000  0.000000  0.200000      4.000000
  0.500000  0.000000  0.200000      2.000000
 -0.400000  0.000000  0.200000      2.000000
 -0.300000 -0.000000  0.200000      2.000000
 -0.100000  0.000000  0.200000      2.000000
  0.000000  0.200000  0.200000      2.000000
  0.100000  0.200000  0.200000      2.000000
  0.200000  0.200000  0.200000      4.000000
  0.300000  0.200000  0.200000      2.000000
  0.400000  0.200000  0.200000      4.000000
  0.500000  0.200000  0.200000      2.000000
 -0.400000  0.200000  0.200000      4.000000
 -0.300000  0.200000  0.200000      2.000000
 -0.100000  0.200000  0.200000      2.000000
  0.000000  0.400000  0.200000      2.000000
  0.100000  0.400000  0.200000      2.000000
  0.200000  0.400000  0.200000      4.000000
  0.300000  0.400000  0.200000      2.000000
  0.400000  0.400000  0.200000      4.000000
  0.500000  0.400000  0.200000      2.000000
 -0.400000  0.400000  0.200000      4.000000
 -0.300000  0.400000  0.200000      2.000000
 -0.100000  0.400000  0.200000      2.000000
  0.000000 -0.400000  0.200000      2.000000
  0.100000 -0.400000  0.200000      2.000000
  0.200000 -0.400000  0.200000      4.000000
  0.300000 -0.400000  0.200000      2.000000
  0.400000 -0.400000  0.200000      4.000000
  0.500000 -0.400000  0.200000      2.000000
 -0.300000 -0.400000  0.200000      2.000000
 -0.100000 -0.400000  0.200000      2.000000
  0.000000 -0.200000  0.200000      2.000000
  0.100000 -0.200000  0.200000      2.000000
  0.200000 -0.200000  0.200000      4.000000
  0.300000 -0.200000  0.200000      2.000000
  0.400000 -0.200000  0.200000      4.000000
  0.500000 -0.200000  0.200000      2.000000
 -0.300000 -0.200000  0.200000      2.000000
 -0.100000 -0.200000  0.200000      2.000000
  0.000000  0.000000  0.400000      2.000000
  0.100000  0.000000  0.400000      2.000000
  0.200000  0.000000  0.400000      2.000000
  0.300000  0.000000  0.400000      2.000000
  0.500000  0.000000  0.400000      2.000000
 -0.300000 -0.000000  0.400000      2.000000
 -0.100000 -0.000000  0.400000      2.000000
  0.000000  0.200000  0.400000      2.000000
  0.100000  0.200000  0.400000      2.000000
  0.200000  0.200000  0.400000      4.000000
  0.300000  0.200000  0.400000      2.000000
  0.500000  0.200000  0.400000      2.000000
 -0.300000  0.200000  0.400000      2.000000
 -0.100000  0.200000  0.400000      2.000000
  0.000000  0.400000  0.400000      2.000000
  0.100000  0.400000  0.400000      2.000000
  0.200000  0.400000  0.400000      4.000000
  0.300000  0.400000  0.400000      2.000000
  0.500000  0.400000  0.400000      2.000000
 -0.300000  0.400000  0.400000      2.000000
 -0.100000  0.400000  0.400000      2.000000
  0.000000 -0.400000  0.400000      2.000000
  0.100000 -0.400000  0.400000      2.000000
  0.300000 -0.400000  0.400000      2.000000
  0.500000 -0.400000  0.400000      2.000000
 -0.300000 -0.400000  0.400000      2.000000
 -0.100000 -0.400000  0.400000      2.000000
  0.000000 -0.200000  0.400000      2.000000
  0.100000 -0.200000  0.400000      2.000000
  0.300000 -0.200000  0.400000      2.000000
  0.500000 -0.200000  0.400000      2.000000
 -0.300000 -0.200000  0.400000      2.000000
 -0.100000 -0.200000  0.400000      2.000000
 
 Following cartesian coordinates:
            Coordinates               Weight
  0.000000  0.000000  0.000000      1.000000
  0.024233 -0.000002  0.007410      2.000000
  0.048467 -0.000003  0.014819      4.000000
  0.072700 -0.000005  0.022229      2.000000
  0.096933 -0.000007  0.029638      4.000000
  0.121167 -0.000008  0.037048      1.000000
  0.000000  0.027891  0.004933      2.000000
  0.024233  0.027889  0.012343      2.000000
  0.048467  0.027887  0.019752      4.000000
  0.072700  0.027886  0.027162      2.000000
  0.096933  0.027884  0.034572      4.000000
  0.121167  0.027882  0.041981      2.000000
 -0.096933  0.027897 -0.024705      4.000000
 -0.072700  0.027896 -0.017295      2.000000
 -0.048467  0.027894 -0.009886      4.000000
 -0.024233  0.027892 -0.002476      2.000000
  0.000000  0.055781  0.009867      2.000000
  0.024233  0.055780  0.017276      2.000000
  0.048467  0.055778  0.024686      4.000000
  0.072700  0.055776  0.032095      2.000000
  0.096933  0.055775  0.039505      4.000000
  0.121167  0.055773  0.046915      2.000000
 -0.096933  0.055788 -0.019771      4.000000
 -0.072700  0.055786 -0.012362      2.000000
 -0.048467  0.055785 -0.004952      4.000000
 -0.024233  0.055783  0.002457      2.000000
  0.000000 -0.000007  0.029638      2.000000
  0.024233 -0.000008  0.037048      2.000000
  0.048467 -0.000010  0.044457      4.000000
  0.072700 -0.000012  0.051867      2.000000
  0.096933 -0.000013  0.059276      4.000000
  0.121167 -0.000015  0.066686      2.000000
 -0.096933  0.000000  0.000000      2.000000
 -0.072700 -0.000002  0.007410      2.000000
 -0.024233 -0.000005  0.022229      2.000000
  0.000000  0.027884  0.034572      2.000000
  0.024233  0.027882  0.041981      2.000000
  0.048467  0.027881  0.049391      4.000000
  0.072700  0.027879  0.056800      2.000000
  0.096933  0.027877  0.064210      4.000000
  0.121167  0.027876  0.071619      2.000000
 -0.096933  0.027891  0.004933      4.000000
 -0.072700  0.027889  0.012343      2.000000
 -0.024233  0.027886  0.027162      2.000000
  0.000000  0.055775  0.039505      2.000000
  0.024233  0.055773  0.046915      2.000000
  0.048467  0.055771  0.054324      4.000000
  0.072700  0.055770  0.061734      2.000000
  0.096933  0.055768  0.069143      4.000000
  0.121167  0.055766  0.076553      2.000000
 -0.096933  0.055781  0.009867      4.000000
 -0.072700  0.055780  0.017276      2.000000
 -0.024233  0.055776  0.032095      2.000000
  0.000000 -0.055788  0.019771      2.000000
  0.024233 -0.055790  0.027181      2.000000
  0.048467 -0.055791  0.034590      4.000000
  0.072700 -0.055793  0.042000      2.000000
  0.096933 -0.055795  0.049410      4.000000
  0.121167 -0.055796  0.056819      2.000000
 -0.072700 -0.055783 -0.002457      2.000000
 -0.024233 -0.055786  0.012362      2.000000
  0.000000 -0.027897  0.024705      2.000000
  0.024233 -0.027899  0.032114      2.000000
  0.048467 -0.027901  0.039524      4.000000
  0.072700 -0.027902  0.046933      2.000000
  0.096933 -0.027904  0.054343      4.000000
  0.121167 -0.027906  0.061752      2.000000
 -0.072700 -0.027892  0.002476      2.000000
 -0.024233 -0.027896  0.017295      2.000000
  0.000000 -0.000013  0.059276      2.000000
  0.024233 -0.000015  0.066686      2.000000
  0.048467 -0.000017  0.074095      2.000000
  0.072700 -0.000018  0.081505      2.000000
  0.121167 -0.000022  0.096324      2.000000
 -0.072700 -0.000008  0.037048      2.000000
 -0.024233 -0.000012  0.051867      2.000000
  0.000000  0.027877  0.064210      2.000000
  0.024233  0.027876  0.071619      2.000000
  0.048467  0.027874  0.079029      4.000000
  0.072700  0.027872  0.086438      2.000000
  0.121167  0.027869  0.101257      2.000000
 -0.072700  0.027882  0.041981      2.000000
 -0.024233  0.027879  0.056800      2.000000
  0.000000  0.055768  0.069143      2.000000
  0.024233  0.055766  0.076553      2.000000
  0.048467  0.055765  0.083962      4.000000
  0.072700  0.055763  0.091372      2.000000
  0.121167  0.055760  0.106191      2.000000
 -0.072700  0.055773  0.046915      2.000000
 -0.024233  0.055770  0.061734      2.000000
  0.000000 -0.055795  0.049410      2.000000
  0.024233 -0.055796  0.056819      2.000000
  0.072700 -0.055800  0.071638      2.000000
  0.121167 -0.055803  0.086457      2.000000
 -0.072700 -0.055790  0.027181      2.000000
 -0.024233 -0.055793  0.042000      2.000000
  0.000000 -0.027904  0.054343      2.000000
  0.024233 -0.027906  0.061752      2.000000
  0.072700 -0.027909  0.076572      2.000000
  0.121167 -0.027912  0.091391      2.000000
 -0.072700 -0.027899  0.032114      2.000000
 -0.024233 -0.027902  0.046933      2.000000
 
 TETIRR: Found    744 inequivalent tetrahedra from     1500


--------------------------------------------------------------------------------------------------------




 Dimension of arrays:
   k-points           NKPTS =    102   k-points in BZ     NKDIM =    102   number of bands    NBANDS=     56
   number of dos      NEDOS =    301   number of ions     NIONS =      8
   non local maximal  LDIM  =      8   non local SUM 2l+1 LMDIM =     32
   total plane-waves  NPLWV =  93312
   max r-space proj   IRMAX =   8484   max aug-charges    IRDMAX=  26912
   dimension x,y,z NGX =    32 NGY =   54 NGZ =   54
   dimension x,y,z NGXF=    64 NGYF=  108 NGZF=  108
   support grid    NGXF=    64 NGYF=  108 NGZF=  108
   ions per type =               4   4
   NGX,Y,Z   is equivalent  to a cutoff of  12.89, 12.52, 12.54 a.u.
   NGXF,Y,Z  is equivalent  to a cutoff of  25.78, 25.04, 25.09 a.u.

 SYSTEM =  unknown system                          
 POSCAR =  Eu4 S4                                  

 Startparameter for this run:
   NWRITE =      2    write-flag & timer
   PREC   = accura    normal or accurate (medium, high low for compatibility)
   ISTART =      0    job   : 0-new  1-cont  2-samecut
   ICHARG =      2    charge: 1-file 2-atom 10-const
   ISPIN  =      2    spin polarized calculation?
   LNONCOLLINEAR =      F non collinear calculations
   LSORBIT =      F    spin-orbit coupling
   INIWAV =      1    electr: 0-lowe 1-rand  2-diag
   LASPH  =      T    aspherical Exc in radial PAW
   METAGGA=      F    non-selfconsistent MetaGGA calc.

 Electronic Relaxation 1
   ENCUT  =  520.0 eV  38.22 Ry    6.18 a.u.   7.67 13.33 13.31*2*pi/ulx,y,z
   ENINI  =  520.0     initial cutoff
   ENAUG  =  549.6 eV  augmentation charge cutoff
   NELM   =    120;   NELMIN=  2; NELMDL=  0     # of ELM steps 
   EDIFF  = 0.1E-05   stopping-criterion for ELM
   LREAL  =      T    real-space projection
   NLSPLINE    = F    spline interpolate recip. space projectors
   LCOMPAT=      F    compatible to vasp.4.4
   GGA_COMPAT  = T    GGA compatible to vasp.4.4-vasp.4.6
   LMAXPAW     = -100 max onsite density
   LMAXMIX     =    4 max onsite mixed and CHGCAR
   VOSKOWN=      0    Vosko Wilk Nusair interpolation
   ROPT   =   -0.00025  -0.00025
 Ionic relaxation
   EDIFFG = 0.1E-04   stopping-criterion for IOM
   NSW    =      0    number of steps for IOM
   NBLOCK =      1;   KBLOCK =      1    inner block; outer block 
   IBRION =     -1    ionic relax: 0-MD 1-quasi-New 2-CG
   NFREE  =      0    steps in history (QN), initial steepest desc. (CG)
   ISIF   =      3    stress and relaxation
   IWAVPR =     10    prediction:  0-non 1-charg 2-wave 3-comb
   ISYM   =      2    0-nonsym 1-usesym 2-fastsym
   LCORR  =      T    Harris-Foulkes like correction to forces

   POTIM  = 0.5000    time-step for ionic-motion
   TEIN   =    0.0    initial temperature
   TEBEG  =    0.0;   TEEND  =   0.0 temperature during run
   SMASS  =  -3.00    Nose mass-parameter (am)
   estimated Nose-frequenzy (Omega)   =  0.10E-29 period in steps =****** mass=  -0.389E-27a.u.
   SCALEE = 1.0000    scale energy and forces
   NPACO  =    256;   APACO  = 16.0  distance and # of slots for P.C.
   PSTRESS=    0.0 pullay stress

  Mass of Ions in am
   POMASS = 151.97 32.07
  Ionic Valenz
   ZVAL   =  17.00  6.00
  Atomic Wigner-Seitz radii
   RWIGS  =  -1.00 -1.00
  virtual crystal weights 
   VCA    =   1.00  1.00
   NELECT =      92.0000    total number of electrons
   NUPDOWN=      -1.0000    fix difference up-down

 DOS related values:
   EMIN   =  10.00;   EMAX   =-10.00  energy-range for DOS
   EFERMI =   0.00
   ISMEAR =    -5;   SIGMA  =   0.05  broadening in eV -4-tet -1-fermi 0-gaus

 Electronic relaxation 2 (details)
   IALGO  =     38    algorithm
   LDIAG  =      T    sub-space diagonalisation (order eigenvalues)
   LSUBROT=      F    optimize rotation matrix (better conditioning)
   TURBO    =      0    0=normal 1=particle mesh
   IRESTART =      0    0=no restart 2=restart with 2 vectors
   NREBOOT  =      0    no. of reboots
   NMIN     =      0    reboot dimension
   EREF     =   0.00    reference energy to select bands
   IMIX   =      4    mixing-type and parameters
     AMIX     =   0.40;   BMIX     =  1.00
     AMIX_MAG =   1.60;   BMIX_MAG =  1.00
     AMIN     =   0.10
     WC   =   100.;   INIMIX=   1;  MIXPRE=   1;  MAXMIX= -45

 Intra band minimization:
   WEIMIN = 0.0000     energy-eigenvalue tresh-hold
   EBREAK =  0.45E-08  absolut break condition
   DEPER  =   0.30     relativ break condition  

   TIME   =   0.40     timestep for ELM

  volume/ion in A,a.u.               =      24.96       168.43
  Fermi-wavevector in a.u.,A,eV,Ry     =   1.264438  2.389442 21.753059  1.598805
  Thomas-Fermi vector in A             =   2.397744
 
 Write flags
   LWAVE        =      F    write WAVECAR
   LDOWNSAMPLE  =      F    k-point downsampling of WAVECAR
   LCHARG       =      T    write CHGCAR
   LVTOT        =      F    write LOCPOT, total local potential
   LVHAR        =      F    write LOCPOT, Hartree potential only
   LELF         =      F    write electronic localiz. function (ELF)
   LORBIT       =     11    0 simple, 1 ext, 2 COOP (PROOUT), +10 PAW based schemes


 Dipole corrections
   LMONO  =      F    monopole corrections only (constant potential shift)
   LDIPOL =      F    correct potential (dipole corrections)
   IDIPOL =      0    1-x, 2-y, 3-z, 4-all directions 
   EPSILON=  1.0000000 bulk dielectric constant

 Exchange correlation treatment:
   GGA     =    --    GGA type
   LEXCH   =     8    internal setting for exchange type
   VOSKOWN=      0    Vosko Wilk Nusair interpolation
   LHFCALC =     F    Hartree Fock is set to
   LHFONE  =     F    Hartree Fock one center treatment
   AEXX    =    0.0000 exact exchange contribution

 Linear response parameters
   LEPSILON=     F    determine dielectric tensor
   LRPA    =     F    only Hartree local field effects (RPA)
   LNABLA  =     F    use nabla operator in PAW spheres
   LVEL    =     F    velocity operator in full k-point grid
   LINTERFAST=   F  fast interpolation
   KINTER  =     0    interpolate to denser k-point grid
   CSHIFT  =0.1000    complex shift for real part using Kramers Kronig
   OMEGAMAX=  -1.0    maximum frequency
   DEG_THRESHOLD= 0.2000000E-02 threshold for treating states as degnerate
   RTIME   =   -0.100 relaxation time in fs
  (WPLASMAI=    0.000 imaginary part of plasma frequency in eV, 0.658/RTIME)
   DFIELD  = 0.0000000 0.0000000 0.0000000 field for delta impulse in time
 
 Orbital magnetization related:
   ORBITALMAG=     F  switch on orbital magnetization
   LCHIMAG   =     F  perturbation theory with respect to B field
   DQ        =  0.001000  dq finite difference perturbation B field
   LLRAUG    =     F  two centre corrections for induced B field



--------------------------------------------------------------------------------------------------------


 Static calculation
 charge density and potential will be updated during run
 spin polarized calculation
 Variant of blocked Davidson
 Davidson routine will perform the subspace rotation
 perform sub-space diagonalisation
    after iterative eigenvector-optimisation
 modified Broyden-mixing scheme, WC =      100.0
 initial mixing is a Kerker type mixing with AMIX =  0.4000 and BMIX =      1.0000
 Hartree-type preconditioning will be used
 using additional bands           10
 real space projection scheme for non local part
 use partial core corrections
 calculate Harris-corrections to forces 
   (improved forces if not selfconsistent)
 use gradient corrections 
 use of overlap-Matrix (Vanderbilt PP)
 Fermi weights with tetrahedron method with Bloechl corrections


--------------------------------------------------------------------------------------------------------


  energy-cutoff  :      520.00
  volume of cell :      199.67
      direct lattice vectors                 reciprocal lattice vectors
     4.126547669  0.000000000  0.000000000     0.242333321 -0.000016615  0.074095438
     0.000000000  7.170571862  0.001607950     0.000000000  0.139453360  0.024667019
    -2.063273834 -1.193573027  6.747786140     0.000000000 -0.000033231  0.148190876

  length of vectors
     4.126547669  7.170572042  7.156419026     0.253407917  0.141618153  0.148190879


 
 k-points in units of 2pi/SCALE and weight: pymatgen v2019.10.16 with grid density =
   0.00000000  0.00000000  0.00000000       0.004
   0.02423333 -0.00000166  0.00740954       0.008
   0.04846666 -0.00000332  0.01481909       0.016
   0.07270000 -0.00000498  0.02222863       0.008
   0.09693333 -0.00000665  0.02963818       0.016
   0.12116666 -0.00000831  0.03704772       0.004
   0.00000000  0.02789067  0.00493340       0.008
   0.02423333  0.02788901  0.01234295       0.008
   0.04846666  0.02788735  0.01975249       0.016
   0.07270000  0.02788569  0.02716204       0.008
   0.09693333  0.02788403  0.03457158       0.016
   0.12116666  0.02788236  0.04198112       0.008
  -0.09693333  0.02789732 -0.02470477       0.016
  -0.07270000  0.02789566 -0.01729523       0.008
  -0.04846666  0.02789400 -0.00988568       0.016
  -0.02423333  0.02789233 -0.00247614       0.008
   0.00000000  0.05578134  0.00986681       0.008
   0.02423333  0.05577968  0.01727635       0.008
   0.04846666  0.05577802  0.02468590       0.016
   0.07270000  0.05577636  0.03209544       0.008
   0.09693333  0.05577470  0.03950498       0.016
   0.12116666  0.05577304  0.04691453       0.008
  -0.09693333  0.05578799 -0.01977137       0.016
  -0.07270000  0.05578633 -0.01236182       0.008
  -0.04846666  0.05578467 -0.00495228       0.016
  -0.02423333  0.05578301  0.00245726       0.008
   0.00000000 -0.00000665  0.02963818       0.008
   0.02423333 -0.00000831  0.03704772       0.008
   0.04846666 -0.00000997  0.04445726       0.016
   0.07270000 -0.00001163  0.05186681       0.008
   0.09693333 -0.00001329  0.05927635       0.016
   0.12116666 -0.00001495  0.06668589       0.008
  -0.09693333  0.00000000  0.00000000       0.008
  -0.07270000 -0.00000166  0.00740954       0.008
  -0.02423333 -0.00000498  0.02222863       0.008
   0.00000000  0.02788403  0.03457158       0.008
   0.02423333  0.02788236  0.04198112       0.008
   0.04846666  0.02788070  0.04939067       0.016
   0.07270000  0.02787904  0.05680021       0.008
   0.09693333  0.02787738  0.06420975       0.016
   0.12116666  0.02787572  0.07161930       0.008
  -0.09693333  0.02789067  0.00493340       0.016
  -0.07270000  0.02788901  0.01234295       0.008
  -0.02423333  0.02788569  0.02716204       0.008
   0.00000000  0.05577470  0.03950498       0.008
   0.02423333  0.05577304  0.04691453       0.008
   0.04846666  0.05577137  0.05432407       0.016
   0.07270000  0.05576971  0.06173361       0.008
   0.09693333  0.05576805  0.06914316       0.016
   0.12116666  0.05576639  0.07655270       0.008
  -0.09693333  0.05578134  0.00986681       0.016
  -0.07270000  0.05577968  0.01727635       0.008
  -0.02423333  0.05577636  0.03209544       0.008
   0.00000000 -0.05578799  0.01977137       0.008
   0.02423333 -0.05578965  0.02718091       0.008
   0.04846666 -0.05579131  0.03459046       0.016
   0.07270000 -0.05579297  0.04200000       0.008
   0.09693333 -0.05579464  0.04940954       0.016
   0.12116666 -0.05579630  0.05681909       0.008
  -0.07270000 -0.05578301 -0.00245726       0.008
  -0.02423333 -0.05578633  0.01236182       0.008
   0.00000000 -0.02789732  0.02470477       0.008
   0.02423333 -0.02789898  0.03211432       0.008
   0.04846666 -0.02790064  0.03952386       0.016
   0.07270000 -0.02790230  0.04693340       0.008
   0.09693333 -0.02790396  0.05434295       0.016
   0.12116666 -0.02790563  0.06175249       0.008
  -0.07270000 -0.02789233  0.00247614       0.008
  -0.02423333 -0.02789566  0.01729523       0.008
   0.00000000 -0.00001329  0.05927635       0.008
   0.02423333 -0.00001495  0.06668589       0.008
   0.04846666 -0.00001662  0.07409544       0.008
   0.07270000 -0.00001828  0.08150498       0.008
   0.12116666 -0.00002160  0.09632407       0.008
  -0.07270000 -0.00000831  0.03704772       0.008
  -0.02423333 -0.00001163  0.05186681       0.008
   0.00000000  0.02787738  0.06420975       0.008
   0.02423333  0.02787572  0.07161930       0.008
   0.04846666  0.02787406  0.07902884       0.016
   0.07270000  0.02787240  0.08643839       0.008
   0.12116666  0.02786907  0.10125747       0.008
  -0.07270000  0.02788236  0.04198112       0.008
  -0.02423333  0.02787904  0.05680021       0.008
   0.00000000  0.05576805  0.06914316       0.008
   0.02423333  0.05576639  0.07655270       0.008
   0.04846666  0.05576473  0.08396225       0.016
   0.07270000  0.05576307  0.09137179       0.008
   0.12116666  0.05575974  0.10619088       0.008
  -0.07270000  0.05577304  0.04691453       0.008
  -0.02423333  0.05576971  0.06173361       0.008
   0.00000000 -0.05579464  0.04940954       0.008
   0.02423333 -0.05579630  0.05681909       0.008
   0.07270000 -0.05579962  0.07163817       0.008
   0.12116666 -0.05580294  0.08645726       0.008
  -0.07270000 -0.05578965  0.02718091       0.008
  -0.02423333 -0.05579297  0.04200000       0.008
   0.00000000 -0.02790396  0.05434295       0.008
   0.02423333 -0.02790563  0.06175249       0.008
   0.07270000 -0.02790895  0.07657158       0.008
   0.12116666 -0.02791227  0.09139067       0.008
  -0.07270000 -0.02789898  0.03211432       0.008
  -0.02423333 -0.02790230  0.04693340       0.008
 
 k-points in reciprocal lattice and weights: pymatgen v2019.10.16 with grid density =
   0.00000000  0.00000000  0.00000000       0.004
   0.10000000  0.00000000 -0.00000000       0.008
   0.20000000  0.00000000 -0.00000000       0.016
   0.30000000  0.00000000 -0.00000000       0.008
   0.40000000  0.00000000 -0.00000000       0.016
   0.50000000  0.00000000 -0.00000000       0.004
   0.00000000  0.20000000 -0.00000000       0.008
   0.10000000  0.20000000 -0.00000000       0.008
   0.20000000  0.20000000 -0.00000000       0.016
   0.30000000  0.20000000  0.00000000       0.008
   0.40000000  0.20000000 -0.00000000       0.016
   0.50000000  0.20000000 -0.00000000       0.008
  -0.40000000  0.20000000  0.00000000       0.016
  -0.30000000  0.20000000  0.00000000       0.008
  -0.20000000  0.20000000  0.00000000       0.016
  -0.10000000  0.20000000  0.00000000       0.008
   0.00000000  0.40000000 -0.00000000       0.008
   0.10000000  0.40000000  0.00000000       0.008
   0.20000000  0.40000000 -0.00000000       0.016
   0.30000000  0.40000000  0.00000000       0.008
   0.40000000  0.40000000 -0.00000000       0.016
   0.50000000  0.40000000 -0.00000000       0.008
  -0.40000000  0.40000000  0.00000000       0.016
  -0.30000000  0.40000000  0.00000000       0.008
  -0.20000000  0.40000000  0.00000000       0.016
  -0.10000000  0.40000000  0.00000000       0.008
   0.00000000  0.00000000  0.20000000       0.008
   0.10000000  0.00000000  0.20000000       0.008
   0.20000000  0.00000000  0.20000000       0.016
   0.30000000  0.00000000  0.20000000       0.008
   0.40000000  0.00000000  0.20000000       0.016
   0.50000000  0.00000000  0.20000000       0.008
  -0.40000000  0.00000000  0.20000000       0.008
  -0.30000000 -0.00000000  0.20000000       0.008
  -0.10000000  0.00000000  0.20000000       0.008
   0.00000000  0.20000000  0.20000000       0.008
   0.10000000  0.20000000  0.20000000       0.008
   0.20000000  0.20000000  0.20000000       0.016
   0.30000000  0.20000000  0.20000000       0.008
   0.40000000  0.20000000  0.20000000       0.016
   0.50000000  0.20000000  0.20000000       0.008
  -0.40000000  0.20000000  0.20000000       0.016
  -0.30000000  0.20000000  0.20000000       0.008
  -0.10000000  0.20000000  0.20000000       0.008
   0.00000000  0.40000000  0.20000000       0.008
   0.10000000  0.40000000  0.20000000       0.008
   0.20000000  0.40000000  0.20000000       0.016
   0.30000000  0.40000000  0.20000000       0.008
   0.40000000  0.40000000  0.20000000       0.016
   0.50000000  0.40000000  0.20000000       0.008
  -0.40000000  0.40000000  0.20000000       0.016
  -0.30000000  0.40000000  0.20000000       0.008
  -0.10000000  0.40000000  0.20000000       0.008
   0.00000000 -0.40000000  0.20000000       0.008
   0.10000000 -0.40000000  0.20000000       0.008
   0.20000000 -0.40000000  0.20000000       0.016
   0.30000000 -0.40000000  0.20000000       0.008
   0.40000000 -0.40000000  0.20000000       0.016
   0.50000000 -0.40000000  0.20000000       0.008
  -0.30000000 -0.40000000  0.20000000       0.008
  -0.10000000 -0.40000000  0.20000000       0.008
   0.00000000 -0.20000000  0.20000000       0.008
   0.10000000 -0.20000000  0.20000000       0.008
   0.20000000 -0.20000000  0.20000000       0.016
   0.30000000 -0.20000000  0.20000000       0.008
   0.40000000 -0.20000000  0.20000000       0.016
   0.50000000 -0.20000000  0.20000000       0.008
  -0.30000000 -0.20000000  0.20000000       0.008
  -0.10000000 -0.20000000  0.20000000       0.008
   0.00000000  0.00000000  0.40000000       0.008
   0.10000000  0.00000000  0.40000000       0.008
   0.20000000  0.00000000  0.40000000       0.008
   0.30000000  0.00000000  0.40000000       0.008
   0.50000000  0.00000000  0.40000000       0.008
  -0.30000000 -0.00000000  0.40000000       0.008
  -0.10000000 -0.00000000  0.40000000       0.008
   0.00000000  0.20000000  0.40000000       0.008
   0.10000000  0.20000000  0.40000000       0.008
   0.20000000  0.20000000  0.40000000       0.016
   0.30000000  0.20000000  0.40000000       0.008
   0.50000000  0.20000000  0.40000000       0.008
  -0.30000000  0.20000000  0.40000000       0.008
  -0.10000000  0.20000000  0.40000000       0.008
   0.00000000  0.40000000  0.40000000       0.008
   0.10000000  0.40000000  0.40000000       0.008
   0.20000000  0.40000000  0.40000000       0.016
   0.30000000  0.40000000  0.40000000       0.008
   0.50000000  0.40000000  0.40000000       0.008
  -0.30000000  0.40000000  0.40000000       0.008
  -0.10000000  0.40000000  0.40000000       0.008
   0.00000000 -0.40000000  0.40000000       0.008
   0.10000000 -0.40000000  0.40000000       0.008
   0.30000000 -0.40000000  0.40000000       0.008
   0.50000000 -0.40000000  0.40000000       0.008
  -0.30000000 -0.40000000  0.40000000       0.008
  -0.10000000 -0.40000000  0.40000000       0.008
   0.00000000 -0.20000000  0.40000000       0.008
   0.10000000 -0.20000000  0.40000000       0.008
   0.30000000 -0.20000000  0.40000000       0.008
   0.50000000 -0.20000000  0.40000000       0.008
  -0.30000000 -0.20000000  0.40000000       0.008
  -0.10000000 -0.20000000  0.40000000       0.008
 
 position of ions in fractional coordinates (direct lattice) 
   0.24999280  0.74971022  0.49998560
   0.50000720  0.50028978  0.00001440
   0.00000578  0.00028317  0.00001157
   0.74999422  0.24971683  0.49998843
   0.37500000  0.12500000  0.75000000
   0.12500152  0.37499524  0.25000304
   0.87500000  0.62500000  0.75000000
   0.62499848  0.87500476  0.24999696
 
 position of ions in cartesian coordinates  (Angst):
   0.00000000  4.77908165  3.37500140
   2.06327383  3.58734666  0.00090160
  -0.00000000  0.00201668  0.00007849
   2.06327383  1.19383978  3.37421656
   0.00000000  0.00114171  5.06104060
   0.00000000  2.39053345  1.68757002
   2.06327383  3.58642764  5.06184457
   2.06327383  5.97589487  1.68833299
 


--------------------------------------------------------------------------------------------------------


 k-point  1 :   0.0000 0.0000 0.0000  plane waves:    5397
 k-point  2 :   0.1000 0.0000-0.0000  plane waves:    5392
 k-point  3 :   0.2000 0.0000-0.0000  plane waves:    5379
 k-point  4 :   0.3000 0.0000-0.0000  plane waves:    5374
 k-point  5 :   0.4000 0.0000-0.0000  plane waves:    5376
 k-point  6 :   0.5000 0.0000-0.0000  plane waves:    5372
 k-point  7 :   0.0000 0.2000-0.0000  plane waves:    5388
 k-point  8 :   0.1000 0.2000-0.0000  plane waves:    5385
 k-point  9 :   0.2000 0.2000-0.0000  plane waves:    5375
 k-point 10 :   0.3000 0.2000 0.0000  plane waves:    5376
 k-point 11 :   0.4000 0.2000-0.0000  plane waves:    5369
 k-point 12 :   0.5000 0.2000-0.0000  plane waves:    5373
 k-point 13 :  -0.4000 0.2000 0.0000  plane waves:    5368
 k-point 14 :  -0.3000 0.2000 0.0000  plane waves:    5373
 k-point 15 :  -0.2000 0.2000 0.0000  plane waves:    5386
 k-point 16 :  -0.1000 0.2000 0.0000  plane waves:    5380
 k-point 17 :   0.0000 0.4000-0.0000  plane waves:    5370
 k-point 18 :   0.1000 0.4000 0.0000  plane waves:    5380
 k-point 19 :   0.2000 0.4000-0.0000  plane waves:    5381
 k-point 20 :   0.3000 0.4000 0.0000  plane waves:    5388
 k-point 21 :   0.4000 0.4000-0.0000  plane waves:    5379
 k-point 22 :   0.5000 0.4000-0.0000  plane waves:    5379
 k-point 23 :  -0.4000 0.4000 0.0000  plane waves:    5368
 k-point 24 :  -0.3000 0.4000 0.0000  plane waves:    5360
 k-point 25 :  -0.2000 0.4000 0.0000  plane waves:    5378
 k-point 26 :  -0.1000 0.4000 0.0000  plane waves:    5388
 k-point 27 :   0.0000 0.0000 0.2000  plane waves:    5394
 k-point 28 :   0.1000 0.0000 0.2000  plane waves:    5376
 k-point 29 :   0.2000 0.0000 0.2000  plane waves:    5380
 k-point 30 :   0.3000 0.0000 0.2000  plane waves:    5371
 k-point 31 :   0.4000 0.0000 0.2000  plane waves:    5376
 k-point 32 :   0.5000 0.0000 0.2000  plane waves:    5372
 k-point 33 :  -0.4000 0.0000 0.2000  plane waves:    5362
 k-point 34 :  -0.3000-0.0000 0.2000  plane waves:    5388
 k-point 35 :  -0.1000 0.0000 0.2000  plane waves:    5383
 k-point 36 :   0.0000 0.2000 0.2000  plane waves:    5386
 k-point 37 :   0.1000 0.2000 0.2000  plane waves:    5382
 k-point 38 :   0.2000 0.2000 0.2000  plane waves:    5382
 k-point 39 :   0.3000 0.2000 0.2000  plane waves:    5378
 k-point 40 :   0.4000 0.2000 0.2000  plane waves:    5367
 k-point 41 :   0.5000 0.2000 0.2000  plane waves:    5374
 k-point 42 :  -0.4000 0.2000 0.2000  plane waves:    5378
 k-point 43 :  -0.3000 0.2000 0.2000  plane waves:    5388
 k-point 44 :  -0.1000 0.2000 0.2000  plane waves:    5388
 k-point 45 :   0.0000 0.4000 0.2000  plane waves:    5372
 k-point 46 :   0.1000 0.4000 0.2000  plane waves:    5380
 k-point 47 :   0.2000 0.4000 0.2000  plane waves:    5376
 k-point 48 :   0.3000 0.4000 0.2000  plane waves:    5378
 k-point 49 :   0.4000 0.4000 0.2000  plane waves:    5381
 k-point 50 :   0.5000 0.4000 0.2000  plane waves:    5372
 k-point 51 :  -0.4000 0.4000 0.2000  plane waves:    5370
 k-point 52 :  -0.3000 0.4000 0.2000  plane waves:    5381
 k-point 53 :  -0.1000 0.4000 0.2000  plane waves:    5376
 k-point 54 :   0.0000-0.4000 0.2000  plane waves:    5367
 k-point 55 :   0.1000-0.4000 0.2000  plane waves:    5368
 k-point 56 :   0.2000-0.4000 0.2000  plane waves:    5374
 k-point 57 :   0.3000-0.4000 0.2000  plane waves:    5362
 k-point 58 :   0.4000-0.4000 0.2000  plane waves:    5371
 k-point 59 :   0.5000-0.4000 0.2000  plane waves:    5377
 k-point 60 :  -0.3000-0.4000 0.2000  plane waves:    5365
 k-point 61 :  -0.1000-0.4000 0.2000  plane waves:    5379
 k-point 62 :   0.0000-0.2000 0.2000  plane waves:    5383
 k-point 63 :   0.1000-0.2000 0.2000  plane waves:    5381
 k-point 64 :   0.2000-0.2000 0.2000  plane waves:    5363
 k-point 65 :   0.3000-0.2000 0.2000  plane waves:    5370
 k-point 66 :   0.4000-0.2000 0.2000  plane waves:    5370
 k-point 67 :   0.5000-0.2000 0.2000  plane waves:    5369
 k-point 68 :  -0.3000-0.2000 0.2000  plane waves:    5384
 k-point 69 :  -0.1000-0.2000 0.2000  plane waves:    5383
 k-point 70 :   0.0000 0.0000 0.4000  plane waves:    5391
 k-point 71 :   0.1000 0.0000 0.4000  plane waves:    5392
 k-point 72 :   0.2000 0.0000 0.4000  plane waves:    5388
 k-point 73 :   0.3000 0.0000 0.4000  plane waves:    5362
 k-point 74 :   0.5000 0.0000 0.4000  plane waves:    5377
 k-point 75 :  -0.3000-0.0000 0.4000  plane waves:    5362
 k-point 76 :  -0.1000-0.0000 0.4000  plane waves:    5385
 k-point 77 :   0.0000 0.2000 0.4000  plane waves:    5396
 k-point 78 :   0.1000 0.2000 0.4000  plane waves:    5389
 k-point 79 :   0.2000 0.2000 0.4000  plane waves:    5364
 k-point 80 :   0.3000 0.2000 0.4000  plane waves:    5362
 k-point 81 :   0.5000 0.2000 0.4000  plane waves:    5374
 k-point 82 :  -0.3000 0.2000 0.4000  plane waves:    5386
 k-point 83 :  -0.1000 0.2000 0.4000  plane waves:    5382
 k-point 84 :   0.0000 0.4000 0.4000  plane waves:    5365
 k-point 85 :   0.1000 0.4000 0.4000  plane waves:    5370
 k-point 86 :   0.2000 0.4000 0.4000  plane waves:    5376
 k-point 87 :   0.3000 0.4000 0.4000  plane waves:    5367
 k-point 88 :   0.5000 0.4000 0.4000  plane waves:    5371
 k-point 89 :  -0.3000 0.4000 0.4000  plane waves:    5369
 k-point 90 :  -0.1000 0.4000 0.4000  plane waves:    5374
 k-point 91 :   0.0000-0.4000 0.4000  plane waves:    5384
 k-point 92 :   0.1000-0.4000 0.4000  plane waves:    5377
 k-point 93 :   0.3000-0.4000 0.4000  plane waves:    5381
 k-point 94 :   0.5000-0.4000 0.4000  plane waves:    5377
 k-point 95 :  -0.3000-0.4000 0.4000  plane waves:    5366
 k-point 96 :  -0.1000-0.4000 0.4000  plane waves:    5379
 k-point 97 :   0.0000-0.2000 0.4000  plane waves:    5403
 k-point 98 :   0.1000-0.2000 0.4000  plane waves:    5383
 k-point 99 :   0.3000-0.2000 0.4000  plane waves:    5363
 k-point ** :   0.5000-0.2000 0.4000  plane waves:    5368
 k-point ** :  -0.3000-0.2000 0.4000  plane waves:    5363
 k-point ** :  -0.1000-0.2000 0.4000  plane waves:    5373

 maximum and minimum number of plane-waves per node :      1374     1320

 maximum number of plane-waves:      5403
 maximum index in each direction: 
   IXMAX=    8   IYMAX=   13   IZMAX=   13
   IXMIN=   -8   IYMIN=  -13   IZMIN=  -13


 real space projection operators:
  total allocation   :       9016.38 KBytes
  max/ min on nodes  :       2274.44       2243.88


 parallel 3D FFT for wavefunctions:
    minimum data exchange during FFTs selected (reduces bandwidth)
 parallel 3D FFT for charge:
    minimum data exchange during FFTs selected (reduces bandwidth)


 total amount of memory used by VASP MPI-rank0   176702. kBytes
=======================================================================

   base      :      30000. kBytes
   nonlr-proj:       3947. kBytes
   fftplans  :       3872. kBytes
   grid      :       9459. kBytes
   one-center:        196. kBytes
   wavefun   :     129228. kBytes
 
     INWAV:  cpu time    0.0000: real time    0.0001
 Broyden mixing: mesh for mixing (old mesh)
   NGX = 15   NGY = 27   NGZ = 27
  (NGX  = 64   NGY  =108   NGZ  =108)
  gives a total of  10935 points

 initial charge density was supplied:
 charge density of overlapping atoms calculated
 number of electron      92.0000000 magnetization       2.4000000
 keeping initial charge density in first step


--------------------------------------------------------------------------------------------------------


 Maximum index for non-local projection operator         2069
 Maximum index for augmentation-charges         3300 (set IRDMAX)


--------------------------------------------------------------------------------------------------------


 First call to EWALD:  gamma=   0.303
 Maximum number of real-space cells 4x 2x 2
 Maximum number of reciprocal cells 2x 3x 3

    FEWALD:  cpu time    0.0013: real time    0.0105


--------------------------------------- Iteration      1(   1)  ---------------------------------------


    POTLOK:  cpu time    0.1322: real time    0.1456
    SETDIJ:  cpu time    1.2582: real time    1.2612
     EDDAV:  cpu time   27.4196: real time   27.4902
 BZINTS: Fermi energy: 20.669659; 92.000000 electrons
         Band energy: 698.778107;  BLOECHL correction: -1.022921
       DOS:  cpu time    0.1360: real time    0.1363
    --------------------------------------------
      LOOP:  cpu time   28.9461: real time   29.0334

 eigenvalue-minimisations  : 25408
 total energy-change (2. order) : 0.1138678E+04  (-0.3161570E+04)
 number of electron      92.0000000 magnetization       2.4000000
 augmentation part       92.0000000 magnetization       2.4000000

 Free energy of the ion-electron system (eV)
  ---------------------------------------------------
  alpha Z        PSCENC =       598.91383237
  Ewald energy   TEWEN  =     -8437.50736733
  -Hartree energ DENC   =     -3135.90331097
  -exchange      EXHF   =         0.00000000
  -V(xc)+E(xc)   XCENC  =       390.43677486
  PAW double counting   =      9729.53823130   -10292.09175307
  entropy T*S    EENTRO =         0.00000000
  eigenvalues    EBANDS =       698.77810667
  atomic energy  EATOM  =     11586.51360488
  Solvation  Ediel_sol  =         0.00000000
  ---------------------------------------------------
  free energy    TOTEN  =      1138.67811871 eV

  energy without entropy =     1138.67811871  energy(sigma->0) =     1138.67811871


--------------------------------------------------------------------------------------------------------




--------------------------------------- Iteration      1(   2)  ---------------------------------------


     EDDAV:  cpu time   32.6589: real time   32.7385
 BZINTS: Fermi energy: 10.571805; 92.000000 electrons
         Band energy:-151.016486;  BLOECHL correction: -0.111290
       DOS:  cpu time    0.1371: real time    0.1375
    --------------------------------------------
      LOOP:  cpu time   32.7961: real time   32.8759

 eigenvalue-minimisations  : 30704
 total energy-change (2. order) :-0.8497946E+03  (-0.7797673E+03)
 number of electron      92.0000000 magnetization       2.4000000
 augmentation part       92.0000000 magnetization       2.4000000

 Free energy of the ion-electron system (eV)
  ---------------------------------------------------
  alpha Z        PSCENC =       598.91383237
  Ewald energy   TEWEN  =     -8437.50736733
  -Hartree energ DENC   =     -3135.90331097
  -exchange      EXHF   =         0.00000000
  -V(xc)+E(xc)   XCENC  =       390.43677486
  PAW double counting   =      9729.53823130   -10292.09175307
  entropy T*S    EENTRO =         0.00000000
  eigenvalues    EBANDS =      -151.01648551
  atomic energy  EATOM  =     11586.51360488
  Solvation  Ediel_sol  =         0.00000000
  ---------------------------------------------------
  free energy    TOTEN  =       288.88352653 eV

  energy without entropy =      288.88352653  energy(sigma->0) =      288.88352653


--------------------------------------------------------------------------------------------------------




--------------------------------------- Iteration      1(   3)  ---------------------------------------


     EDDAV:  cpu time   33.4458: real time   33.5260
 BZINTS: Fermi energy:  7.608980; 92.000000 electrons
         Band energy:-452.789583;  BLOECHL correction: -0.523033
       DOS:  cpu time    0.1385: real time    0.1388
    --------------------------------------------
      LOOP:  cpu time   33.5843: real time   33.6648

 eigenvalue-minimisations  : 32496
 total energy-change (2. order) :-0.3017731E+03  (-0.2935517E+03)
 number of electron      92.0000000 magnetization       2.4000000
 augmentation part       92.0000000 magnetization       2.4000000

 Free energy of the ion-electron system (eV)
  ---------------------------------------------------
  alpha Z        PSCENC =       598.91383237
  Ewald energy   TEWEN  =     -8437.50736733
  -Hartree energ DENC   =     -3135.90331097
  -exchange      EXHF   =         0.00000000
  -V(xc)+E(xc)   XCENC  =       390.43677486
  PAW double counting   =      9729.53823130   -10292.09175307
  entropy T*S    EENTRO =         0.00000000
  eigenvalues    EBANDS =      -452.78958282
  atomic energy  EATOM  =     11586.51360488
  Solvation  Ediel_sol  =         0.00000000
  ---------------------------------------------------
  free energy    TOTEN  =       -12.88957078 eV

  energy without entropy =      -12.88957078  energy(sigma->0) =      -12.88957078


--------------------------------------------------------------------------------------------------------




--------------------------------------- Iteration      1(   4)  ---------------------------------------


     EDDAV:  cpu time   39.6135: real time   39.7080
 BZINTS: Fermi energy:  6.339003; 92.000000 electrons
         Band energy:-504.221814;  BLOECHL correction: -0.059746
       DOS:  cpu time    0.1514: real time    0.1517
    --------------------------------------------
      LOOP:  cpu time   39.7649: real time   39.8597

 eigenvalue-minimisations  : 40576
 total energy-change (2. order) :-0.5143223E+02  (-0.5034320E+02)
 number of electron      92.0000000 magnetization       2.4000000
 augmentation part       92.0000000 magnetization       2.4000000

 Free energy of the ion-electron system (eV)
  ---------------------------------------------------
  alpha Z        PSCENC =       598.91383237
  Ewald energy   TEWEN  =     -8437.50736733
  -Hartree energ DENC   =     -3135.90331097
  -exchange      EXHF   =         0.00000000
  -V(xc)+E(xc)   XCENC  =       390.43677486
  PAW double counting   =      9729.53823130   -10292.09175307
  entropy T*S    EENTRO =         0.00000000
  eigenvalues    EBANDS =      -504.22181381
  atomic energy  EATOM  =     11586.51360488
  Solvation  Ediel_sol  =         0.00000000
  ---------------------------------------------------
  free energy    TOTEN  =       -64.32180177 eV

  energy without entropy =      -64.32180177  energy(sigma->0) =      -64.32180177


--------------------------------------------------------------------------------------------------------




--------------------------------------- Iteration      1(   5)  ---------------------------------------


     EDDAV:  cpu time   40.3271: real time   40.4231
 BZINTS: Fermi energy:  6.192515; 92.000000 electrons
         Band energy:-509.792117;  BLOECHL correction: -0.001119
       DOS:  cpu time    0.1445: real time    0.1448
    CHARGE:  cpu time    1.5668: real time    1.5705
    MIXING:  cpu time    0.0021: real time    0.0022
    --------------------------------------------
      LOOP:  cpu time   42.0405: real time   42.1406

 eigenvalue-minimisations  : 42640
 total energy-change (2. order) :-0.5570303E+01  (-0.5293230E+01)
 number of electron      92.0000003 magnetization       0.7354259
 augmentation part       13.7017173 magnetization       0.4950721

 Broyden mixing:
  rms(total) = 0.31313E+01    rms(broyden)= 0.31313E+01
  rms(prec ) = 0.45323E+01
  weight for this iteration     100.00

 Free energy of the ion-electron system (eV)
  ---------------------------------------------------
  alpha Z        PSCENC =       598.91383237
  Ewald energy   TEWEN  =     -8437.50736733
  -Hartree energ DENC   =     -3135.90331097
  -exchange      EXHF   =         0.00000000
  -V(xc)+E(xc)   XCENC  =       390.43677486
  PAW double counting   =      9729.53823130   -10292.09175307
  entropy T*S    EENTRO =         0.00000000
  eigenvalues    EBANDS =      -509.79211706
  atomic energy  EATOM  =     11586.51360488
  Solvation  Ediel_sol  =         0.00000000
  ---------------------------------------------------
  free energy    TOTEN  =       -69.89210502 eV

  energy without entropy =      -69.89210502  energy(sigma->0) =      -69.89210502


--------------------------------------------------------------------------------------------------------




--------------------------------------- Iteration      1(   6)  ---------------------------------------


    POTLOK:  cpu time    0.1118: real time    0.1121
    SETDIJ:  cpu time    1.2006: real time    1.2034
     EDDAV:  cpu time   37.1487: real time   37.2366
 BZINTS: Fermi energy:  1.260471; 92.000000 electrons
         Band energy:-851.983167;  BLOECHL correction: -0.023840
       DOS:  cpu time    0.1497: real time    0.1501
    CHARGE:  cpu time    1.5876: real time    1.5913
    MIXING:  cpu time    0.0025: real time    0.0025
    --------------------------------------------
      LOOP:  cpu time   40.2008: real time   40.2960

 eigenvalue-minimisations  : 37536
 total energy-change (2. order) :-0.1892634E+02  (-0.2904628E+02)
 number of electron      92.0000006 magnetization      -0.2550952
 augmentation part       25.2561809 magnetization      -0.8680029

 Broyden mixing:
  rms(total) = 0.59956E+01    rms(broyden)= 0.59956E+01
  rms(prec ) = 0.82486E+01
  weight for this iteration     100.00

 eigenvalues of (default mixing * dielectric matrix)
  average eigenvalue GAMMA=   0.2754
  0.2754

 Free energy of the ion-electron system (eV)
  ---------------------------------------------------
  alpha Z        PSCENC =       598.91383237
  Ewald energy   TEWEN  =     -8437.50736733
  -Hartree energ DENC   =     -2878.21681238
  -exchange      EXHF   =         0.00000000
  -V(xc)+E(xc)   XCENC  =       386.98536295
  PAW double counting   =      9529.31866973   -10022.84256841
  entropy T*S    EENTRO =         0.00000000
  eigenvalues    EBANDS =      -851.98316730
  atomic energy  EATOM  =     11586.51360488
  Solvation  Ediel_sol  =         0.00000000
  ---------------------------------------------------
  free energy    TOTEN  =       -88.81844549 eV

  energy without entropy =      -88.81844549  energy(sigma->0) =      -88.81844549


--------------------------------------------------------------------------------------------------------




--------------------------------------- Iteration      1(   7)  ---------------------------------------


    POTLOK:  cpu time    0.1117: real time    0.1122
    SETDIJ:  cpu time    1.1910: real time    1.1938
     EDDAV:  cpu time   31.7576: real time   31.8330
 BZINTS: Fermi energy:  4.593620; 92.000000 electrons
         Band energy:-656.870883;  BLOECHL correction: -0.001201
       DOS:  cpu time    0.1621: real time    0.1624
    CHARGE:  cpu time    1.5600: real time    1.5637
    MIXING:  cpu time    0.0023: real time    0.0024
    --------------------------------------------
      LOOP:  cpu time   34.7847: real time   34.8674

 eigenvalue-minimisations  : 31144
 total energy-change (2. order) : 0.8649580E+01  (-0.2317016E+02)
 number of electron      92.0000004 magnetization      -0.2860310
 augmentation part       19.1038571 magnetization      -0.8925526

 Broyden mixing:
  rms(total) = 0.88641E+01    rms(broyden)= 0.88641E+01
  rms(prec ) = 0.15183E+02
  weight for this iteration     100.00

 eigenvalues of (default mixing * dielectric matrix)
  average eigenvalue GAMMA=   0.2344
  0.2344  0.2344

 Free energy of the ion-electron system (eV)
  ---------------------------------------------------
  alpha Z        PSCENC =       598.91383237
  Ewald energy   TEWEN  =     -8437.50736733
  -Hartree energ DENC   =     -3007.89218067
  -exchange      EXHF   =         0.00000000
  -V(xc)+E(xc)   XCENC  =       390.47223748
  PAW double counting   =      9844.52438795   -10398.32249662
  entropy T*S    EENTRO =         0.00000000
  eigenvalues    EBANDS =      -656.87088326
  atomic energy  EATOM  =     11586.51360488
  Solvation  Ediel_sol  =         0.00000000
  ---------------------------------------------------
  free energy    TOTEN  =       -80.16886521 eV

  energy without entropy =      -80.16886521  energy(sigma->0) =      -80.16886521


--------------------------------------------------------------------------------------------------------




--------------------------------------- Iteration      1(   8)  ---------------------------------------


    POTLOK:  cpu time    0.1108: real time    0.1112
    SETDIJ:  cpu time    1.1901: real time    1.1929
     EDDAV:  cpu time   33.8847: real time   33.9648
 BZINTS: Fermi energy:  3.948011; 92.000000 electrons
         Band energy:-628.205857;  BLOECHL correction:  0.000000
       DOS:  cpu time    0.0294: real time    0.0295
    CHARGE:  cpu time    1.5520: real time    1.5557
    MIXING:  cpu time    0.0023: real time    0.0023
    --------------------------------------------
      LOOP:  cpu time   36.7693: real time   36.8563

 eigenvalue-minimisations  : 35032
 total energy-change (2. order) : 0.6502580E+01  (-0.1911445E+02)
 number of electron      92.0000004 magnetization      -0.1923704
 augmentation part       18.8429641 magnetization      -0.2031635

 Broyden mixing:
  rms(total) = 0.27067E+01    rms(broyden)= 0.27066E+01
  rms(prec ) = 0.28480E+01
  weight for this iteration     100.00

 eigenvalues of (default mixing * dielectric matrix)
  average eigenvalue GAMMA=   0.2945
  0.4626  0.3637  0.0571

 Free energy of the ion-electron system (eV)
  ---------------------------------------------------
  alpha Z        PSCENC =       598.91383237
  Ewald energy   TEWEN  =     -8437.50736733
  -Hartree energ DENC   =     -3020.89573142
  -exchange      EXHF   =         0.00000000
  -V(xc)+E(xc)   XCENC  =       388.90626719
  PAW double counting   =      9913.00621938   -10474.39725358
  entropy T*S    EENTRO =         0.00000000
  eigenvalues    EBANDS =      -628.20585659
  atomic energy  EATOM  =     11586.51360488
  Solvation  Ediel_sol  =         0.00000000
  ---------------------------------------------------
  free energy    TOTEN  =       -73.66628510 eV

  energy without entropy =      -73.66628510  energy(sigma->0) =      -73.66628510


--------------------------------------------------------------------------------------------------------




--------------------------------------- Iteration      1(   9)  ---------------------------------------


    POTLOK:  cpu time    0.1098: real time    0.1104
    SETDIJ:  cpu time    1.1921: real time    1.1949
     EDDAV:  cpu time   43.2968: real time   43.4016
 BZINTS: Fermi energy:  4.604002; 92.000000 electrons
         Band energy:-598.442208;  BLOECHL correction: -0.025361
       DOS:  cpu time    0.1747: real time    0.1751
    CHARGE:  cpu time    1.6683: real time    1.6723
    MIXING:  cpu time    0.0038: real time    0.0038
    --------------------------------------------
      LOOP:  cpu time   46.4455: real time   46.5581

 eigenvalue-minimisations  : 41336
 total energy-change (2. order) :-0.1780128E+01  (-0.1327332E+01)
 number of electron      92.0000004 magnetization       0.3562993
 augmentation part       17.8738589 magnetization       0.6022872

 Broyden mixing:
  rms(total) = 0.15818E+01    rms(broyden)= 0.15818E+01
  rms(prec ) = 0.18076E+01
  weight for this iteration     100.00

 eigenvalues of (default mixing * dielectric matrix)
  average eigenvalue GAMMA=   0.3995
  0.5738  0.5738  0.3722  0.0783

 Free energy of the ion-electron system (eV)
  ---------------------------------------------------
  alpha Z        PSCENC =       598.91383237
  Ewald energy   TEWEN  =     -8437.50736733
  -Hartree energ DENC   =     -3044.41934683
  -exchange      EXHF   =         0.00000000
  -V(xc)+E(xc)   XCENC  =       393.33414007
  PAW double counting   =     10046.65918030   -10620.49824863
  entropy T*S    EENTRO =         0.00000000
  eigenvalues    EBANDS =      -598.44220798
  atomic energy  EATOM  =     11586.51360488
  Solvation  Ediel_sol  =         0.00000000
  ---------------------------------------------------
  free energy    TOTEN  =       -75.44641315 eV

  energy without entropy =      -75.44641315  energy(sigma->0) =      -75.44641315


--------------------------------------------------------------------------------------------------------




--------------------------------------- Iteration      1(  10)  ---------------------------------------


    POTLOK:  cpu time    0.1388: real time    0.1393
    SETDIJ:  cpu time    1.6455: real time    1.6494
     EDDAV:  cpu time   49.1921: real time   49.3083
 BZINTS: Fermi energy:  4.726266; 92.000000 electrons
         Band energy:-581.220720;  BLOECHL correction: -0.026112
       DOS:  cpu time    0.1757: real time    0.1761
    CHARGE:  cpu time    1.7037: real time    1.7077
    MIXING:  cpu time    0.0038: real time    0.0038
    --------------------------------------------
      LOOP:  cpu time   52.8596: real time   52.9846

 eigenvalue-minimisations  : 39904
 total energy-change (2. order) : 0.1482006E+00  (-0.1920154E+00)
 number of electron      92.0000004 magnetization       0.6295283
 augmentation part       17.6030191 magnetization       1.0286339

 Broyden mixing:
  rms(total) = 0.11497E+01    rms(broyden)= 0.11497E+01
  rms(prec ) = 0.14136E+01
  weight for this iteration     100.00

 eigenvalues of (default mixing * dielectric matrix)
  average eigenvalue GAMMA=   0.5140
  0.9600  0.0782  0.3873  0.6110  0.5336

 Free energy of the ion-electron system (eV)
  ---------------------------------------------------
  alpha Z        PSCENC =       598.91383237
  Ewald energy   TEWEN  =     -8437.50736733
  -Hartree energ DENC   =     -3052.28478410
  -exchange      EXHF   =         0.00000000
  -V(xc)+E(xc)   XCENC  =       394.29314643
  PAW double counting   =     10232.32571328   -10816.33163822
  entropy T*S    EENTRO =         0.00000000
  eigenvalues    EBANDS =      -581.22071982
  atomic energy  EATOM  =     11586.51360488
  Solvation  Ediel_sol  =         0.00000000
  ---------------------------------------------------
  free energy    TOTEN  =       -75.29821252 eV

  energy without entropy =      -75.29821252  energy(sigma->0) =      -75.29821252


--------------------------------------------------------------------------------------------------------




--------------------------------------- Iteration      1(  11)  ---------------------------------------


    POTLOK:  cpu time    0.1371: real time    0.1380
    SETDIJ:  cpu time    1.7568: real time    1.7609
     EDDAV:  cpu time   49.9039: real time   50.0227
 BZINTS: Fermi energy:  4.820408; 92.000000 electrons
         Band energy:-569.650515;  BLOECHL correction: -0.027538
       DOS:  cpu time    0.1821: real time    0.1826
    CHARGE:  cpu time    1.6601: real time    1.6641
    MIXING:  cpu time    0.0032: real time    0.0033
    --------------------------------------------
      LOOP:  cpu time   53.6433: real time   53.7715

 eigenvalue-minimisations  : 41360
 total energy-change (2. order) : 0.1339903E+00  (-0.4789987E-01)
 number of electron      92.0000004 magnetization       0.6431784
 augmentation part       17.4951987 magnetization       1.0169966

 Broyden mixing:
  rms(total) = 0.75540E+00    rms(broyden)= 0.75540E+00
  rms(prec ) = 0.10956E+01
  weight for this iteration     100.00

 eigenvalues of (default mixing * dielectric matrix)
  average eigenvalue GAMMA=   0.6211
  1.3604  0.0782  0.6896  0.6896  0.4069  0.5016

 Free energy of the ion-electron system (eV)
  ---------------------------------------------------
  alpha Z        PSCENC =       598.91383237
  Ewald energy   TEWEN  =     -8437.50736733
  -Hartree energ DENC   =     -3058.35736048
  -exchange      EXHF   =         0.00000000
  -V(xc)+E(xc)   XCENC  =       396.42979843
  PAW double counting   =     10463.77511715   -11055.28133262
  entropy T*S    EENTRO =         0.00000000
  eigenvalues    EBANDS =      -569.65051464
  atomic energy  EATOM  =     11586.51360488
  Solvation  Ediel_sol  =         0.00000000
  ---------------------------------------------------
  free energy    TOTEN  =       -75.16422224 eV

  energy without entropy =      -75.16422224  energy(sigma->0) =      -75.16422224


--------------------------------------------------------------------------------------------------------




--------------------------------------- Iteration      1(  12)  ---------------------------------------


    POTLOK:  cpu time    0.1423: real time    0.1428
    SETDIJ:  cpu time    1.7362: real time    1.7403
     EDDAV:  cpu time   50.9943: real time   51.1149
 BZINTS: Fermi energy:  4.641015; 92.000000 electrons
         Band energy:-567.948887;  BLOECHL correction: -0.017662
       DOS:  cpu time    0.1708: real time    0.1712
    CHARGE:  cpu time    1.7045: real time    1.7085
    MIXING:  cpu time    0.0033: real time    0.0033
    --------------------------------------------
      LOOP:  cpu time   54.7514: real time   54.8810

 eigenvalue-minimisations  : 41352
 total energy-change (2. order) : 0.9635381E-01  (-0.1562245E-01)
 number of electron      92.0000004 magnetization       0.4299894
 augmentation part       17.7715523 magnetization       0.7258495

 Broyden mixing:
  rms(total) = 0.63742E+00    rms(broyden)= 0.63742E+00
  rms(prec ) = 0.82961E+00
  weight for this iteration     100.00

 eigenvalues of (default mixing * dielectric matrix)
  average eigenvalue GAMMA=   0.6797
  1.2437  1.2437  0.0782  0.6716  0.6716  0.4223  0.4267

 Free energy of the ion-electron system (eV)
  ---------------------------------------------------
  alpha Z        PSCENC =       598.91383237
  Ewald energy   TEWEN  =     -8437.50736733
  -Hartree energ DENC   =     -3058.27908351
  -exchange      EXHF   =         0.00000000
  -V(xc)+E(xc)   XCENC  =       397.09019343
  PAW double counting   =     10616.66943913   -11210.51960068
  entropy T*S    EENTRO =         0.00000000
  eigenvalues    EBANDS =      -567.94888673
  atomic energy  EATOM  =     11586.51360488
  Solvation  Ediel_sol  =         0.00000000
  ---------------------------------------------------
  free energy    TOTEN  =       -75.06786843 eV

  energy without entropy =      -75.06786843  energy(sigma->0) =      -75.06786843


--------------------------------------------------------------------------------------------------------




--------------------------------------- Iteration      1(  13)  ---------------------------------------


    POTLOK:  cpu time    0.1413: real time    0.1421
    SETDIJ:  cpu time    1.7473: real time    1.7514
     EDDAV:  cpu time   48.9146: real time   49.0301
 BZINTS: Fermi energy:  4.661494; 92.000000 electrons
         Band energy:-560.560228;  BLOECHL correction: -0.017951
       DOS:  cpu time    0.1760: real time    0.1764
    CHARGE:  cpu time    1.7065: real time    1.7105
    MIXING:  cpu time    0.0037: real time    0.0038
    --------------------------------------------
      LOOP:  cpu time   52.6893: real time   52.8143

 eigenvalue-minimisations  : 39520
 total energy-change (2. order) : 0.3618121E-01  (-0.1415089E-01)
 number of electron      92.0000004 magnetization       0.3479853
 augmentation part       17.7224955 magnetization       0.5670074

 Broyden mixing:
  rms(total) = 0.44624E+00    rms(broyden)= 0.44624E+00
  rms(prec ) = 0.63748E+00
  weight for this iteration     100.00

 eigenvalues of (default mixing * dielectric matrix)
  average eigenvalue GAMMA=   0.7970
  1.7449  1.7449  0.0782  0.6685  0.6685  0.4262  0.4262  0.6186

 Free energy of the ion-electron system (eV)
  ---------------------------------------------------
  alpha Z        PSCENC =       598.91383237
  Ewald energy   TEWEN  =     -8437.50736733
  -Hartree energ DENC   =     -3064.23310767
  -exchange      EXHF   =         0.00000000
  -V(xc)+E(xc)   XCENC  =       398.04357699
  PAW double counting   =     10697.44271302   -11293.64471196
  entropy T*S    EENTRO =         0.00000000
  eigenvalues    EBANDS =      -560.56022753
  atomic energy  EATOM  =     11586.51360488
  Solvation  Ediel_sol  =         0.00000000
  ---------------------------------------------------
  free energy    TOTEN  =       -75.03168722 eV

  energy without entropy =      -75.03168722  energy(sigma->0) =      -75.03168722


--------------------------------------------------------------------------------------------------------




--------------------------------------- Iteration      1(  14)  ---------------------------------------


    POTLOK:  cpu time    0.1377: real time    0.1382
    SETDIJ:  cpu time    1.7423: real time    1.7464
     EDDAV:  cpu time   50.5952: real time   50.7148
 BZINTS: Fermi energy:  4.605089; 92.000000 electrons
         Band energy:-556.859747;  BLOECHL correction: -0.014518
       DOS:  cpu time    0.1731: real time    0.1735
    CHARGE:  cpu time    1.7669: real time    1.7711
    MIXING:  cpu time    0.0040: real time    0.0040
    --------------------------------------------
      LOOP:  cpu time   54.4192: real time   54.5480

 eigenvalue-minimisations  : 41720
 total energy-change (2. order) : 0.7649361E-01  (-0.9197616E-02)
 number of electron      92.0000004 magnetization       0.2253810
 augmentation part       17.7622643 magnetization       0.3927293

 Broyden mixing:
  rms(total) = 0.36046E+00    rms(broyden)= 0.36046E+00
  rms(prec ) = 0.48012E+00
  weight for this iteration     100.00

 eigenvalues of (default mixing * dielectric matrix)
  average eigenvalue GAMMA=   0.8580
  2.0955  2.0955  0.0782  0.6897  0.6897  0.4260  0.4260  0.6108  0.6108

 Free energy of the ion-electron system (eV)
  ---------------------------------------------------
  alpha Z        PSCENC =       598.91383237
  Ewald energy   TEWEN  =     -8437.50736733
  -Hartree energ DENC   =     -3066.98707001
  -exchange      EXHF   =         0.00000000
  -V(xc)+E(xc)   XCENC  =       398.43919051
  PAW double counting   =     10745.40831790   -11342.87595492
  entropy T*S    EENTRO =         0.00000000
  eigenvalues    EBANDS =      -556.85974702
  atomic energy  EATOM  =     11586.51360488
  Solvation  Ediel_sol  =         0.00000000
  ---------------------------------------------------
  free energy    TOTEN  =       -74.95519361 eV

  energy without entropy =      -74.95519361  energy(sigma->0) =      -74.95519361


--------------------------------------------------------------------------------------------------------




--------------------------------------- Iteration      1(  15)  ---------------------------------------


    POTLOK:  cpu time    0.1432: real time    0.1441
    SETDIJ:  cpu time    1.7847: real time    1.7890
     EDDAV:  cpu time   49.8419: real time   49.9602
 BZINTS: Fermi energy:  4.590437; 92.000000 electrons
         Band energy:-552.464185;  BLOECHL correction: -0.009867
       DOS:  cpu time    0.1606: real time    0.1610
    CHARGE:  cpu time    1.7126: real time    1.7167
    MIXING:  cpu time    0.0041: real time    0.0041
    --------------------------------------------
      LOOP:  cpu time   53.6471: real time   53.7751

 eigenvalue-minimisations  : 40408
 total energy-change (2. order) : 0.3610692E-01  (-0.6659485E-02)
 number of electron      92.0000004 magnetization       0.0933310
 augmentation part       17.7398245 magnetization       0.1930160

 Broyden mixing:
[...]
 -0.000   0.000   0.000   0.000   0.005  -0.000   0.000  -0.004
  0.000   0.000  -0.013  -0.001  -0.000   0.010   0.000   0.000
 -0.000   0.000   0.000  -0.000   0.000  -0.000   0.000   0.000
 pseudopotential strength for first ion, spin component:           2
 -8.478  -4.183   0.001  -0.001  -0.000  -0.000   0.000  -0.000
 -4.183  -0.255  -0.000   0.000   0.000   0.000  -0.000  -0.000
  0.001  -0.000 -15.623   0.002  -0.000   7.406  -0.002   0.000
 -0.001   0.000   0.002 -15.625  -0.000  -0.002   7.408   0.000
 -0.000   0.000  -0.000  -0.000 -15.626   0.000   0.000   7.409
 -0.000   0.000   7.406  -0.002   0.000   4.900   0.001  -0.000
  0.000  -0.000  -0.002   7.408   0.000   0.001   4.899  -0.000
 -0.000  -0.000   0.000   0.000   7.409  -0.000  -0.000   4.898
  0.000  -0.000  -0.000  -0.000   0.000  -0.000  -0.000  -0.000
  0.002  -0.000  -0.000   0.000  -0.000   0.000  -0.000  -0.000
 -0.000   0.000  -0.000  -0.000   0.000  -0.000  -0.000   0.000
  0.000  -0.000  -0.000  -0.000  -0.000  -0.000  -0.000   0.000
 -0.001   0.000  -0.000  -0.000  -0.000  -0.000  -0.000   0.000
 -0.000   0.000  -0.000  -0.000  -0.000   0.000   0.000   0.000
 -0.002   0.000   0.000  -0.000  -0.000  -0.000  -0.000   0.000
  0.000  -0.000   0.000   0.000   0.000   0.000  -0.000  -0.000
 -0.000   0.000  -0.000   0.000   0.001   0.000   0.000  -0.000
  0.002  -0.000   0.000   0.000   0.000   0.000  -0.000  -0.000
  0.000  -0.000  -0.000   0.000  -0.000   0.000  -0.001   0.000
  0.000  -0.000   0.000   0.000   0.000  -0.000  -0.000  -0.002
  0.000  -0.000  -0.000   0.000   0.000   0.001  -0.000  -0.000
  0.000  -0.000  -0.000   0.000   0.000   0.000  -0.001  -0.000
 -0.000   0.000   0.000   0.000   0.000  -0.000  -0.000   0.001
 -0.000  -0.000  -0.000  -0.000  -0.000  -0.001   0.000   0.000
 -0.000   0.000   0.000  -0.000  -0.000  -0.000   0.000   0.000
  0.000  -0.000  -0.000   0.000  -0.000   0.000  -0.001   0.000
  0.000  -0.000   0.000   0.000   0.000  -0.000  -0.000  -0.002
  0.000  -0.000  -0.000   0.001   0.000   0.001  -0.000  -0.000
  0.000  -0.000  -0.000  -0.000   0.000   0.000  -0.001  -0.000
 -0.000   0.000   0.000   0.000   0.000  -0.000  -0.000   0.001
 -0.000  -0.000  -0.000  -0.000  -0.000  -0.001   0.000   0.000
 -0.000   0.000   0.000  -0.000  -0.000  -0.000   0.000   0.000
 total augmentation occupancy for first ion, spin component:           1
  1.995  -0.026   0.000   0.000   0.000   0.000  -0.000   0.000   0.000  -0.000   0.000   0.000  -0.000   0.000   0.000  -0.000
 -0.026   0.576   0.000  -0.000   0.000  -0.000  -0.000   0.000   0.000  -0.002   0.000   0.000   0.001   0.000  -0.001   0.000
  0.000   0.000   2.011  -0.000   0.000  -0.015   0.000   0.000   0.000   0.000  -0.000   0.000  -0.000   0.000   0.000   0.000
  0.000  -0.000  -0.000   2.011   0.000   0.000  -0.015   0.000   0.000   0.000  -0.000   0.000  -0.000   0.000   0.000  -0.000
  0.000   0.000   0.000   0.000   2.011   0.000   0.000  -0.015   0.000   0.000   0.000  -0.000   0.000   0.000   0.000   0.000
  0.000  -0.000  -0.015   0.000   0.000   0.017  -0.000   0.000   0.000  -0.000  -0.000   0.000   0.000   0.000  -0.000  -0.000
 -0.000  -0.000   0.000  -0.015   0.000  -0.000   0.017   0.000   0.000  -0.000   0.000   0.000   0.000   0.000  -0.000   0.000
  0.000   0.000   0.000   0.000  -0.015   0.000   0.000   0.017  -0.000   0.000   0.000   0.000   0.000  -0.000   0.000   0.000
  0.000   0.000   0.000   0.000   0.000   0.000   0.000  -0.000   0.175   0.000   0.000  -0.094   0.000   0.046   0.000   0.000
 -0.000  -0.002   0.000   0.000   0.000  -0.000  -0.000   0.000   0.000   0.240  -0.002   0.000  -0.090   0.000   0.065  -0.000
  0.000   0.000  -0.000  -0.000   0.000  -0.000   0.000   0.000   0.000  -0.002   0.111   0.000  -0.002   0.000  -0.000   0.026
  0.000   0.000   0.000   0.000  -0.000   0.000   0.000   0.000  -0.094   0.000   0.000   0.241   0.000  -0.028   0.000   0.000
 -0.000   0.001  -0.000  -0.000   0.000   0.000   0.000   0.000   0.000  -0.090  -0.002   0.000   0.176   0.000  -0.027  -0.000
  0.000   0.000   0.000   0.000   0.000   0.000   0.000  -0.000   0.046   0.000   0.000  -0.028   0.000   0.012   0.000   0.000
  0.000  -0.001   0.000   0.000   0.000  -0.000  -0.000   0.000   0.000   0.065  -0.000   0.000  -0.027   0.000   0.018  -0.000
 -0.000   0.000   0.000  -0.000   0.000  -0.000   0.000   0.000   0.000  -0.000   0.026   0.000  -0.000   0.000  -0.000   0.006
  0.000   0.000   0.000   0.000   0.000   0.000   0.000   0.000  -0.028   0.000   0.000   0.065   0.000  -0.009   0.000   0.000
 -0.000   0.000  -0.000   0.000   0.000   0.000   0.000   0.000   0.000  -0.027  -0.000   0.000   0.046   0.000  -0.008  -0.000
 -0.000  -0.002  -0.000  -0.051   0.000  -0.001   0.056   0.000   0.000   0.000  -0.001   0.000   0.000   0.000  -0.000  -0.000
  0.000   0.000   0.000   0.000  -0.063   0.000   0.000   0.069   0.001   0.000   0.000  -0.002   0.000   0.000   0.000   0.000
 -0.000   0.002   0.028  -0.001   0.000  -0.031   0.001   0.000   0.000  -0.000   0.001   0.000  -0.001   0.000   0.000   0.000
 -0.000  -0.002   0.000  -0.045   0.000  -0.000   0.050   0.000   0.000  -0.000   0.000   0.000  -0.001   0.000  -0.000   0.000
  0.000   0.000   0.000   0.000   0.028   0.000   0.000  -0.030  -0.002   0.000   0.000   0.001   0.000  -0.000   0.000   0.000
  0.000   0.001  -0.062  -0.000   0.000   0.068  -0.000   0.000   0.000  -0.003  -0.002   0.000   0.000   0.000  -0.000  -0.000
  0.000   0.000   0.000   0.000  -0.000   0.000   0.000  -0.000   0.002   0.000   0.000  -0.002   0.000   0.000   0.000   0.000
  0.000   0.001   0.000   0.053   0.000   0.001  -0.055   0.000   0.000   0.000   0.001   0.000  -0.001   0.000   0.000   0.000
  0.000   0.000   0.000   0.000   0.066   0.000   0.000  -0.068  -0.001   0.000   0.000  -0.000   0.000  -0.000   0.000   0.000
  0.000  -0.001  -0.029   0.001   0.000   0.030  -0.001   0.000   0.000  -0.000  -0.001   0.000   0.001   0.000  -0.000  -0.000
  0.000   0.001  -0.000   0.047   0.000   0.000  -0.049   0.000   0.000   0.000  -0.000   0.000  -0.001   0.000   0.000  -0.000
  0.000   0.000   0.000   0.000  -0.029   0.000   0.000   0.030   0.000   0.000   0.000  -0.000   0.000   0.000   0.000   0.000
 -0.000   0.001   0.064   0.000   0.000  -0.067   0.001   0.000   0.000   0.002   0.000   0.000   0.000   0.000   0.000   0.000
  0.000   0.000   0.000   0.000   0.000   0.000   0.000   0.000  -0.001   0.000   0.000   0.001   0.000  -0.000   0.000   0.000
 total augmentation occupancy for first ion, spin component:           2
  0.042   0.161   0.000   0.000   0.000   0.000  -0.000   0.000   0.000   0.000   0.000   0.000   0.000   0.000  -0.000   0.000
  0.161  -0.127   0.000  -0.001   0.000  -0.000   0.001   0.000   0.000   0.000  -0.000   0.000   0.000   0.000   0.000  -0.000
  0.000   0.000   0.008   0.000   0.000   0.044   0.000   0.000   0.000  -0.001  -0.000   0.000   0.001   0.000  -0.000  -0.000
  0.000  -0.001   0.000   0.008   0.000   0.000   0.044   0.000   0.000  -0.000   0.000   0.000  -0.001   0.000  -0.000   0.000
  0.000   0.000   0.000   0.000   0.008   0.000   0.000   0.044   0.000   0.000   0.000  -0.001   0.000   0.000   0.000   0.000
  0.000  -0.000   0.044   0.000   0.000  -0.003   0.000   0.000   0.000   0.001   0.000   0.000  -0.001   0.000   0.000   0.000
 -0.000   0.001   0.000   0.044   0.000   0.000  -0.002   0.000   0.000   0.000  -0.000   0.000   0.000   0.000   0.000  -0.000
  0.000   0.000   0.000   0.000   0.044   0.000   0.000  -0.003  -0.000   0.000   0.000   0.001   0.000  -0.000   0.000   0.000
  0.000   0.000   0.000   0.000   0.000   0.000   0.000  -0.000  -0.029   0.000   0.000   0.014   0.000  -0.008   0.000   0.000
  0.000   0.000  -0.001  -0.000   0.000   0.001   0.000   0.000   0.000  -0.040   0.004   0.000   0.008   0.000  -0.011   0.001
  0.000  -0.000  -0.000   0.000   0.000   0.000  -0.000   0.000   0.000   0.004  -0.024   0.000   0.005   0.000   0.001  -0.006
  0.000   0.000   0.000   0.000  -0.001   0.000   0.000   0.001   0.014   0.000   0.000  -0.039   0.000   0.004   0.000   0.000
  0.000   0.000   0.001  -0.001   0.000  -0.001   0.000   0.000   0.000   0.008   0.005   0.000  -0.034   0.000   0.003   0.001
  0.000   0.000   0.000   0.000   0.000   0.000   0.000  -0.000  -0.008   0.000   0.000   0.004   0.000  -0.002   0.000   0.000
 -0.000   0.000  -0.000  -0.000   0.000   0.000   0.000   0.000   0.000  -0.011   0.001   0.000   0.003   0.000  -0.003   0.000
  0.000  -0.000  -0.000   0.000   0.000   0.000  -0.000   0.000   0.000   0.001  -0.006   0.000   0.001   0.000   0.000  -0.001
  0.000   0.000   0.000   0.000  -0.000   0.000   0.000   0.000   0.004   0.000   0.000  -0.011   0.000   0.001   0.000   0.000
  0.000  -0.000   0.000  -0.000   0.000  -0.000   0.000   0.000   0.000   0.003   0.001   0.000  -0.008   0.000   0.001   0.000
 -0.000   0.005  -0.000   0.007   0.000   0.000  -0.012   0.000   0.000  -0.004   0.003   0.000  -0.003   0.000  -0.001   0.000
  0.000   0.000   0.000   0.000   0.007   0.000   0.000  -0.014  -0.005   0.000   0.000   0.003   0.000  -0.001   0.000   0.000
 -0.000  -0.002  -0.004  -0.001   0.000   0.007  -0.000   0.000   0.000   0.001  -0.004   0.000   0.003   0.000   0.000  -0.001
 -0.000   0.005   0.000   0.006   0.000   0.000  -0.011   0.000   0.000  -0.002  -0.001   0.000   0.000   0.000  -0.000  -0.000
  0.000   0.000   0.000   0.000  -0.004   0.000   0.000   0.006   0.003   0.000   0.000  -0.004   0.000   0.000   0.000   0.000
  0.000  -0.004   0.009  -0.001   0.000  -0.015   0.000   0.000   0.000   0.008  -0.001   0.000  -0.000   0.000   0.001  -0.000
  0.000   0.000   0.000   0.000  -0.000   0.000   0.000   0.001  -0.003   0.000   0.000   0.002   0.000  -0.001   0.000   0.000
  0.000  -0.004   0.000   0.000   0.000  -0.000   0.005   0.000   0.000   0.005  -0.002   0.000   0.004   0.000   0.001  -0.000
  0.000   0.000   0.000   0.000   0.001   0.000   0.000   0.006   0.005   0.000   0.000  -0.001   0.000   0.001   0.000   0.000
  0.000   0.001  -0.000   0.001   0.000  -0.004   0.000   0.000   0.000  -0.001   0.004   0.000  -0.003   0.000  -0.000   0.001
  0.000  -0.004  -0.000   0.000   0.000  -0.000   0.004   0.000   0.000   0.003   0.000   0.000   0.001   0.000   0.000   0.000
  0.000   0.000   0.000   0.000   0.000   0.000   0.000  -0.002  -0.001   0.000   0.000   0.003   0.000  -0.000   0.000   0.000
 -0.000   0.003  -0.001   0.001   0.000   0.007  -0.000   0.000   0.000  -0.008   0.004   0.000  -0.001   0.000  -0.001   0.001
  0.000   0.000   0.000   0.000  -0.000   0.000   0.000  -0.001   0.001   0.000   0.000  -0.002   0.000   0.000   0.000   0.000


------------------------ aborting loop because EDIFF is reached ----------------------------------------


 


 total charge     
 
# of ion       s       p       d       f       tot
--------------------------------------------------
    1        2.080   5.876   0.495   6.734  15.184
    2        2.080   5.876   0.495   6.734  15.184
    3        2.080   5.876   0.495   6.732  15.183
    4        2.080   5.876   0.495   6.732  15.183
    5        1.317   2.451   0.000   0.000   3.768
    6        1.317   2.451   0.000   0.000   3.768
    7        1.317   2.451   0.000   0.000   3.768
    8        1.317   2.451   0.000   0.000   3.768
--------------------------------------------------
tot         13.589  33.307   1.978  26.932  75.806

 


 magnetization (x)
 
# of ion       s       p       d       f       tot
--------------------------------------------------
    1        0.007   0.012  -0.087  -6.673  -6.741
    2        0.007   0.012  -0.087  -6.673  -6.741
    3       -0.007  -0.012   0.087   6.671   6.740
    4       -0.007  -0.012   0.087   6.671   6.740
    5       -0.002  -0.023   0.000   0.000  -0.025
    6       -0.000  -0.000   0.000   0.000  -0.000
    7        0.002   0.023   0.000   0.000   0.025
    8       -0.000  -0.000   0.000   0.000  -0.000
--------------------------------------------------
tot          0.000  -0.000   0.000  -0.002  -0.002

 
    CHARGE:  cpu time    1.6882: real time    1.6922
    FORLOC:  cpu time    0.0066: real time    0.0066
    FORNL :  cpu time   10.1340: real time   10.1580
    STRESS:  cpu time   30.1184: real time   30.1896
    FORCOR:  cpu time    0.1318: real time    0.1321
    FORHAR:  cpu time    0.0173: real time    0.0174
    MIXING:  cpu time    0.0060: real time    0.0060
    OFIELD:  cpu time    0.0000: real time    0.0000

  FORCE on cell =-STRESS in cart. coord.  units (eV):
  Direction    XX          YY          ZZ          XY          YZ          ZX
  --------------------------------------------------------------------------------------
  Alpha Z   598.91383   598.91383   598.91383
  Ewald   -2808.85022 -2816.13366 -2812.53359    -0.00000    -5.53611    -0.00000
  Hartree  1026.39977  1022.11198  1024.25983    -0.00000    -3.00773     0.00003
  E(xc)    -452.70961  -452.73373  -452.72023     0.00000    -0.01721    -0.00000
  Local     495.17258   506.66042   500.96506     0.00000     8.63796    -0.00007
  n-local   -61.10578   -61.06685   -61.08295     0.08761     0.02585    -0.07931
  augment    99.45360    99.60609    99.50693    -0.00009     0.12546    -0.00024
  Kinetic  1103.69516  1103.51961  1103.60740    -0.12336    -0.27490     0.17669
  Fock        0.00000     0.00000     0.00000     0.00000     0.00000     0.00000
  -------------------------------------------------------------------------------------
  Total       0.96935     0.87769     0.91628     0.00000    -0.04668     0.00000
  in kB       7.77804     7.04262     7.35221     0.00000    -0.37453     0.00000
  external pressure =        7.39 kB  Pullay stress =        0.00 kB


 VOLUME and BASIS-vectors are now :
 -----------------------------------------------------------------------------
  energy-cutoff  :      520.00
  volume of cell :      199.67
      direct lattice vectors                 reciprocal lattice vectors
     4.126547669  0.000000000  0.000000000     0.242333321 -0.000016615  0.074095438
     0.000000000  7.170571862  0.001607950     0.000000000  0.139453360  0.024667019
    -2.063273834 -1.193573027  6.747786140     0.000000000 -0.000033231  0.148190876

  length of vectors
     4.126547669  7.170572042  7.156419026     0.253407917  0.141618153  0.148190879


 FORCES acting on ions
    electron-ion (+dipol)            ewald-force                    non-local-force                 convergence-correction
 -----------------------------------------------------------------------------------------------
   -.888E-06 -.444E+00 -.433E-01   0.319E-11 0.365E+00 0.902E-01   0.000E+00 0.594E-01 -.533E-01   -.339E-09 0.121E-01 0.574E-02
   0.888E-06 0.444E+00 0.433E-01   -.316E-11 -.365E+00 -.902E-01   -.867E-18 -.594E-01 0.533E-01   0.339E-09 -.121E-01 -.574E-02
   0.856E-06 0.385E+00 0.374E-01   0.313E-11 -.332E+00 -.958E-01   0.000E+00 -.594E-01 0.535E-01   -.349E-08 0.142E-01 0.519E-02
   -.856E-06 -.385E+00 -.374E-01   -.312E-11 0.332E+00 0.958E-01   -.867E-18 0.594E-01 -.535E-01   0.349E-08 -.142E-01 -.519E-02
   -.245E-11 -.304E-11 0.426E-11   0.339E-14 0.284E-13 0.000E+00   -.678E-20 0.237E-19 0.271E-19   -.394E-14 -.259E-13 0.118E-13
   0.125E-08 0.190E-01 0.583E-02   0.393E-11 -.102E-02 -.953E-02   0.271E-19 -.183E-04 -.440E-04   -.360E-08 -.173E-01 0.357E-02
   -.541E-11 -.278E-11 0.666E-11   0.591E-14 -.142E-13 -.266E-13   0.000E+00 0.136E-19 0.000E+00   -.332E-14 0.190E-14 0.192E-13
   -.126E-08 -.190E-01 -.583E-02   -.395E-11 0.102E-02 0.953E-02   0.000E+00 0.183E-04 0.440E-04   0.360E-08 0.173E-01 -.357E-02
 -----------------------------------------------------------------------------------------------
   -.551E-10 -.489E-10 0.963E-10   0.170E-13 0.431E-13 0.564E-13   -.171E-17 -.693E-17 -.688E-17   -.198E-12 0.162E-14 -.130E-12
 
 
 POSITION                                       TOTAL-FORCE (eV/Angst)
 -----------------------------------------------------------------------------------
      0.00000      4.77908      3.37500         0.000000     -0.006673     -0.000640
      2.06327      3.58735      0.00090        -0.000000      0.006673      0.000640
     -0.00000      0.00202      0.00008        -0.000000      0.007066      0.000339
      2.06327      1.19384      3.37422        -0.000000     -0.007066     -0.000339
      0.00000      0.00114      5.06104         0.000000     -0.000000     -0.000000
      0.00000      2.39053      1.68757         0.000000      0.000636     -0.000172
      2.06327      3.58643      5.06184        -0.000000      0.000000     -0.000000
      2.06327      5.97589      1.68833        -0.000000     -0.000636      0.000172
 -----------------------------------------------------------------------------------
    total drift:                               -0.000000     -0.000000      0.000000


--------------------------------------------------------------------------------------------------------



  FREE ENERGIE OF THE ION-ELECTRON SYSTEM (eV)
  ---------------------------------------------------
  free  energy   TOTEN  =       -74.92017924 eV

  energy  without entropy=      -74.92017924  energy(sigma->0) =      -74.92017924
 


--------------------------------------------------------------------------------------------------------


    POTLOK:  cpu time    1.6684: real time    1.6724


--------------------------------------------------------------------------------------------------------


     LOOP+:  cpu time 1243.0491: real time 1246.0670
    4ORBIT:  cpu time    0.0000: real time    0.0000
 


 total charge     
 
# of ion       s       p       d       f       tot
--------------------------------------------------
    1        2.080   5.876   0.495   6.734  15.184
    2        2.080   5.876   0.495   6.734  15.184
    3        2.080   5.876   0.495   6.732  15.183
    4        2.080   5.876   0.495   6.732  15.183
    5        1.317   2.451   0.000   0.000   3.768
    6        1.317   2.451   0.000   0.000   3.768
    7        1.317   2.451   0.000   0.000   3.768
    8        1.317   2.451   0.000   0.000   3.768
--------------------------------------------------
tot         13.589  33.307   1.978  26.932  75.806

 


 magnetization (x)
 
# of ion       s       p       d       f       tot
--------------------------------------------------
    1        0.007   0.012  -0.087  -6.673  -6.741
    2        0.007   0.012  -0.087  -6.673  -6.741
    3       -0.007  -0.012   0.087   6.671   6.740
    4       -0.007  -0.012   0.087   6.671   6.740
    5       -0.002  -0.023   0.000   0.000  -0.025
    6       -0.000  -0.000   0.000   0.000  -0.000
    7        0.002   0.023   0.000   0.000   0.025
    8       -0.000  -0.000   0.000   0.000  -0.000
--------------------------------------------------
tot          0.000  -0.000   0.000  -0.002  -0.002

 
 BZINTS: Fermi energy:  4.547801; 92.000000 electrons
         Band energy:-549.000348;  BLOECHL correction: -0.003240

 total amount of memory used by VASP MPI-rank0   176702. kBytes
=======================================================================

   base      :      30000. kBytes
   nonlr-proj:       3947. kBytes
   fftplans  :       3872. kBytes
   grid      :       9459. kBytes
   one-center:        196. kBytes
   wavefun   :     129228. kBytes
 
  
  
 General timing and accounting informations for this job:
 ========================================================
  
                  Total CPU time used (sec):     1257.119
                            User time (sec):     1252.269
                          System time (sec):        4.851
                         Elapsed time (sec):     1262.456
  
                   Maximum memory used (kb):      228312.
                   Average memory used (kb):           0.
  
                          Minor page faults:       102055
                          Major page faults:            0
                 Voluntary context switches:         2493
