=========================================
SLURM_JOB_ID = 63461688
SLURM_JOB_NODELIST = lnode12
SLURM_GPUS = 
SLURM_CPUS_ON_NODE = 16
SLURM_JOB_PARTITION = lenovo
SLURM_TASK_PID = 1117505
CUDA_VISIBLE_DEVICES = 
==========================================
 running on   16 total cores
 distrk:  each k-point on   16 cores,    1 groups
 distr:  one band on    4 cores,    4 groups
 using from now: INCAR     
 vasp.5.4.4.18Apr17-6-g9f103f2a35 (build Apr 28 2018 00:24:27) complex          
  
 POSCAR found type information on POSCAR  Fe O 
 POSCAR found :  2 types and      10 ions
 scaLAPACK will be used
 LDA part: xc-table for Pade appr. of Perdew
 POSCAR, INCAR and KPOINTS ok, starting setup
 FFT: planning ...
 WAVECAR not read
 entering main loop
       N       E                     dE             d eps       ncg     rms          rms(c)
DAV:   1     0.142022032618E+04    0.14202E+04   -0.51343E+04 45344   0.217E+03
DAV:   2     0.136121134254E+03   -0.12841E+04   -0.11911E+04 44872   0.626E+02
DAV:   3    -0.732014464065E+02   -0.20932E+03   -0.19403E+03 48756   0.240E+02
DAV:   4    -0.862900634517E+02   -0.13089E+02   -0.12995E+02 48724   0.591E+01
DAV:   5    -0.864752914989E+02   -0.18523E+00   -0.18490E+00 49244   0.800E+00    0.505E+01
DAV:   6    -0.614036868305E+02    0.25072E+02   -0.11830E+02 53940   0.104E+02    0.512E+01
DAV:   7    -0.664336637230E+02   -0.50300E+01   -0.22291E+01 45572   0.309E+01    0.295E+01
DAV:   8    -0.663877642869E+02    0.45899E-01   -0.41280E+00 57208   0.142E+01    0.207E+01
DAV:   9    -0.662229662590E+02    0.16480E+00   -0.19099E+00 47216   0.144E+01    0.963E+00
DAV:  10    -0.663038936160E+02   -0.80927E-01   -0.22245E-01 50032   0.460E+00    0.206E+00
DAV:  11    -0.663067716195E+02   -0.28780E-02   -0.27742E-02 47228   0.108E+00    0.137E+00
DAV:  12    -0.662931133971E+02    0.13658E-01   -0.53286E-02 47284   0.204E+00    0.493E-01
DAV:  13    -0.662941502729E+02   -0.10369E-02   -0.21062E-02 47436   0.771E-01    0.289E-01
DAV:  14    -0.662940383348E+02    0.11194E-03   -0.23457E-03 46948   0.293E-01    0.240E-01
DAV:  15    -0.662940927144E+02   -0.54380E-04   -0.91619E-05 48824   0.654E-02    0.431E-02
DAV:  16    -0.662940799887E+02    0.12726E-04   -0.72012E-05 51948   0.623E-02    0.349E-02
DAV:  17    -0.662940767475E+02    0.32412E-05   -0.38451E-05 55056   0.543E-02    0.159E-02
DAV:  18    -0.662940764436E+02    0.30388E-06   -0.10503E-05 47084   0.253E-02    0.111E-02
DAV:  19    -0.662940769967E+02   -0.55315E-06   -0.89004E-07 44452   0.517E-03    0.340E-03
DAV:  20    -0.662940770402E+02   -0.43477E-07   -0.78636E-08 25772   0.264E-03
   1 F= -.66294077E+02 E0= -.66294077E+02  d E =0.000000E+00  mag=     0.0000
