       N       E                     dE             d eps       ncg     rms          rms(c)
DAV:   1     0.128110954793E+04    0.12811E+04   -0.31116E+04 57816   0.355E+03
DAV:   2     0.339815471152E+03   -0.94129E+03   -0.85091E+03 66112   0.706E+02
DAV:   3    -0.926132510138E+01   -0.34908E+03   -0.33876E+03 76704   0.366E+02
DAV:   4    -0.755629192433E+02   -0.66302E+02   -0.64711E+02 93320   0.149E+02
DAV:   5    -0.816927751004E+02   -0.61299E+01   -0.57181E+01 95240   0.494E+01    0.373E+01
DAV:   6    -0.713704388736E+02    0.10322E+02   -0.30184E+02 73640   0.162E+02    0.504E+01
DAV:   7    -0.754412769582E+02   -0.40708E+01   -0.15770E+02 70272   0.150E+02    0.242E+01
DAV:   8    -0.825963130733E+02   -0.71550E+01   -0.34835E+01 88288   0.392E+01    0.106E+01
DAV:   9    -0.831160118755E+02   -0.51970E+00   -0.10216E+01 82312   0.252E+01    0.777E+00
DAV:  10    -0.833071414152E+02   -0.19113E+00   -0.16602E+00 91296   0.108E+01    0.739E+00
DAV:  11    -0.832252723073E+02    0.81869E-01   -0.50067E-01 83016   0.754E+00    0.467E+00
DAV:  12    -0.833025056293E+02   -0.77233E-01   -0.64348E-01 80320   0.655E+00    0.162E+00
DAV:  13    -0.833414631859E+02   -0.38958E-01   -0.12373E-01 91528   0.303E+00    0.150E+00
DAV:  14    -0.833616891185E+02   -0.20226E-01   -0.11764E-01 88144   0.239E+00    0.115E+00
DAV:  15    -0.833633843910E+02   -0.16953E-02   -0.17497E-02 90664   0.134E+00    0.437E-01
DAV:  16    -0.833630753048E+02    0.30909E-03   -0.61414E-03 90952   0.611E-01    0.163E-01
DAV:  17    -0.833634255093E+02   -0.35020E-03   -0.27797E-03 88584   0.365E-01    0.131E-01
DAV:  18    -0.833634558466E+02   -0.30337E-04   -0.40838E-04 93416   0.208E-01    0.105E-01
DAV:  19    -0.833634361837E+02    0.19663E-04   -0.11664E-04 95416   0.121E-01    0.334E-02
DAV:  20    -0.833634426770E+02   -0.64933E-05   -0.44336E-05 96096   0.558E-02    0.208E-02
DAV:  21    -0.833634424552E+02    0.22176E-06   -0.63801E-06 56240   0.340E-02
   1 F= -.83363442E+02 E0= -.83363442E+02  d E =0.000000E+00  mag=     0.0004
