       N       E                     dE             d eps       ncg     rms          rms(c)
DAV:   1     0.143167096346E+03    0.14317E+03   -0.99703E+03 48492   0.256E+03
DAV:   2    -0.541878994770E+01   -0.14859E+03   -0.13104E+03 43200   0.297E+02
DAV:   3    -0.197356525122E+02   -0.14317E+02   -0.13747E+02 44840   0.971E+01
DAV:   4    -0.204735147957E+02   -0.73786E+00   -0.71900E+00 63212   0.198E+01
DAV:   5    -0.204977976161E+02   -0.24283E-01   -0.24204E-01 53560   0.274E+00    0.186E+01
DAV:   6    -0.259229258966E+02   -0.54251E+01   -0.10255E+02 59472   0.110E+02    0.282E+01
DAV:   7    -0.208219397738E+02    0.51010E+01   -0.31013E+01 49936   0.867E+01    0.105E+01
DAV:   8    -0.209140503045E+02   -0.92111E-01   -0.13305E+00 55032   0.998E+00    0.516E+00
DAV:   9    -0.209222120110E+02   -0.81617E-02   -0.15265E+00 62252   0.106E+01    0.280E+00
DAV:  10    -0.208623700695E+02    0.59842E-01   -0.22242E-01 55984   0.421E+00    0.107E+00
DAV:  11    -0.208557369591E+02    0.66331E-02   -0.16687E-02 57172   0.128E+00    0.855E-01
DAV:  12    -0.208570553220E+02   -0.13184E-02   -0.22932E-02 60192   0.140E+00    0.366E-01
DAV:  13    -0.208573098029E+02   -0.25448E-03   -0.19264E-03 57912   0.289E-01    0.242E-01
DAV:  14    -0.208573745146E+02   -0.64712E-04   -0.24823E-03 58176   0.454E-01    0.104E-01
DAV:  15    -0.208572744265E+02    0.10009E-03   -0.21750E-04 58448   0.110E-01    0.501E-02
DAV:  16    -0.208572992757E+02   -0.24849E-04   -0.30910E-05 58112   0.478E-02    0.225E-02
DAV:  17    -0.208572992788E+02   -0.30714E-08   -0.34600E-06 64192   0.138E-02    0.994E-03
DAV:  18    -0.208573001686E+02   -0.88975E-06   -0.17231E-06 57168   0.106E-02    0.786E-03
DAV:  19    -0.208572993363E+02    0.83229E-06   -0.44563E-07 52780   0.612E-03    0.202E-03
DAV:  20    -0.208572997526E+02   -0.41631E-06   -0.63497E-08 29756   0.225E-03    0.627E-04
DAV:  21    -0.208572996635E+02    0.89120E-07   -0.32814E-08 22104   0.140E-03
   1 F= -.20857300E+02 E0= -.20857300E+02  d E =0.000000E+00  mag=     6.9829
