=========================================
SLURM_JOB_ID = 63601883
SLURM_JOB_NODELIST = lnode32
SLURM_GPUS = 
SLURM_CPUS_ON_NODE = 8
SLURM_JOB_PARTITION = lenovo
SLURM_TASK_PID = 2341217
CUDA_VISIBLE_DEVICES = 
==========================================
 running on    8 total cores
 distrk:  each k-point on    8 cores,    1 groups
 distr:  one band on    4 cores,    2 groups
 using from now: INCAR     
 vasp.5.4.4.18Apr17-6-g9f103f2a35 (build Apr 28 2018 00:24:27) complex          
  
 POSCAR found type information on POSCAR  Ni
 POSCAR found :  1 types and       4 ions
 scaLAPACK will be used
 LDA part: xc-table for Pade appr. of Perdew
 WARNING: stress and forces are not correct
 POSCAR, INCAR and KPOINTS ok, starting setup
 FFT: planning ...
 WAVECAR not read
 charge-density read from file: unknown                                 
 magnetization density read from file 1
 entering main loop
       N       E                     dE             d eps       ncg     rms          rms(c)
DAV:   1     0.731529222050E+03    0.73153E+03   -0.34558E+04  4376   0.160E+03
DAV:   2     0.158700164643E+02   -0.71566E+03   -0.67895E+03  3984   0.522E+02
DAV:   3    -0.229383122683E+02   -0.38808E+02   -0.36585E+02  4240   0.137E+02
DAV:   4    -0.235127659336E+02   -0.57445E+00   -0.57372E+00  4224   0.170E+01
DAV:   5    -0.235246520208E+02   -0.11886E-01   -0.11886E-01  4344   0.236E+00
DAV:   6    -0.235250825713E+02   -0.43055E-03   -0.43055E-03  4488   0.440E-01
DAV:   7    -0.235250985737E+02   -0.16002E-04   -0.16003E-04  4272   0.791E-02
DAV:   8    -0.235250993239E+02   -0.75018E-06   -0.74915E-06  3880   0.169E-02
   1 F= -.23525099E+02 E0= -.23456428E+02  d E =-.137343E+00  mag=     2.3812
 writing wavefunctions
