       N       E                     dE             d eps       ncg     rms          rms(c)
DAV:   1     0.148690309248E+03    0.14869E+03   -0.97015E+03  1848   0.233E+03
DAV:   2     0.138335258135E+01   -0.14731E+03   -0.13174E+03  1736   0.265E+02
DAV:   3    -0.150442196617E+02   -0.16428E+02   -0.15882E+02  1912   0.960E+01
DAV:   4    -0.159875601702E+02   -0.94334E+00   -0.92491E+00  2560   0.206E+01
DAV:   5    -0.160327934993E+02   -0.45233E-01   -0.45105E-01  2368   0.358E+00    0.132E+01
DAV:   6    -0.202058480158E+02   -0.41731E+01   -0.46434E+01  2328   0.679E+01    0.177E+01
DAV:   7    -0.190860266088E+02    0.11198E+01   -0.28775E+00  1952   0.388E+01    0.657E+00
DAV:   8    -0.187616246210E+02    0.32440E+00   -0.14301E+00  2708   0.142E+01    0.253E+00
DAV:   9    -0.188332306985E+02   -0.71606E-01   -0.13632E+00  2208   0.984E+00    0.333E+00
DAV:  10    -0.187490264019E+02    0.84204E-01   -0.79896E-01  2080   0.736E+00    0.104E+00
DAV:  11    -0.187613776492E+02   -0.12351E-01   -0.19021E-02  2540   0.983E-01    0.537E-01
DAV:  12    -0.187600183324E+02    0.13593E-02   -0.50315E-03  2484   0.677E-01    0.511E-01
DAV:  13    -0.187582999842E+02    0.17183E-02   -0.46035E-03  2412   0.569E-01    0.268E-01
DAV:  14    -0.187580445231E+02    0.25546E-03   -0.13506E-03  2632   0.301E-01    0.158E-01
DAV:  15    -0.187581127132E+02   -0.68190E-04   -0.20710E-03  2108   0.381E-01    0.108E-02
DAV:  16    -0.187581133539E+02   -0.64063E-06   -0.91535E-05  2472   0.486E-02    0.101E-02
DAV:  17    -0.187581127857E+02    0.56818E-06   -0.34926E-06  2428   0.890E-03    0.911E-03
DAV:  18    -0.187581205516E+02   -0.77659E-05   -0.10816E-06  2456   0.824E-03    0.105E-02
DAV:  19    -0.187581063791E+02    0.14172E-04   -0.23124E-06  2028   0.129E-02    0.423E-03
DAV:  20    -0.187581006585E+02    0.57206E-05   -0.60068E-07  1768   0.631E-03    0.194E-03
DAV:  21    -0.187580995748E+02    0.10837E-05   -0.63246E-08  1028   0.217E-03    0.152E-03
DAV:  22    -0.187581012004E+02   -0.16256E-05   -0.56815E-08   976   0.266E-03    0.762E-04
DAV:  23    -0.187581021321E+02   -0.93163E-06   -0.24938E-08   932   0.137E-03    0.305E-04
DAV:  24    -0.187581026110E+02   -0.47890E-06   -0.90377E-09   932   0.788E-04    0.100E-04
DAV:  25    -0.187581027071E+02   -0.96094E-07   -0.26866E-09   908   0.523E-04
   1 F= -.18758103E+02 E0= -.18758103E+02  d E =0.000000E+00  mag=     6.9956
