       N       E                     dE             d eps       ncg     rms          rms(c)
DAV:   1     0.729753268025E+03    0.72975E+03   -0.34566E+04  4376   0.160E+03
DAV:   2     0.141015319415E+02   -0.71565E+03   -0.67883E+03  3992   0.522E+02
DAV:   3    -0.245422013361E+02   -0.38644E+02   -0.36446E+02  4240   0.137E+02
DAV:   4    -0.251123415934E+02   -0.57014E+00   -0.56942E+00  4240   0.170E+01
DAV:   5    -0.251241120178E+02   -0.11770E-01   -0.11770E-01  4320   0.235E+00
DAV:   6    -0.251245373971E+02   -0.42538E-03   -0.42538E-03  4504   0.438E-01
DAV:   7    -0.251245530916E+02   -0.15695E-04   -0.15694E-04  4272   0.784E-02
DAV:   8    -0.251245538227E+02   -0.73107E-06   -0.73184E-06  3896   0.167E-02
   1 F= -.25124554E+02 E0= -.25056117E+02  d E =-.136874E+00  mag=     2.3812
