=========================================
SLURM_JOB_ID = 63601028
SLURM_JOB_NODELIST = lnode47
SLURM_GPUS = 
SLURM_CPUS_ON_NODE = 8
SLURM_JOB_PARTITION = lenovo
SLURM_TASK_PID = 3334152
CUDA_VISIBLE_DEVICES = 
==========================================
 running on    8 total cores
 distrk:  each k-point on    8 cores,    1 groups
 distr:  one band on    4 cores,    2 groups
 using from now: INCAR     
 vasp.5.4.4.18Apr17-6-g9f103f2a35 (build Apr 28 2018 00:24:27) complex          
  
 POSCAR found type information on POSCAR  Ni O 
 POSCAR found :  2 types and      32 ions
 scaLAPACK will be used

 ----------------------------------------------------------------------------- 
|                                                                             |
|  ADVICE TO THIS USER RUNNING 'VASP/VAMP'   (HEAR YOUR MASTER'S VOICE ...):  |
|                                                                             |
|      You have a (more or less) 'large supercell' and for larger cells       |
|      it might be more efficient to use real space projection opertators     |
|      So try LREAL= Auto  in the INCAR   file.                               |
|      Mind:          For very  accurate calculation you might also keep the  |
|      reciprocal projection scheme          (i.e. LREAL=.FALSE.)             |
|                                                                             |
 ----------------------------------------------------------------------------- 

 LDA part: xc-table for Pade appr. of Perdew
 WARNING: stress and forces are not correct
 POSCAR, INCAR and KPOINTS ok, starting setup
 FFT: planning ...
 WAVECAR not read
 charge-density read from file: unknown                                 
 magnetization density read from file 1
 entering main loop
       N       E                     dE             d eps       ncg     rms          rms(c)
DAV:   1     0.518960903217E+04    0.51896E+04   -0.18428E+05 10120   0.190E+03
DAV:   2     0.414343982571E+03   -0.47753E+04   -0.45437E+04  8800   0.640E+02
DAV:   3    -0.136210390151E+03   -0.55055E+03   -0.50313E+03  9432   0.228E+02
DAV:   4    -0.166941882593E+03   -0.30731E+02   -0.30011E+02  9744   0.499E+01
DAV:   5    -0.167537711853E+03   -0.59583E+00   -0.59358E+00  9616   0.774E+00
DAV:   6    -0.167553652055E+03   -0.15940E-01   -0.15925E-01  9760   0.123E+00
DAV:   7    -0.167554300994E+03   -0.64894E-03   -0.64870E-03  9964   0.257E-01
DAV:   8    -0.167554331773E+03   -0.30779E-04   -0.30775E-04  9824   0.535E-02
DAV:   9    -0.167554333492E+03   -0.17188E-05   -0.17179E-05  9760   0.128E-02
DAV:  10    -0.167554333559E+03   -0.66691E-07   -0.66987E-07  5936   0.262E-03
   1 F= -.16755433E+03 E0= -.16731200E+03  d E =-.484675E+00  mag=    11.6748
 writing wavefunctions
