       N       E                     dE             d eps       ncg     rms          rms(c)
DAV:   1     0.196818219676E+03    0.19682E+03   -0.11899E+04  3784   0.135E+03
DAV:   2    -0.730805299664E+01   -0.20413E+03   -0.19345E+03  3416   0.352E+02
DAV:   3    -0.158369924083E+02   -0.85289E+01   -0.84990E+01  3632   0.801E+01
DAV:   4    -0.159022657646E+02   -0.65273E-01   -0.65271E-01  3632   0.673E+00
DAV:   5    -0.159032342526E+02   -0.96849E-03   -0.96848E-03  3720   0.759E-01
DAV:   6    -0.159032560106E+02   -0.21758E-04   -0.21760E-04  3648   0.104E-01
DAV:   7    -0.159032565959E+02   -0.58536E-06   -0.58446E-06  2960   0.165E-02
   1 F= -.15903257E+02 E0= -.15882884E+02  d E =-.407449E-01  mag=     4.4316
