unknown system                          
   1.00000000000000     
     1.609142    1.266876    1.266876
     1.609142   -1.266876   -1.266876
     0.000000    5.618499   -5.618499
   Fe
     4
Direct
  0.000000  0.000000  0.502050
  0.500000  0.500000  0.747950
  0.000000  0.000000  0.002050
  0.500000  0.500000  0.247950
 
   36   36  120
 0.27044457679E+04 0.32938768182E+04 0.53262604069E+03 0.68007169942E+03 0.90752152272E+03
 0.79580038399E+03 0.57281574947E+03 0.37665104743E+03 0.23883437356E+03 0.15065051379E+03
 0.96429202015E+02 0.63546461852E+02 0.43574190845E+02 0.31365560653E+02 0.23809652692E+02
 0.19105698972E+02 0.16400986971E+02 0.14950680415E+02 0.14470616742E+02 0.14950680415E+02
 0.16400986971E+02 0.19105698972E+02 0.23809652692E+02 0.31365560653E+02 0.43574190845E+02
 0.63546461852E+02 0.96429202015E+02 0.15065051379E+03 0.23883437356E+03 0.37665104743E+03
 0.57281574947E+03 0.79580038399E+03 0.90752152272E+03 0.68007169942E+03 0.53262604069E+03
 0.32938768182E+04 0.32938768182E+04 0.18733013776E+04 0.46995557641E+03 0.70362814868E+03
 0.90792521540E+03 0.79721811110E+03 0.57807218438E+03 0.38265044694E+03 0.24380296340E+03
 0.15423678941E+03 0.98846112982E+02 0.65121205079E+02 0.44590208678E+02 0.32007634949E+02
 0.24218562426E+02 0.19327249698E+02 0.16520506209E+02 0.14973441339E+02 0.14402912645E+02
 0.14774783705E+02 0.16093932853E+02 0.18616923885E+02 0.22976794421E+02 0.30025804372E+02
 0.41358984637E+02 0.59844386778E+02 0.90153203293E+02 0.14000196689E+03 0.22099907983E+03
 0.34813396005E+03 0.53207021955E+03 0.75292596329E+03 0.90445776125E+03 0.77734519425E+03
 0.45455091780E+03 0.13816030535E+04 0.53262604069E+03 0.46995557641E+03 0.54610120559E+03
 0.82513364597E+03 0.90149405631E+03 0.75733066530E+03 0.54695168803E+03 0.36486590750E+03
 0.23488523373E+03 0.15006029772E+03 0.96986089513E+02 0.64324748829E+02 0.44263830117E+02
 0.31873394640E+02 0.24153284038E+02 0.19265008197E+02 0.16438450839E+02 0.14840914342E+02
 0.14202190391E+02 0.14459966189E+02 0.15622408398E+02 0.17899130214E+02 0.21469028470E+02
 0.28142812770E+02 0.38226003668E+02 0.54552034149E+02 0.81040668370E+02 0.12420868421E+03
 0.19383169632E+03 0.30292752696E+03 0.46301663182E+03 0.66781458088E+03 0.85764946206E+03
 0.89243351766E+03 0.67027620980E+03 0.45455091780E+03 0.68007169942E+03 0.70362814868E+03
 0.82513364597E+03 0.90774135178E+03 0.84519296317E+03 0.67501412723E+03 0.48483947360E+03
 0.32700578866E+03 0.21390263367E+03 0.13892857193E+03 0.91168319995E+02 0.61276659783E+02
 0.42638706822E+02 0.30973158361E+02 0.23618373814E+02 0.18920111442E+02 0.16158805762E+02
 0.14558576761E+02 0.13880204451E+02 0.14026364272E+02 0.15019982671E+02 0.17006414420E+02
 0.20221666762E+02 0.25896243817E+02 0.34542209490E+02 0.48345659018E+02 0.70401453594E+02
 0.10579927174E+03 0.16207881637E+03 0.24948431195E+03 0.37839350619E+03 0.55088310009E+03
 0.74244087515E+03 0.88437543516E+03 0.89243351766E+03 0.77734519425E+03 0.90752152272E+03
 0.90792521540E+03 0.90149405631E+03 0.84519296317E+03 0.72122190002E+03 0.55966736187E+03
 0.40313766633E+03 0.27654136979E+03 0.18489938551E+03 0.12282917829E+03 0.82345573637E+02
 0.56426614383E+02 0.39924495280E+02 0.29412789739E+02 0.22664716595E+02 0.18316773856E+02
 0.15695968421E+02 0.14145237119E+02 0.13450619711E+02 0.13503334583E+02 0.14318753015E+02
 0.16007773718E+02 0.18805914845E+02 0.23477646663E+02 0.30664152697E+02 0.41886586750E+02
 0.59493859745E+02 0.87149124426E+02 0.13026685087E+03 0.19610177390E+03 0.29257928970E+03
 0.42416865331E+03 0.58349332661E+03 0.74244087515E+03 0.85764946206E+03 0.90445776125E+03
 0.79580038399E+03 0.79721811110E+03 0.75733066530E+03 0.67501412723E+03 0.55966736187E+03
 0.43286164715E+03 0.31631406845E+03 0.22219623239E+03 0.15269120639E+03 0.10430909158E+03
 0.71809139469E+02 0.50426475913E+02 0.36451015008E+02 0.27358217552E+02 0.21048822335E+02
 0.17495473066E+02 0.15080996099E+02 0.13623568486E+02 0.12936385968E+02 0.12917177614E+02
 0.13558481295E+02 0.14963613359E+02 0.17305707268E+02 0.20782114436E+02 0.26878526163E+02
 0.35705463320E+02 0.49270557659E+02 0.70029940624E+02 0.10160053940E+03 0.14870058360E+03
 0.21656837927E+03 0.30893019011E+03 0.42416865331E+03 0.55088310009E+03 0.66781458088E+03
 0.75292596329E+03 0.57281574947E+03 0.57807218438E+03 0.54695168803E+03 0.48483947360E+03
 0.40313766633E+03 0.31631406845E+03 0.23671338460E+03 0.17126844727E+03 0.12151204846E+03
 0.85707817174E+02 0.60844994482E+02 0.43959642887E+02 0.32589553959E+02 0.24999043846E+02
 0.19705692840E+02 0.16513331289E+02 0.14352037929E+02 0.13020771629E+02 0.12364562258E+02
 0.12290007621E+02 0.12780154268E+02 0.13916719526E+02 0.15824097983E+02 0.18723839059E+02
 0.23362537836E+02 0.30157745102E+02 0.40299079360E+02 0.55400379554E+02 0.77715881306E+02
 0.11008577491E+03 0.15560980574E+03 0.21656837927E+03 0.29257928970E+03 0.37839350619E+03
 0.46301663182E+03 0.53207021955E+03 0.37665104743E+03 0.38265044694E+03 0.36486590750E+03
 0.32700578866E+03 0.27654136979E+03 0.22219623239E+03 0.17126844727E+03 0.12809801523E+03
 0.94109848996E+02 0.68736524187E+02 0.50463095893E+02 0.37603870587E+02 0.28685106063E+02
 0.22518653349E+02 0.18218515341E+02 0.15436101461E+02 0.13553690089E+02 0.12365546444E+02
 0.11763735453E+02 0.11643603933E+02 0.12018099416E+02 0.12903172823E+02 0.14438176062E+02
 0.16750673835E+02 0.20030120790E+02 0.25394154346E+02 0.32808499043E+02 0.43551909611E+02
 0.58916385201E+02 0.80547320300E+02 0.11008577491E+03 0.14870058360E+03 0.19610177390E+03
 0.24948431195E+03 0.30292752696E+03 0.34813396005E+03 0.23883437356E+03 0.24380296340E+03
 0.23488523373E+03 0.21390263367E+03 0.18489938551E+03 0.15269120639E+03 0.12151204846E+03
 0.94109848996E+02 0.71704475984E+02 0.54294373996E+02 0.41287757250E+02 0.31782745986E+02
 0.24975864178E+02 0.19867170558E+02 0.16668359543E+02 0.14332618205E+02 0.12718787572E+02
 0.11696661399E+02 0.11145475248E+02 0.11012336355E+02 0.11277934868E+02 0.11971719960E+02
 0.13166208200E+02 0.14984037395E+02 0.17573913756E+02 0.21031815466E+02 0.26799242280E+02
 0.34301450400E+02 0.44733122574E+02 0.58916385201E+02 0.77715881306E+02 0.10160053940E+03
 0.13026685087E+03 0.16207881637E+03 0.19383169632E+03 0.22099907983E+03 0.15065051379E+03
 0.15423678941E+03 0.15006029772E+03 0.13892857193E+03 0.12282917829E+03 0.10430909158E+03
 0.85707817174E+02 0.68736524187E+02 0.54294373996E+02 0.42646936480E+02 0.33577328557E+02
 0.26726433858E+02 0.21174410011E+02 0.17794641560E+02 0.15165833981E+02 0.13244753425E+02
 0.11899918432E+02 0.11031443575E+02 0.10543950438E+02 0.10405645207E+02 0.10589946549E+02
 0.11125545935E+02 0.12045312163E+02 0.13449596718E+02 0.15434443218E+02 0.18135187084E+02
 0.22066406948E+02 0.27303104072E+02 0.34301450400E+02 0.43551909611E+02 0.55400379554E+02
 0.70029940624E+02 0.87149124426E+02 0.10579927174E+03 0.12420868421E+03 0.14000196689E+03
 0.96429202015E+02 0.98846112982E+02 0.96986089513E+02 0.91168319995E+02 0.82345573637E+02
 0.71809139469E+02 0.60844994482E+02 0.50463095893E+02 0.41287757250E+02 0.33577328557E+02
 0.27364090649E+02 0.22475650548E+02 0.18576827017E+02 0.15861721981E+02 0.13771660732E+02
 0.12216955192E+02 0.11122125427E+02 0.10389482786E+02 0.99747986404E+01 0.98346552269E+01
 0.99681705072E+01 0.10372384156E+02 0.11086406711E+02 0.12150699510E+02 0.13659844943E+02
 0.15688733820E+02 0.18333510338E+02 0.22066406948E+02 0.26799242280E+02 0.32808499043E+02
 0.40299079360E+02 0.49270557659E+02 0.59493859745E+02 0.70401453594E+02 0.81040668370E+02
 0.90153203293E+02 0.63546461852E+02 0.65121205079E+02 0.64324748829E+02 0.61276659783E+02
 0.56426614383E+02 0.50426475913E+02 0.43959642887E+02 0.37603870587E+02 0.31782745986E+02
 0.26726433858E+02 0.22475650548E+02 0.18856170407E+02 0.16256026183E+02 0.14154943067E+02
 0.12514971915E+02 0.11289050961E+02 0.10400143437E+02 0.98001238580E+01 0.94458222634E+01
 0.93204468928E+01 0.94097291979E+01 0.97232325797E+01 0.10271879361E+02 0.11091424193E+02
 0.12221099525E+02 0.13737022630E+02 0.15688733820E+02 0.18135187084E+02 0.21031815466E+02
 0.25394154346E+02 0.30157745102E+02 0.35705463320E+02 0.41886586750E+02 0.48345659018E+02
 0.54552034149E+02 0.59844386778E+02 0.43574190845E+02 0.44590208678E+02 0.44263830117E+02
 0.42638706822E+02 0.39924495280E+02 0.36451015008E+02 0.32589553959E+02 0.28685106063E+02
 0.24975864178E+02 0.21174410011E+02 0.18576827017E+02 0.16256026183E+02 0.14294858513E+02
 0.12692628454E+02 0.11434018755E+02 0.10469535406E+02 0.97599448741E+01 0.92696245586E+01
 0.89778649060E+01 0.88670119033E+01 0.89328097410E+01 0.91737555940E+01 0.96027046229E+01
 0.10234546559E+02 0.11097922381E+02 0.12221099525E+02 0.13659844943E+02 0.15434443218E+02
 0.17573913756E+02 0.20030120790E+02 0.23362537836E+02 0.26878526163E+02 0.30664152697E+02
 0.34542209490E+02 0.38226003668E+02 0.41358984637E+02 0.31365560653E+02 0.32007634949E+02
 0.31873394640E+02 0.30973158361E+02 0.29412789739E+02 0.27358217552E+02 0.24999043846E+02
 0.22518653349E+02 0.19867170558E+02 0.17794641560E+02 0.15861721981E+02 0.14154943067E+02
 0.12692628454E+02 0.11490116248E+02 0.10522810342E+02 0.97682065751E+01 0.92019615182E+01
 0.88078370684E+01 0.85700712136E+01 0.84807914434E+01 0.85332813468E+01 0.87286229820E+01
 0.90691634626E+01 0.95669722670E+01 0.10234546559E+02 0.11091424193E+02 0.12150699510E+02
 0.13449596718E+02 0.14984037395E+02 0.16750673835E+02 0.18723839059E+02 0.20782114436E+02
 0.23477646663E+02 0.25896243817E+02 0.28142812770E+02 0.30025804372E+02 0.23809652692E+02
 0.24218562426E+02 0.24153284038E+02 0.23618373814E+02 0.22664716595E+02 0.21048822335E+02
 0.19705692840E+02 0.18218515341E+02 0.16668359543E+02 0.15165833981E+02 0.13771660732E+02
 0.12514971915E+02 0.11434018755E+02 0.10522810342E+02 0.97763742171E+01 0.91827045919E+01
 0.87337810301E+01 0.84187890936E+01 0.82310732929E+01 0.81637183235E+01 0.82143854616E+01
 0.83807518692E+01 0.86649137536E+01 0.90691634626E+01 0.96027046229E+01 0.10271879361E+02
 0.11086406711E+02 0.12045312163E+02 0.13166208200E+02 0.14438176062E+02 0.15824097983E+02
 0.17305707268E+02 0.18805914845E+02 0.20221666762E+02 0.21469028470E+02 0.22976794421E+02
 0.19105698972E+02 0.19327249698E+02 0.19265008197E+02 0.18920111442E+02 0.18316773856E+02
 0.17495473066E+02 0.16513331289E+02 0.15436101461E+02 0.14332618205E+02 0.13244753425E+02
 0.12216955192E+02 0.11289050961E+02 0.10469535406E+02 0.97682065751E+01 0.91827045919E+01
 0.87135663677E+01 0.83564664893E+01 0.81082931652E+01 0.79639391326E+01 0.79210815954E+01
 0.79766156125E+01 0.81304682397E+01 0.83807518692E+01 0.87286229820E+01 0.91737555940E+01
 0.97232325797E+01 0.10372384156E+02 0.11125545935E+02 0.11971719960E+02 0.12903172823E+02
 0.13916719526E+02 0.14963613359E+02 0.16007773718E+02 0.17006414420E+02 0.17899130214E+02
 0.18616923885E+02 0.16400986971E+02 0.16520506209E+02 0.16438450839E+02 0.16158805762E+02
 0.15695968421E+02 0.15080996099E+02 0.14352037929E+02 0.13553690089E+02 0.12718787572E+02
 0.11899918432E+02 0.11122125427E+02 0.10400143437E+02 0.97599448741E+01 0.92019615182E+01
 0.87337810301E+01 0.83564664893E+01 0.80720124294E+01 0.78777467860E+01 0.77730149742E+01
 0.77549982867E+01 0.78235753233E+01 0.79766156125E+01 0.82143854616E+01 0.85332813468E+01
 0.89328097410E+01 0.94097291979E+01 0.99681705072E+01 0.10589946549E+02 0.11277934868E+02
 0.12018099416E+02 0.12780154268E+02 0.13558481295E+02 0.14318753015E+02 0.15019982671E+02
 0.15622408398E+02 0.16093932853E+02 0.14950680415E+02 0.14973441339E+02 0.14840914342E+02
 0.14558576761E+02 0.14145237119E+02 0.13623568486E+02 0.13020771629E+02 0.12365546444E+02
 0.11696661399E+02 0.11031443575E+02 0.10389482786E+02 0.98001238580E+01 0.92696245586E+01
 0.88078370684E+01 0.84187890936E+01 0.81082931652E+01 0.78777467860E+01 0.77278548047E+01
 0.76577560720E+01 0.76671125252E+01 0.77549982867E+01 0.79210815954E+01 0.81637183235E+01
 0.84807914434E+01 0.88670119033E+01 0.93204468928E+01 0.98346552269E+01 0.10405645207E+02
 0.11012336355E+02 0.11643603933E+02 0.12290007621E+02 0.12917177614E+02 0.13503334583E+02
 0.14026364272E+02 0.14459966189E+02 0.14774783705E+02 0.14470616742E+02 0.14402912645E+02
 0.14202190391E+02 0.13880204451E+02 0.13450619711E+02 0.12936385968E+02 0.12364562258E+02
 0.11763735453E+02 0.11145475248E+02 0.10543950438E+02 0.99747986404E+01 0.94458222634E+01
 0.89778649060E+01 0.85700712136E+01 0.82310732929E+01 0.79639391326E+01 0.77730149742E+01
 0.76577560720E+01 0.76197396903E+01 0.76577560720E+01 0.77730149742E+01 0.79639391326E+01
 0.82310732929E+01 0.85700712136E+01 0.89778649060E+01 0.94458222634E+01 0.99747986404E+01
 0.10543950438E+02 0.11145475248E+02 0.11763735453E+02 0.12364562258E+02 0.12936385968E+02
 0.13450619711E+02 0.13880204451E+02 0.14202190391E+02 0.14402912645E+02 0.14950680415E+02
 0.14774783705E+02 0.14459966189E+02 0.14026364272E+02 0.13503334583E+02 0.12917177614E+02
 0.12290007621E+02 0.11643603933E+02 0.11012336355E+02 0.10405645207E+02 0.98346552269E+01
 0.93204468928E+01 0.88670119033E+01 0.84807914434E+01 0.81637183235E+01 0.79210815954E+01
 0.77549982867E+01 0.76671125252E+01 0.76577560720E+01 0.77278548047E+01 0.78777467860E+01
 0.81082931652E+01 0.84187890936E+01 0.88078370684E+01 0.92696245586E+01 0.98001238580E+01
 0.10389482786E+02 0.11031443575E+02 0.11696661399E+02 0.12365546444E+02 0.13020771629E+02
 0.13623568486E+02 0.14145237119E+02 0.14558576761E+02 0.14840914342E+02 0.14973441339E+02
 0.16400986971E+02 0.16093932853E+02 0.15622408398E+02 0.15019982671E+02 0.14318753015E+02
 0.13558481295E+02 0.12780154268E+02 0.12018099416E+02 0.11277934868E+02 0.10589946549E+02
 0.99681705072E+01 0.94097291979E+01 0.89328097410E+01 0.85332813468E+01 0.82143854616E+01
 0.79766156125E+01 0.78235753233E+01 0.77549982867E+01 0.77730149742E+01 0.78777467860E+01
 0.80720124294E+01 0.83564664893E+01 0.87337810301E+01 0.92019615182E+01 0.97599448741E+01
 0.10400143437E+02 0.11122125427E+02 0.11899918432E+02 0.12718787572E+02 0.13553690089E+02
 0.14352037929E+02 0.15080996099E+02 0.15695968421E+02 0.16158805762E+02 0.16438450839E+02
 0.16520506209E+02 0.19105698972E+02 0.18616923885E+02 0.17899130214E+02 0.17006414420E+02
 0.16007773718E+02 0.14963613359E+02 0.13916719526E+02 0.12903172823E+02 0.11971719960E+02
 0.11125545935E+02 0.10372384156E+02 0.97232325797E+01 0.91737555940E+01 0.87286229820E+01
 0.83807518692E+01 0.81304682397E+01 0.79766156125E+01 0.79210815954E+01 0.79639391326E+01
 0.81082931652E+01 0.83564664893E+01 0.87135663677E+01 0.91827045919E+01 0.97682065751E+01
 0.10469535406E+02 0.11289050961E+02 0.12216955192E+02 0.13244753425E+02 0.14332618205E+02
 0.15436101461E+02 0.16513331289E+02 0.17495473066E+02 0.18316773856E+02 0.18920111442E+02
 0.19265008197E+02 0.19327249698E+02 0.23809652692E+02 0.22976794421E+02 0.21469028470E+02
 0.20221666762E+02 0.18805914845E+02 0.17305707268E+02 0.15824097983E+02 0.14438176062E+02
 0.13166208200E+02 0.12045312163E+02 0.11086406711E+02 0.10271879361E+02 0.96027046229E+01
 0.90691634626E+01 0.86649137536E+01 0.83807518692E+01 0.82143854616E+01 0.81637183235E+01
 0.82310732929E+01 0.84187890936E+01 0.87337810301E+01 0.91827045919E+01 0.97763742171E+01
 0.10522810342E+02 0.11434018755E+02 0.12514971915E+02 0.13771660732E+02 0.15165833981E+02
 0.16668359543E+02 0.18218515341E+02 0.19705692840E+02 0.21048822335E+02 0.22664716595E+02
 0.23618373814E+02 0.24153284038E+02 0.24218562426E+02 0.31365560653E+02 0.30025804372E+02
 0.28142812770E+02 0.25896243817E+02 0.23477646663E+02 0.20782114436E+02 0.18723839059E+02
 0.16750673835E+02 0.14984037395E+02 0.13449596718E+02 0.12150699510E+02 0.11091424193E+02
 0.10234546559E+02 0.95669722670E+01 0.90691634626E+01 0.87286229820E+01 0.85332813468E+01
 0.84807914434E+01 0.85700712136E+01 0.88078370684E+01 0.92019615182E+01 0.97682065751E+01
 0.10522810342E+02 0.11490116248E+02 0.12692628454E+02 0.14154943067E+02 0.15861721981E+02
 0.17794641560E+02 0.19867170558E+02 0.22518653349E+02 0.24999043846E+02 0.27358217552E+02
 0.29412789739E+02 0.30973158361E+02 0.31873394640E+02 0.32007634949E+02 0.43574190845E+02
 0.41358984637E+02 0.38226003668E+02 0.34542209490E+02 0.30664152697E+02 0.26878526163E+02
 0.23362537836E+02 0.20030120790E+02 0.17573913756E+02 0.15434443218E+02 0.13659844943E+02
 0.12221099525E+02 0.11097922381E+02 0.10234546559E+02 0.96027046229E+01 0.91737555940E+01
 0.89328097410E+01 0.88670119033E+01 0.89778649060E+01 0.92696245586E+01 0.97599448741E+01
 0.10469535406E+02 0.11434018755E+02 0.12692628454E+02 0.14294858513E+02 0.16256026183E+02
 0.18576827017E+02 0.21174410011E+02 0.24975864178E+02 0.28685106063E+02 0.32589553959E+02
 0.36451015008E+02 0.39924495280E+02 0.42638706822E+02 0.44263830117E+02 0.44590208678E+02
 0.63546461852E+02 0.59844386778E+02 0.54552034149E+02 0.48345659018E+02 0.41886586750E+02
 0.35705463320E+02 0.30157745102E+02 0.25394154346E+02 0.21031815466E+02 0.18135187084E+02
 0.15688733820E+02 0.13737022630E+02 0.12221099525E+02 0.11091424193E+02 0.10271879361E+02
 0.97232325797E+01 0.94097291979E+01 0.93204468928E+01 0.94458222634E+01 0.98001238580E+01
 0.10400143437E+02 0.11289050961E+02 0.12514971915E+02 0.14154943067E+02 0.16256026183E+02
 0.18856170407E+02 0.22475650548E+02 0.26726433858E+02 0.31782745986E+02 0.37603870587E+02
 0.43959642887E+02 0.50426475913E+02 0.56426614383E+02 0.61276659783E+02 0.64324748829E+02
 0.65121205079E+02 0.96429202015E+02 0.90153203293E+02 0.81040668370E+02 0.70401453594E+02
 0.59493859745E+02 0.49270557659E+02 0.40299079360E+02 0.32808499043E+02 0.26799242280E+02
 0.22066406948E+02 0.18333510338E+02 0.15688733820E+02 0.13659844943E+02 0.12150699510E+02
 0.11086406711E+02 0.10372384156E+02 0.99681705072E+01 0.98346552269E+01 0.99747986404E+01
 0.10389482786E+02 0.11122125427E+02 0.12216955192E+02 0.13771660732E+02 0.15861721981E+02
 0.18576827017E+02 0.22475650548E+02 0.27364090649E+02 0.33577328557E+02 0.41287757250E+02
 0.50463095893E+02 0.60844994482E+02 0.71809139469E+02 0.82345573637E+02 0.91168319995E+02
 0.96986089513E+02 0.98846112982E+02 0.15065051379E+03 0.14000196689E+03 0.12420868421E+03
 0.10579927174E+03 0.87149124426E+02 0.70029940624E+02 0.55400379554E+02 0.43551909611E+02
 0.34301450400E+02 0.27303104072E+02 0.22066406948E+02 0.18135187084E+02 0.15434443218E+02
 0.13449596718E+02 0.12045312163E+02 0.11125545935E+02 0.10589946549E+02 0.10405645207E+02
 0.10543950438E+02 0.11031443575E+02 0.11899918432E+02 0.13244753425E+02 0.15165833981E+02
 0.17794641560E+02 0.21174410011E+02 0.26726433858E+02 0.33577328557E+02 0.42646936480E+02
 0.54294373996E+02 0.68736524187E+02 0.85707817174E+02 0.10430909158E+03 0.12282917829E+03
 0.13892857193E+03 0.15006029772E+03 0.15423678941E+03 0.23883437356E+03 0.22099907983E+03
 0.19383169632E+03 0.16207881637E+03 0.13026685087E+03 0.10160053940E+03 0.77715881306E+02
 0.58916385201E+02 0.44733122574E+02 0.34301450400E+02 0.26799242280E+02 0.21031815466E+02
 0.17573913756E+02 0.14984037395E+02 0.13166208200E+02 0.11971719960E+02 0.11277934868E+02
 0.11012336355E+02 0.11145475248E+02 0.11696661399E+02 0.12718787572E+02 0.14332618205E+02
 0.16668359543E+02 0.19867170558E+02 0.24975864178E+02 0.31782745986E+02 0.41287757250E+02
 0.54294373996E+02 0.71704475984E+02 0.94109848996E+02 0.12151204846E+03 0.15269120639E+03
 0.18489938551E+03 0.21390263367E+03 0.23488523373E+03 0.24380296340E+03 0.37665104743E+03
 0.34813396005E+03 0.30292752696E+03 0.24948431195E+03 0.19610177390E+03 0.14870058360E+03
 0.11008577491E+03 0.80547320300E+02 0.58916385201E+02 0.43551909611E+02 0.32808499043E+02
 0.25394154346E+02 0.20030120790E+02 0.16750673835E+02 0.14438176062E+02 0.12903172823E+02
 0.12018099416E+02 0.11643603933E+02 0.11763735453E+02 0.12365546444E+02 0.13553690089E+02
 0.15436101461E+02 0.18218515341E+02 0.22518653349E+02 0.28685106063E+02 0.37603870587E+02
 0.50463095893E+02 0.68736524187E+02 0.94109848996E+02 0.12809801523E+03 0.17126844727E+03
 0.22219623239E+03 0.27654136979E+03 0.32700578866E+03 0.36486590750E+03 0.38265044694E+03
 0.57281574947E+03 0.53207021955E+03 0.46301663182E+03 0.37839350619E+03 0.29257928970E+03
 0.21656837927E+03 0.15560980574E+03 0.11008577491E+03 0.77715881306E+02 0.55400379554E+02
 0.40299079360E+02 0.30157745102E+02 0.23362537836E+02 0.18723839059E+02 0.15824097983E+02
 0.13916719526E+02 0.12780154268E+02 0.12290007621E+02 0.12364562258E+02 0.13020771629E+02
 0.14352037929E+02 0.16513331289E+02 0.19705692840E+02 0.24999043846E+02 0.32589553959E+02
 0.43959642887E+02 0.60844994482E+02 0.85707817174E+02 0.12151204846E+03 0.17126844727E+03
 0.23671338460E+03 0.31631406845E+03 0.40313766633E+03 0.48483947360E+03 0.54695168803E+03
 0.57807218438E+03 0.79580038399E+03 0.75292596329E+03 0.66781458088E+03 0.55088310009E+03
 0.42416865331E+03 0.30893019011E+03 0.21656837927E+03 0.14870058360E+03 0.10160053940E+03
 0.70029940624E+02 0.49270557659E+02 0.35705463320E+02 0.26878526163E+02 0.20782114436E+02
 0.17305707268E+02 0.14963613359E+02 0.13558481295E+02 0.12917177614E+02 0.12936385968E+02
 0.13623568486E+02 0.15080996099E+02 0.17495473066E+02 0.21048822335E+02 0.27358217552E+02
 0.36451015008E+02 0.50426475913E+02 0.71809139469E+02 0.10430909158E+03 0.15269120639E+03
 0.22219623239E+03 0.31631406845E+03 0.43286164715E+03 0.55966736187E+03 0.67501412723E+03
 0.75733066530E+03 0.79721811110E+03 0.90752152272E+03 0.90445776125E+03 0.85764946206E+03
 0.74244087515E+03 0.58349332661E+03 0.42416865331E+03 0.29257928970E+03 0.19610177390E+03
 0.13026685087E+03 0.87149124426E+02 0.59493859745E+02 0.41886586750E+02 0.30664152697E+02
 0.23477646663E+02 0.18805914845E+02 0.16007773718E+02 0.14318753015E+02 0.13503334583E+02
 0.13450619711E+02 0.14145237119E+02 0.15695968421E+02 0.18316773856E+02 0.22664716595E+02
 0.29412789739E+02 0.39924495280E+02 0.56426614383E+02 0.82345573637E+02 0.12282917829E+03
 0.18489938551E+03 0.27654136979E+03 0.40313766633E+03 0.55966736187E+03 0.72122190002E+03
 0.84519296317E+03 0.90149405631E+03 0.90792521540E+03 0.68007169942E+03 0.77734519425E+03
 0.89243351766E+03 0.88437543516E+03 0.74244087515E+03 0.55088310009E+03 0.37839350619E+03
 0.24948431195E+03 0.16207881637E+03 0.10579927174E+03 0.70401453594E+02 0.48345659018E+02
 0.34542209490E+02 0.25896243817E+02 0.20221666762E+02 0.17006414420E+02 0.15019982671E+02
 0.14026364272E+02 0.13880204451E+02 0.14558576761E+02 0.16158805762E+02 0.18920111442E+02
 0.23618373814E+02 0.30973158361E+02 0.42638706822E+02 0.61276659783E+02 0.91168319995E+02
 0.13892857193E+03 0.21390263367E+03 0.32700578866E+03 0.48483947360E+03 0.67501412723E+03
 0.84519296317E+03 0.90774135178E+03 0.82513364597E+03 0.70362814868E+03 0.53262604069E+03
 0.45455091780E+03 0.67027620980E+03 0.89243351766E+03 0.85764946206E+03 0.66781458088E+03
 0.46301663182E+03 0.30292752696E+03 0.19383169632E+03 0.12420868421E+03 0.81040668370E+02
 0.54552034149E+02 0.38226003668E+02 0.28142812770E+02 0.21469028470E+02 0.17899130214E+02
 0.15622408398E+02 0.14459966189E+02 0.14202190391E+02 0.14840914342E+02 0.16438450839E+02
 0.19265008197E+02 0.24153284038E+02 0.31873394640E+02 0.44263830117E+02 0.64324748829E+02
 0.96986089513E+02 0.15006029772E+03 0.23488523373E+03 0.36486590750E+03 0.54695168803E+03
 0.75733066530E+03 0.90149405631E+03 0.82513364597E+03 0.54610120559E+03 0.46995557641E+03
 0.32938768182E+04 0.13816030535E+04 0.45455091780E+03 0.77734519425E+03 0.90445776125E+03
 0.75292596329E+03 0.53207021955E+03 0.34813396005E+03 0.22099907983E+03 0.14000196689E+03
 0.90153203293E+02 0.59844386778E+02 0.41358984637E+02 0.30025804372E+02 0.22976794421E+02
 0.18616923885E+02 0.16093932853E+02 0.14774783705E+02 0.14402912645E+02 0.14973441339E+02
 0.16520506209E+02 0.19327249698E+02 0.24218562426E+02 0.32007634949E+02 0.44590208678E+02
 0.65121205079E+02 0.98846112982E+02 0.15423678941E+03 0.24380296340E+03 0.38265044694E+03
 0.57807218438E+03 0.79721811110E+03 0.90792521540E+03 0.70362814868E+03 0.46995557641E+03
 0.18733013776E+04 0.44304009802E+04 0.23093309975E+04 0.47510870243E+03 0.71251089618E+03
 0.90843140955E+03 0.78564784561E+03 0.56371235749E+03 0.37076548319E+03 0.23543970283E+03
 0.14877169962E+03 0.95402323555E+02 0.62983684963E+02 0.43260037069E+02 0.31188875731E+02
 0.23705803870E+02 0.19047988952E+02 0.16362690870E+02 0.14923152820E+02 0.14446593824E+02
 0.14923152820E+02 0.16362690870E+02 0.19047988952E+02 0.23705803870E+02 0.31188875731E+02
 0.43260037069E+02 0.62983684963E+02 0.95402323555E+02 0.14877169962E+03 0.23543970283E+03
 0.37076548319E+03 0.56371235749E+03 0.78564784561E+03 0.90843140955E+03 0.71251089618E+03
 0.47510870243E+03 0.23093309975E+04 0.23093309975E+04 0.13165131038E+04 0.45260063514E+03
 0.73430994965E+03 0.90843755086E+03 0.78708420823E+03 0.56889574252E+03 0.37665532440E+03
 0.24032014277E+03 0.15229909208E+03 0.97783012405E+02 0.64537706390E+02 0.44264042632E+02
 0.31824499188E+02 0.24110758473E+02 0.19268083769E+02 0.16481193871E+02 0.14945713678E+02
 0.14379388021E+02 0.14748390825E+02 0.16057829315E+02 0.18562141506E+02 0.22881236276E+02
 0.29862825565E+02 0.41070702950E+02 0.59329484096E+02 0.89218304023E+02 0.13829667256E+03
 0.21792016507E+03 0.34276158960E+03 0.52355716234E+03 0.74246702992E+03 0.90099304951E+03
 0.80108630009E+03 0.47087864251E+03 0.99196429137E+03 0.47510870243E+03 0.45260063514E+03
 0.58258414756E+03 0.84311706244E+03 0.89722328604E+03 0.74688572396E+03 0.53821347141E+03
 0.35919218353E+03 0.23156101882E+03 0.14819115842E+03 0.95951180624E+02 0.63751623565E+02
 0.43941709632E+02 0.31691421511E+02 0.24046313214E+02 0.19206439717E+02 0.16399978570E+02
 0.14813993569E+02 0.14180141636E+02 0.14435656801E+02 0.15589987279E+02 0.17849199698E+02
 0.21395606766E+02 0.27997975743E+02 0.37973499983E+02 0.54104339768E+02 0.80237637861E+02
 0.12275514960E+03 0.19122550485E+03 0.29837781668E+03 0.45561417660E+03 0.65764495902E+03
 0.84912690993E+03 0.89892620153E+03 0.70337775157E+03 0.47087864251E+03 0.71251089618E+03
 0.73430994965E+03 0.84311706244E+03 0.90844661957E+03 0.83615561288E+03 0.66479068971E+03
 0.47707576520E+03 0.32201784186E+03 0.21094895691E+03 0.13724061258E+03 0.90219121489E+02
 0.60743384273E+02 0.42335968419E+02 0.30800279349E+02 0.23516473042E+02 0.18863599559E+02
 0.16122398902E+02 0.14533486003E+02 0.13860384757E+02 0.14004924975E+02 0.14991649514E+02
 0.16962764217E+02 0.20156795589E+02 0.25772427030E+02 0.34330443757E+02 0.47974185238E+02
 0.69745903788E+02 0.10463101714E+03 0.16001042898E+03 0.24589930423E+03 0.37247539502E+03
 0.54208744809E+03 0.73196283765E+03 0.87764547982E+03 0.89892620153E+03 0.80108630009E+03
 0.90843140955E+03 0.90843755086E+03 0.89722328604E+03 0.83615561288E+03 0.71076629812E+03
 0.55074682364E+03 0.39677790657E+03 0.27247050211E+03 0.18244708537E+03 0.12139761975E+03
 0.81524676735E+02 0.55955360930E+02 0.39652962201E+02 0.29255842125E+02 0.22572510091E+02
 0.18264556544E+02 0.15663174021E+02 0.14123038056E+02 0.13433653223E+02 0.13485682696E+02
 0.14295282426E+02 0.15971816909E+02 0.18749761500E+02 0.23376066267E+02 0.30493475606E+02
 0.41591386354E+02 0.58982228186E+02 0.86257603671E+02 0.12871618668E+03 0.19345652333E+03
 0.28821619591E+03 0.41743589339E+03 0.57424215171E+03 0.73196283765E+03 0.84912690993E+03
 0.90099304951E+03 0.78564784561E+03 0.78708420823E+03 0.74688572396E+03 0.66479068971E+03
 0.55074682364E+03 0.42597905345E+03 0.31151985626E+03 0.21909681160E+03 0.15077840612E+03
 0.10316386999E+03 0.71134942297E+02 0.50030230293E+02 0.36218980474E+02 0.27221290434E+02
 0.20979192087E+02 0.17448856684E+02 0.15052430123E+02 0.13605046982E+02 0.12922681419E+02
 0.12903435894E+02 0.13539840920E+02 0.14935257105E+02 0.17259678642E+02 0.20713408918E+02
 0.26744813244E+02 0.35480098508E+02 0.48886989060E+02 0.69378540030E+02 0.10049511179E+03
 0.14685178612E+03 0.21356724876E+03 0.30427013743E+03 0.41743589339E+03 0.54208744809E+03
 0.65764495902E+03 0.74246702992E+03 0.56371235749E+03 0.56889574252E+03 0.53821347141E+03
 0.47707576520E+03 0.39677790657E+03 0.31151985626E+03 0.23335688680E+03 0.16904750455E+03
 0.12010058975E+03 0.84838640079E+02 0.60316453577E+02 0.43641360965E+02 0.32399228945E+02
 0.24884557703E+02 0.19645689966E+02 0.16474436757E+02 0.14328988380E+02 0.13006484350E+02
 0.12355021890E+02 0.12280424229E+02 0.12767568777E+02 0.13895326062E+02 0.15789241126E+02
 0.18667972828E+02 0.23261857267E+02 0.29990989535E+02 0.40021871156E+02 0.54940166012E+02
 0.76958405513E+02 0.10885102516E+03 0.15364774427E+03 0.21356724876E+03 0.28821619591E+03
 0.37247539502E+03 0.45561417660E+03 0.52355716234E+03 0.37076548319E+03 0.37665532440E+03
 0.35919218353E+03 0.32201784186E+03 0.27247050211E+03 0.21909681160E+03 0.16904750455E+03
 0.12658173628E+03 0.93118549667E+02 0.68103347688E+02 0.50066210605E+02 0.37358701001E+02
 0.28535588149E+02 0.22427342621E+02 0.18167468494E+02 0.15404919826E+02 0.13535558428E+02
 0.12355740734E+02 0.11757608587E+02 0.11637987883E+02 0.12009934398E+02 0.12888932525E+02
 0.14413428211E+02 0.16708604941E+02 0.19966115184E+02 0.25274529189E+02 0.32613717353E+02
 0.43236934683E+02 0.58410833461E+02 0.79750393114E+02 0.10885102516E+03 0.14685178612E+03
 0.19345652333E+03 0.24589930423E+03 0.29837781668E+03 0.34276158960E+03 0.23543970283E+03
 0.24032014277E+03 0.23156101882E+03 0.21094895691E+03 0.18244708537E+03 0.15077840612E+03
 0.12010058975E+03 0.93118549667E+02 0.71031629442E+02 0.53849557832E+02 0.41001408880E+02
 0.31600876727E+02 0.24861609413E+02 0.19806377820E+02 0.16629167792E+02 0.14310742692E+02
 0.12707575418E+02 0.11692484671E+02 0.11144195982E+02 0.11012102259E+02 0.11275088478E+02
 0.11964140746E+02 0.13149401284E+02 0.14955320254E+02 0.17526004213E+02 0.20960882955E+02
 0.26666037575E+02 0.34090295871E+02 0.44403991029E+02 0.58410833461E+02 0.76958405513E+02
 0.10049511179E+03 0.12871618668E+03 0.16001042898E+03 0.19122550485E+03 0.21792016507E+03
 0.14877169962E+03 0.15229909208E+03 0.14819115842E+03 0.13724061258E+03 0.12139761975E+03