       N       E                     dE             d eps       ncg     rms          rms(c)
DAV:   1     0.760913222098E+03    0.76091E+03   -0.33478E+04 21580   0.258E+03
DAV:   2     0.459667287903E+02   -0.71495E+03   -0.69602E+03 20748   0.685E+02
DAV:   3    -0.144467654358E+02   -0.60413E+02   -0.58692E+02 21876   0.209E+02
DAV:   4    -0.160554493099E+02   -0.16087E+01   -0.16006E+01 21864   0.358E+01
DAV:   5    -0.160912341959E+02   -0.35785E-01   -0.35763E-01 22584   0.525E+00    0.314E+01
DAV:   6    -0.140905931710E+02    0.20006E+01   -0.28451E+01 21012   0.532E+01    0.150E+01
DAV:   7    -0.155404847693E+02   -0.14499E+01   -0.24661E+00 21520   0.139E+01    0.785E+00
DAV:   8    -0.157307570412E+02   -0.19027E+00   -0.38367E-01 22280   0.465E+00    0.291E+00
DAV:   9    -0.158379426982E+02   -0.10719E+00   -0.40390E-01 23988   0.245E+00    0.959E-01
DAV:  10    -0.158907604153E+02   -0.52818E-01   -0.14449E-01 25800   0.148E+00    0.958E-01
DAV:  11    -0.159294871203E+02   -0.38727E-01   -0.85532E-02 23036   0.103E+00    0.109E+00
DAV:  12    -0.158761480001E+02    0.53339E-01   -0.62360E-01 25864   0.303E+00    0.800E-01
DAV:  13    -0.158860424199E+02   -0.98944E-02   -0.26076E-02 22436   0.828E-01    0.720E-01
DAV:  14    -0.159069460457E+02   -0.20904E-01   -0.15299E-01 24112   0.186E+00    0.302E-01
DAV:  15    -0.159123993457E+02   -0.54533E-02   -0.41766E-02 23312   0.952E-01    0.172E-01
DAV:  16    -0.159120954154E+02    0.30393E-03   -0.42735E-03 22968   0.392E-01    0.153E-01
DAV:  17    -0.159114694608E+02    0.62595E-03   -0.36342E-03 28772   0.251E-01    0.102E-01
DAV:  18    -0.159110397728E+02    0.42969E-03   -0.34680E-03 28212   0.241E-01    0.648E-02
DAV:  19    -0.159107903353E+02    0.24944E-03   -0.11412E-02 24588   0.421E-01    0.189E-02
DAV:  20    -0.159108457172E+02   -0.55382E-04   -0.62344E-04 21404   0.205E-01    0.142E-02
DAV:  21    -0.159108478016E+02   -0.20844E-05   -0.12828E-05 21172   0.344E-02    0.105E-02
DAV:  22    -0.159108473336E+02    0.46796E-06   -0.91354E-06 25672   0.133E-02    0.796E-03
DAV:  23    -0.159108461834E+02    0.11502E-05   -0.44128E-06 21016   0.106E-02    0.556E-03
DAV:  24    -0.159108467867E+02   -0.60330E-06   -0.30533E-07 19656   0.654E-03    0.347E-03
DAV:  25    -0.159108470261E+02   -0.23944E-06   -0.41139E-07 10960   0.420E-03    0.289E-03
DAV:  26    -0.159108473468E+02   -0.32067E-06   -0.33070E-06 17116   0.726E-03    0.182E-03
DAV:  27    -0.159108478894E+02   -0.54259E-06   -0.31444E-06 18528   0.681E-03    0.212E-03
DAV:  28    -0.159108481830E+02   -0.29360E-06    0.32395E-07 12820   0.285E-03    0.712E-04
DAV:  29    -0.159108482656E+02   -0.82651E-07   -0.22508E-07 10496   0.241E-03
   1 F= -.15910848E+02 E0= -.15910848E+02  d E =0.000000E+00  mag=    -0.0000
