       N       E                     dE             d eps       ncg     rms          rms(c)
DAV:   1     0.154517728847E+03    0.15452E+03   -0.10667E+04  8380   0.278E+03
DAV:   2    -0.360561898374E+01   -0.15812E+03   -0.13806E+03  7496   0.305E+02
DAV:   3    -0.196642266292E+02   -0.16059E+02   -0.15440E+02  7756   0.105E+02
DAV:   4    -0.204678400951E+02   -0.80361E+00   -0.78427E+00 10960   0.210E+01
DAV:   5    -0.204965489350E+02   -0.28709E-01   -0.28583E-01  9296   0.296E+00    0.185E+01
DAV:   6    -0.257334815027E+02   -0.52369E+01   -0.10088E+02 10280   0.109E+02    0.275E+01
DAV:   7    -0.209023152382E+02    0.48312E+01   -0.24014E+01  8764   0.832E+01    0.101E+01
DAV:   8    -0.209320421574E+02   -0.29727E-01   -0.13234E+00  9808   0.101E+01    0.488E+00
DAV:   9    -0.209168481238E+02    0.15194E-01   -0.16300E+00 10716   0.111E+01    0.264E+00
DAV:  10    -0.208609023700E+02    0.55946E-01   -0.22357E-01  9664   0.431E+00    0.962E-01
DAV:  11    -0.208569940266E+02    0.39083E-02   -0.14286E-02  9784   0.119E+00    0.786E-01
DAV:  12    -0.208568503397E+02    0.14369E-03   -0.23801E-02 10196   0.144E+00    0.361E-01
DAV:  13    -0.208571859969E+02   -0.33566E-03   -0.19873E-03  9788   0.290E-01    0.200E-01
DAV:  14    -0.208572817272E+02   -0.95730E-04   -0.15042E-03 10156   0.372E-01    0.799E-02
DAV:  15    -0.208572215555E+02    0.60172E-04   -0.18536E-04  9852   0.112E-01    0.414E-02
DAV:  16    -0.208572409405E+02   -0.19385E-04   -0.20488E-05 10200   0.382E-02    0.137E-02
DAV:  17    -0.208572422690E+02   -0.13286E-05   -0.28115E-06 11396   0.121E-02    0.499E-03
DAV:  18    -0.208572426621E+02   -0.39302E-06   -0.68122E-07  8672   0.598E-03    0.488E-03
DAV:  19    -0.208572410130E+02    0.16491E-05   -0.18571E-07  6244   0.471E-03    0.167E-03
DAV:  20    -0.208572423379E+02   -0.13249E-05   -0.76048E-08  4464   0.286E-03    0.439E-04
DAV:  21    -0.208572420763E+02    0.26162E-06   -0.31084E-08  3824   0.167E-03    0.261E-04
DAV:  22    -0.208572419862E+02    0.90109E-07   -0.12344E-08  3724   0.104E-03
   1 F= -.20857242E+02 E0= -.20857242E+02  d E =0.000000E+00  mag=     6.9930
