unknown system                          
   1.00000000000000     
     1.420026    1.420026    1.420026
     1.420026   -1.420026   -1.420026
    -1.420026    1.420026   -1.420026
   Fe
     1
Direct
  0.000000  0.000000  0.000000
 
   36   36   36
 0.55247100445E+03 0.85534119867E+03 0.12823524850E+03 0.17559698864E+03 0.22942495233E+03
 0.19554013978E+03 0.13706927127E+03 0.87968087637E+02 0.54575279598E+02 0.33795941143E+02
 0.21363445485E+02 0.14038587708E+02 0.97353465873E+01 0.71964110752E+01 0.56052966311E+01
 0.47795821443E+01 0.42618694283E+01 0.39840661155E+01 0.38972816414E+01 0.39840661155E+01
 0.42618694283E+01 0.47795821443E+01 0.56052966311E+01 0.71964110752E+01 0.97353465873E+01
 0.14038587708E+02 0.21363445485E+02 0.33795941143E+02 0.54575279598E+02 0.87968087637E+02
 0.13706927127E+03 0.19554013978E+03 0.22942495233E+03 0.17559698864E+03 0.12823524850E+03
 0.85534119867E+03 0.85534119867E+03 0.66391942915E+03 0.13870823058E+03 0.15382041939E+03
 0.22553903915E+03 0.20723558164E+03 0.15141831052E+03 0.99325859890E+02 0.62223854568E+02
 0.38583173777E+02 0.24259903447E+02 0.15766432959E+02 0.10762297247E+02 0.78082178810E+01
 0.60523109496E+01 0.49848287469E+01 0.43821026502E+01 0.40368423447E+01 0.38924977725E+01
 0.39207728097E+01 0.41274515979E+01 0.45513073993E+01 0.52554650712E+01 0.65409879319E+01
 0.86279254203E+01 0.12148081485E+02 0.18119141028E+02 0.28244233229E+02 0.45234388732E+02
 0.72929856134E+02 0.11521322781E+03 0.17097922210E+03 0.22087590112E+03 0.21294155150E+03
 0.12269775120E+03 0.24818480951E+03 0.12823524850E+03 0.13870823058E+03 0.10034744708E+03
 0.16544880930E+03 0.22188802923E+03 0.20642973243E+03 0.15528612074E+03 0.10444107293E+03
 0.66587123720E+02 0.41721003728E+02 0.26337728359E+02 0.17084545132E+02 0.11579096201E+02
 0.83072470611E+01 0.63539553390E+01 0.51481395306E+01 0.44769148399E+01 0.40737604681E+01
 0.38775561741E+01 0.38510520664E+01 0.39887488860E+01 0.43178971382E+01 0.48932033395E+01
 0.58994025339E+01 0.75493000361E+01 0.10306541337E+02 0.14941634635E+02 0.22742940695E+02
 0.35782666976E+02 0.57126105653E+02 0.90474364283E+02 0.13778907009E+03 0.19220860175E+03
 0.22633439960E+03 0.19732256365E+03 0.12269775120E+03 0.17559698864E+03 0.15382041939E+03
 0.16544880930E+03 0.20199645132E+03 0.21913771125E+03 0.19494170540E+03 0.14830966805E+03
 0.10218144117E+03 0.66675402621E+02 0.42551711543E+02 0.27205579495E+02 0.17771013825E+02
 0.12062909378E+02 0.86270752458E+01 0.65547740768E+01 0.52525615457E+01 0.45355091693E+01
 0.40891146749E+01 0.38509048444E+01 0.37773282719E+01 0.38530953429E+01 0.40937922764E+01
 0.45433106406E+01 0.52645339087E+01 0.65734436811E+01 0.86561652248E+01 0.12109670179E+02
 0.17849291811E+02 0.27342712263E+02 0.42803423605E+02 0.67158117015E+02 0.10314063333E+03
 0.15025166808E+03 0.19882182843E+03 0.22633439960E+03 0.21294155150E+03 0.22942495233E+03
 0.22553903915E+03 0.22188802923E+03 0.21913771125E+03 0.20505356097E+03 0.17340371332E+03
 0.13228807174E+03 0.93253363627E+02 0.62520514729E+02 0.40904465194E+02 0.26689999717E+02
 0.17699916503E+02 0.12132792727E+02 0.87180486045E+01 0.66267373750E+01 0.52859230488E+01
 0.45494564382E+01 0.40779969865E+01 0.38106197356E+01 0.37004729145E+01 0.37247988117E+01
 0.38885883206E+01 0.42239562978E+01 0.47847670758E+01 0.57377432315E+01 0.72657083132E+01
 0.97568785811E+01 0.13826659293E+02 0.20454148866E+02 0.31116184123E+02 0.47843550438E+02
 0.72925517238E+02 0.10774217885E+03 0.15025166808E+03 0.19220860175E+03 0.22087590112E+03
 0.19554013978E+03 0.20723558164E+03 0.20642973243E+03 0.19494170540E+03 0.17340371332E+03
 0.14356261310E+03 0.11041532781E+03 0.79770259406E+02 0.55123819208E+02 0.37158689528E+02
 0.24900311143E+02 0.16883273629E+02 0.11773824773E+02 0.85632208899E+01 0.65564979918E+01
 0.52428841870E+01 0.45143185953E+01 0.40374469386E+01 0.37551929768E+01 0.36203466431E+01
 0.36054418609E+01 0.37068699916E+01 0.39454503206E+01 0.43637998924E+01 0.50187481494E+01
 0.61474843773E+01 0.79009043001E+01 0.10708076730E+02 0.15190853564E+02 0.22278196093E+02
 0.33256976409E+02 0.49681647307E+02 0.72925517238E+02 0.10314063333E+03 0.13778907009E+03
 0.17097922210E+03 0.13706927127E+03 0.15141831052E+03 0.15528612074E+03 0.14830966805E+03
 0.13228807174E+03 0.11041532781E+03 0.86599070251E+02 0.64396297195E+02 0.46007433392E+02
 0.32075788741E+02 0.22182222327E+02 0.15466614815E+02 0.11043039495E+02 0.81825257855E+01
 0.63501493994E+01 0.51257992142E+01 0.44305836406E+01 0.39672889179E+01 0.36842859090E+01
 0.35365619154E+01 0.34947329283E+01 0.35491000249E+01 0.37108009896E+01 0.40108494491E+01
 0.44961986558E+01 0.52206874514E+01 0.64916166729E+01 0.83918528246E+01 0.11358210890E+02
 0.15950140227E+02 0.22935475221E+02 0.33256976409E+02 0.47843550438E+02 0.67158117015E+02
 0.90474364283E+02 0.11521322781E+03 0.87968087637E+02 0.99325859890E+02 0.10444107293E+03
 0.10218144117E+03 0.93253363627E+02 0.79770259406E+02 0.64396297195E+02 0.49509329693E+02
 0.36669514763E+02 0.26516000605E+02 0.18992844363E+02 0.13679114928E+02 0.10050394302E+02
 0.76279041178E+01 0.60319362486E+01 0.49442807197E+01 0.43037063238E+01 0.38704356139E+01
 0.35992232125E+01 0.34492128373E+01 0.33915787325E+01 0.34131269942E+01 0.35175831667E+01
 0.37254953444E+01 0.40725115996E+01 0.46046673686E+01 0.53687779684E+01 0.67224778130E+01
 0.86605705769E+01 0.11589577705E+02 0.15950140227E+02 0.22278196093E+02 0.31116184123E+02
 0.42803423605E+02 0.57126105653E+02 0.72929856134E+02 0.54575279598E+02 0.62223854568E+02
 0.66587123720E+02 0.66675402621E+02 0.62520514729E+02 0.55123819208E+02 0.46007433392E+02
 0.36669514763E+02 0.28207076619E+02 0.21194631406E+02 0.15763004944E+02 0.11764155828E+02
 0.89281596149E+01 0.69688775674E+01 0.56377507985E+01 0.47136416062E+01 0.41432746070E+01
 0.37525804738E+01 0.35030833292E+01 0.33593527924E+01 0.32950434180E+01 0.32957932998E+01
 0.33603563568E+01 0.35008447878E+01 0.37421739280E+01 0.41199858062E+01 0.46756571220E+01
 0.55423419186E+01 0.68038502167E+01 0.86605705769E+01 0.11358210890E+02 0.15190853564E+02
 0.20454148866E+02 0.27342712263E+02 0.35782666976E+02 0.45234388732E+02 0.33795941143E+02
 0.38583173777E+02 0.41721003728E+02 0.42551711543E+02 0.40904465194E+02 0.37158689528E+02
 0.32075788741E+02 0.26516000605E+02 0.21194631406E+02 0.16562422627E+02 0.12807388524E+02
 0.99238837690E+01 0.77979485274E+01 0.62759898651E+01 0.52078687201E+01 0.44525882668E+01
 0.39615245878E+01 0.36213669981E+01 0.34003648844E+01 0.32690994710E+01 0.32049524431E+01
 0.31942139850E+01 0.32328961758E+01 0.33270055646E+01 0.34925013965E+01 0.37546201501E+01
 0.41457036353E+01 0.47003388708E+01 0.55423419186E+01 0.67224778130E+01 0.83918528246E+01
 0.10708076730E+02 0.13826659293E+02 0.17849291811E+02 0.22742940695E+02 0.28244233229E+02
 0.21363445485E+02 0.24259903447E+02 0.26337728359E+02 0.27205579495E+02 0.26689999717E+02
 0.24900311143E+02 0.22182222327E+02 0.18992844363E+02 0.15763004944E+02 0.12807388524E+02
 0.10299939397E+02 0.82909749050E+01 0.67508445439E+01 0.56077171976E+01 0.47344670325E+01
 0.41806258595E+01 0.37715510166E+01 0.34852532750E+01 0.32963362418E+01 0.31813769694E+01
 0.31220489102E+01 0.31064933326E+01 0.31297574564E+01 0.31939311104E+01 0.33082504385E+01
 0.34890635519E+01 0.37591705747E+01 0.41457036353E+01 0.46756571220E+01 0.53687779684E+01
 0.64916166729E+01 0.79009043001E+01 0.97568785811E+01 0.12109670179E+02 0.14941634635E+02
 0.18119141028E+02 0.14038587708E+02 0.15766432959E+02 0.17084545132E+02 0.17771013825E+02
 0.17699916503E+02 0.16883273629E+02 0.15466614815E+02 0.13679114928E+02 0.11764155828E+02
 0.99238837690E+01 0.82909749050E+01 0.69275679195E+01 0.58404511556E+01 0.49294446021E+01
 0.43600982873E+01 0.39156280064E+01 0.35855839019E+01 0.33523455554E+01 0.31962599244E+01
 0.30994200947E+01 0.30477647028E+01 0.30318647504E+01 0.30470185444E+01 0.30931846595E+01
 0.31750373803E+01 0.33021538077E+01 0.34890635519E+01 0.37546201501E+01 0.41199858062E+01
 0.46046673686E+01 0.52206874514E+01 0.61474843773E+01 0.72657083132E+01 0.86561652248E+01
 0.10306541337E+02 0.12148081485E+02 0.97353465873E+01 0.10762297247E+02 0.11579096201E+02
 0.12062909378E+02 0.12132792727E+02 0.11773824773E+02 0.11043039495E+02 0.10050394302E+02
 0.89281596149E+01 0.77979485274E+01 0.67508445439E+01 0.58404511556E+01 0.50869164062E+01
 0.44601990516E+01 0.40179048771E+01 0.36719459698E+01 0.34136365125E+01 0.32294461717E+01
 0.31046981338E+01 0.30262269206E+01 0.29837800266E+01 0.29704126722E+01 0.29823331980E+01
 0.30186397052E+01 0.30812396497E+01 0.31750373803E+01 0.33082504385E+01 0.34925013965E+01
 0.37421739280E+01 0.40725115996E+01 0.44961986558E+01 0.50187481494E+01 0.57377432315E+01
 0.65734436811E+01 0.75493000361E+01 0.86279254203E+01 0.71964110752E+01 0.78082178810E+01
 0.83072470611E+01 0.86270752458E+01 0.87180486045E+01 0.85632208899E+01 0.81825257855E+01
 0.76279041178E+01 0.69688775674E+01 0.62759898651E+01 0.56077171976E+01 0.49294446021E+01
 0.44601990516E+01 0.40546582234E+01 0.37211191134E+01 0.34593072844E+01 0.32627106520E+01
 0.31214723279E+01 0.30250542637E+01 0.29641361490E+01 0.29315827169E+01 0.29226253148E+01
 0.29345765621E+01 0.29664316611E+01 0.30186397052E+01 0.30931846595E+01 0.31939311104E+01
 0.33270055646E+01 0.35008447878E+01 0.37254953444E+01 0.40108494491E+01 0.43637998924E+01
 0.47847670758E+01 0.52645339087E+01 0.58994025339E+01 0.65409879319E+01 0.56052966311E+01
 0.60523109496E+01 0.63539553390E+01 0.65547740768E+01 0.66267373750E+01 0.65564979918E+01
 0.63501493994E+01 0.60319362486E+01 0.56377507985E+01 0.52078687201E+01 0.47344670325E+01
 0.43600982873E+01 0.40179048771E+01 0.37211191134E+01 0.34759830087E+01 0.32825947038E+01
 0.31366092623E+01 0.30312925917E+01 0.29594180707E+01 0.29146405166E+01 0.28922013569E+01
 0.28890251566E+01 0.29034098016E+01 0.29345765621E+01 0.29823331980E+01 0.30470185444E+01
 0.31297574564E+01 0.32328961758E+01 0.33603563568E+01 0.35175831667E+01 0.37108009896E+01
 0.39454503206E+01 0.42239562978E+01 0.45433106406E+01 0.48932033395E+01 0.52554650712E+01
 0.47795821443E+01 0.49848287469E+01 0.51481395306E+01 0.52525615457E+01 0.52859230488E+01
 0.52428841870E+01 0.51257992142E+01 0.49442807197E+01 0.47136416062E+01 0.44525882668E+01
 0.41806258595E+01 0.39156280064E+01 0.36719459698E+01 0.34593072844E+01 0.32825947038E+01
 0.31424234932E+01 0.30362844510E+01 0.29599321084E+01 0.29086950135E+01 0.28784595181E+01
 0.28661984611E+01 0.28700453592E+01 0.28890251566E+01 0.29226253148E+01 0.29704126722E+01
 0.30318647504E+01 0.31064933326E+01 0.31942139850E+01 0.32957932998E+01 0.34131269942E+01
 0.35491000249E+01 0.37068699916E+01 0.38885883206E+01 0.40937922764E+01 0.43178971382E+01
 0.45513073993E+01 0.42618694283E+01 0.43821026502E+01 0.44769148399E+01 0.45355091693E+01
 0.45494564382E+01 0.45143185953E+01 0.44305836406E+01 0.43037063238E+01 0.41432746070E+01
 0.39615245878E+01 0.37715510166E+01 0.35855839019E+01 0.34136365125E+01 0.32627106520E+01
 0.31366092623E+01 0.30362844510E+01 0.29605613101E+01 0.29070347273E+01 0.28729376113E+01
 0.28558159872E+01 0.28539078997E+01 0.28661984611E+01 0.28922013569E+01 0.29315827169E+01
 0.29837800266E+01 0.30477647028E+01 0.31220489102E+01 0.32049524431E+01 0.32950434180E+01
 0.33915787325E+01 0.34947329283E+01 0.36054418609E+01 0.37247988117E+01 0.38530953429E+01
 0.39887488860E+01 0.41274515979E+01 0.39840661155E+01 0.40368423447E+01 0.40737604681E+01
 0.40891146749E+01 0.40779969865E+01 0.40374469386E+01 0.39672889179E+01 0.38704356139E+01
 0.37525804738E+01 0.36213669981E+01 0.34852532750E+01 0.33523455554E+01 0.32294461717E+01
 0.31214723279E+01 0.30312925917E+01 0.29599321084E+01 0.29070347273E+01 0.28714437582E+01
 0.28517663691E+01 0.28468100641E+01 0.28558159872E+01 0.28784595181E+01 0.29146405166E+01
 0.29641361490E+01 0.30262269206E+01 0.30994200947E+01 0.31813769694E+01 0.32690994710E+01
 0.33593527924E+01 0.34492128373E+01 0.35365619154E+01 0.36203466431E+01 0.37004729145E+01
 0.37773282719E+01 0.38510520664E+01 0.39207728097E+01 0.38972816414E+01 0.38924977725E+01
 0.38775561741E+01 0.38509048444E+01 0.38106197356E+01 0.37551929768E+01 0.36842859090E+01
 0.35992232125E+01 0.35030833292E+01 0.34003648844E+01 0.32963362418E+01 0.31962599244E+01
 0.31046981338E+01 0.30250542637E+01 0.29594180707E+01 0.29086950135E+01 0.28729376113E+01
 0.28517663691E+01 0.28447664700E+01 0.28517663691E+01 0.28729376113E+01 0.29086950135E+01
 0.29594180707E+01 0.30250542637E+01 0.31046981338E+01 0.31962599244E+01 0.32963362418E+01
 0.34003648844E+01 0.35030833292E+01 0.35992232125E+01 0.36842859090E+01 0.37551929768E+01
 0.38106197356E+01 0.38509048444E+01 0.38775561741E+01 0.38924977725E+01 0.39840661155E+01
 0.39207728097E+01 0.38510520664E+01 0.37773282719E+01 0.37004729145E+01 0.36203466431E+01
 0.35365619154E+01 0.34492128373E+01 0.33593527924E+01 0.32690994710E+01 0.31813769694E+01
 0.30994200947E+01 0.30262269206E+01 0.29641361490E+01 0.29146405166E+01 0.28784595181E+01
 0.28558159872E+01 0.28468100641E+01 0.28517663691E+01 0.28714437582E+01 0.29070347273E+01
 0.29599321084E+01 0.30312925917E+01 0.31214723279E+01 0.32294461717E+01 0.33523455554E+01
 0.34852532750E+01 0.36213669981E+01 0.37525804738E+01 0.38704356139E+01 0.39672889179E+01
 0.40374469386E+01 0.40779969865E+01 0.40891146749E+01 0.40737604681E+01 0.40368423447E+01
 0.42618694283E+01 0.41274515979E+01 0.39887488860E+01 0.38530953429E+01 0.37247988117E+01
 0.36054418609E+01 0.34947329283E+01 0.33915787325E+01 0.32950434180E+01 0.32049524431E+01
 0.31220489102E+01 0.30477647028E+01 0.29837800266E+01 0.29315827169E+01 0.28922013569E+01
 0.28661984611E+01 0.28539078997E+01 0.28558159872E+01 0.28729376113E+01 0.29070347273E+01
 0.29605613101E+01 0.30362844510E+01 0.31366092623E+01 0.32627106520E+01 0.34136365125E+01
 0.35855839019E+01 0.37715510166E+01 0.39615245878E+01 0.41432746070E+01 0.43037063238E+01
 0.44305836406E+01 0.45143185953E+01 0.45494564382E+01 0.45355091693E+01 0.44769148399E+01
 0.43821026502E+01 0.47795821443E+01 0.45513073993E+01 0.43178971382E+01 0.40937922764E+01
 0.38885883206E+01 0.37068699916E+01 0.35491000249E+01 0.34131269942E+01 0.32957932998E+01
 0.31942139850E+01 0.31064933326E+01 0.30318647504E+01 0.29704126722E+01 0.29226253148E+01
 0.28890251566E+01 0.28700453592E+01 0.28661984611E+01 0.28784595181E+01 0.29086950135E+01
 0.29599321084E+01 0.30362844510E+01 0.31424234932E+01 0.32825947038E+01 0.34593072844E+01
 0.36719459698E+01 0.39156280064E+01 0.41806258595E+01 0.44525882668E+01 0.47136416062E+01
 0.49442807197E+01 0.51257992142E+01 0.52428841870E+01 0.52859230488E+01 0.52525615457E+01
 0.51481395306E+01 0.49848287469E+01 0.56052966311E+01 0.52554650712E+01 0.48932033395E+01
 0.45433106406E+01 0.42239562978E+01 0.39454503206E+01 0.37108009896E+01 0.35175831667E+01
 0.33603563568E+01 0.32328961758E+01 0.31297574564E+01 0.30470185444E+01 0.29823331980E+01
 0.29345765621E+01 0.29034098016E+01 0.28890251566E+01 0.28922013569E+01 0.29146405166E+01
 0.29594180707E+01 0.30312925917E+01 0.31366092623E+01 0.32825947038E+01 0.34759830087E+01
 0.37211191134E+01 0.40179048771E+01 0.43600982873E+01 0.47344670325E+01 0.52078687201E+01
 0.56377507985E+01 0.60319362486E+01 0.63501493994E+01 0.65564979918E+01 0.66267373750E+01
 0.65547740768E+01 0.63539553390E+01 0.60523109496E+01 0.71964110752E+01 0.65409879319E+01
 0.58994025339E+01 0.52645339087E+01 0.47847670758E+01 0.43637998924E+01 0.40108494491E+01
 0.37254953444E+01 0.35008447878E+01 0.33270055646E+01 0.31939311104E+01 0.30931846595E+01
 0.30186397052E+01 0.29664316611E+01 0.29345765621E+01 0.29226253148E+01 0.29315827169E+01
 0.29641361490E+01 0.30250542637E+01 0.31214723279E+01 0.32627106520E+01 0.34593072844E+01
 0.37211191134E+01 0.40546582234E+01 0.44601990516E+01 0.49294446021E+01 0.56077171976E+01
 0.62759898651E+01 0.69688775674E+01 0.76279041178E+01 0.81825257855E+01 0.85632208899E+01
 0.87180486045E+01 0.86270752458E+01 0.83072470611E+01 0.78082178810E+01 0.97353465873E+01
 0.86279254203E+01 0.75493000361E+01 0.65734436811E+01 0.57377432315E+01 0.50187481494E+01
 0.44961986558E+01 0.40725115996E+01 0.37421739280E+01 0.34925013965E+01 0.33082504385E+01
 0.31750373803E+01 0.30812396497E+01 0.30186397052E+01 0.29823331980E+01 0.29704126722E+01
 0.29837800266E+01 0.30262269206E+01 0.31046981338E+01 0.32294461717E+01 0.34136365125E+01
 0.36719459698E+01 0.40179048771E+01 0.44601990516E+01 0.50869164062E+01 0.58404511556E+01
 0.67508445439E+01 0.77979485274E+01 0.89281596149E+01 0.10050394302E+02 0.11043039495E+02
 0.11773824773E+02 0.12132792727E+02 0.12062909378E+02 0.11579096201E+02 0.10762297247E+02
 0.14038587708E+02 0.12148081485E+02 0.10306541337E+02 0.86561652248E+01 0.72657083132E+01
 0.61474843773E+01 0.52206874514E+01 0.46046673686E+01 0.41199858062E+01 0.37546201501E+01
 0.34890635519E+01 0.33021538077E+01 0.31750373803E+01 0.30931846595E+01 0.30470185444E+01
 0.30318647504E+01 0.30477647028E+01 0.30994200947E+01 0.31962599244E+01 0.33523455554E+01
 0.35855839019E+01 0.39156280064E+01 0.43600982873E+01 0.49294446021E+01 0.58404511556E+01
 0.69275679195E+01 0.82909749050E+01 0.99238837690E+01 0.11764155828E+02 0.13679114928E+02
 0.15466614815E+02 0.16883273629E+02 0.17699916503E+02 0.17771013825E+02 0.17084545132E+02
 0.15766432959E+02 0.21363445485E+02 0.18119141028E+02 0.14941634635E+02 0.12109670179E+02
 0.97568785811E+01 0.79009043001E+01 0.64916166729E+01 0.53687779684E+01 0.46756571220E+01
 0.41457036353E+01 0.37591705747E+01 0.34890635519E+01 0.33082504385E+01 0.31939311104E+01
 0.31297574564E+01 0.31064933326E+01 0.31220489102E+01 0.31813769694E+01 0.32963362418E+01
 0.34852532750E+01 0.37715510166E+01 0.41806258595E+01 0.47344670325E+01 0.56077171976E+01
 0.67508445439E+01 0.82909749050E+01 0.10299939397E+02 0.12807388524E+02 0.15763004944E+02
 0.18992844363E+02 0.22182222327E+02 0.24900311143E+02 0.26689999717E+02 0.27205579495E+02
 0.26337728359E+02 0.24259903447E+02 0.33795941143E+02 0.28244233229E+02 0.22742940695E+02
 0.17849291811E+02 0.13826659293E+02 0.10708076730E+02 0.83918528246E+01 0.67224778130E+01
 0.55423419186E+01 0.47003388708E+01 0.41457036353E+01 0.37546201501E+01 0.34925013965E+01
 0.33270055646E+01 0.32328961758E+01 0.31942139850E+01 0.32049524431E+01 0.32690994710E+01
 0.34003648844E+01 0.36213669981E+01 0.39615245878E+01 0.44525882668E+01 0.52078687201E+01
 0.62759898651E+01 0.77979485274E+01 0.99238837690E+01 0.12807388524E+02 0.16562422627E+02
 0.21194631406E+02 0.26516000605E+02 0.32075788741E+02 0.37158689528E+02 0.40904465194E+02
 0.42551711543E+02 0.41721003728E+02 0.38583173777E+02 0.54575279598E+02 0.45234388732E+02
 0.35782666976E+02 0.27342712263E+02 0.20454148866E+02 0.15190853564E+02 0.11358210890E+02
 0.86605705769E+01 0.68038502167E+01 0.55423419186E+01 0.46756571220E+01 0.41199858062E+01
 0.37421739280E+01 0.35008447878E+01 0.33603563568E+01 0.32957932998E+01 0.32950434180E+01
 0.33593527924E+01 0.35030833292E+01 0.37525804738E+01 0.41432746070E+01 0.47136416062E+01
 0.56377507985E+01 0.69688775674E+01 0.89281596149E+01 0.11764155828E+02 0.15763004944E+02
 0.21194631406E+02 0.28207076619E+02 0.36669514763E+02 0.46007433392E+02 0.55123819208E+02
 0.62520514729E+02 0.66675402621E+02 0.66587123720E+02 0.62223854568E+02 0.87968087637E+02
 0.72929856134E+02 0.57126105653E+02 0.42803423605E+02 0.31116184123E+02 0.22278196093E+02
 0.15950140227E+02 0.11589577705E+02 0.86605705769E+01 0.67224778130E+01 0.53687779684E+01
 0.46046673686E+01 0.40725115996E+01 0.37254953444E+01 0.35175831667E+01 0.34131269942E+01
 0.33915787325E+01 0.34492128373E+01 0.35992232125E+01 0.38704356139E+01 0.43037063238E+01
 0.49442807197E+01 0.60319362486E+01 0.76279041178E+01 0.10050394302E+02 0.13679114928E+02
 0.18992844363E+02 0.26516000605E+02 0.36669514763E+02 0.49509329693E+02 0.64396297195E+02
 0.79770259406E+02 0.93253363627E+02 0.10218144117E+03 0.10444107293E+03 0.99325859890E+02
 0.13706927127E+03 0.11521322781E+03 0.90474364283E+02 0.67158117015E+02 0.47843550438E+02
 0.33256976409E+02 0.22935475221E+02 0.15950140227E+02 0.11358210890E+02 0.83918528246E+01
 0.64916166729E+01 0.52206874514E+01 0.44961986558E+01 0.40108494491E+01 0.37108009896E+01
 0.35491000249E+01 0.34947329283E+01 0.35365619154E+01 0.36842859090E+01 0.39672889179E+01
 0.44305836406E+01 0.51257992142E+01 0.63501493994E+01 0.81825257855E+01 0.11043039495E+02
 0.15466614815E+02 0.22182222327E+02 0.32075788741E+02 0.46007433392E+02 0.64396297195E+02
 0.86599070251E+02 0.11041532781E+03 0.13228807174E+03 0.14830966805E+03 0.15528612074E+03
 0.15141831052E+03 0.19554013978E+03 0.17097922210E+03 0.13778907009E+03 0.10314063333E+03
 0.72925517238E+02 0.49681647307E+02 0.33256976409E+02 0.22278196093E+02 0.15190853564E+02
 0.10708076730E+02 0.79009043001E+01 0.61474843773E+01 0.50187481494E+01 0.43637998924E+01
 0.39454503206E+01 0.37068699916E+01 0.36054418609E+01 0.36203466431E+01 0.37551929768E+01
 0.40374469386E+01 0.45143185953E+01 0.52428841870E+01 0.65564979918E+01 0.85632208899E+01
 0.11773824773E+02 0.16883273629E+02 0.24900311143E+02 0.37158689528E+02 0.55123819208E+02
 0.79770259406E+02 0.11041532781E+03 0.14356261310E+03 0.17340371332E+03 0.19494170540E+03
 0.20642973243E+03 0.20723558164E+03 0.22942495233E+03 0.22087590112E+03 0.19220860175E+03
 0.15025166808E+03 0.10774217885E+03 0.72925517238E+02 0.47843550438E+02 0.31116184123E+02
 0.20454148866E+02 0.13826659293E+02 0.97568785811E+01 0.72657083132E+01 0.57377432315E+01
 0.47847670758E+01 0.42239562978E+01 0.38885883206E+01 0.37247988117E+01 0.37004729145E+01
 0.38106197356E+01 0.40779969865E+01 0.45494564382E+01 0.52859230488E+01 0.66267373750E+01
 0.87180486045E+01 0.12132792727E+02 0.17699916503E+02 0.26689999717E+02 0.40904465194E+02
 0.62520514729E+02 0.93253363627E+02 0.13228807174E+03 0.17340371332E+03 0.20505356097E+03
 0.21913771125E+03 0.22188802923E+03 0.22553903915E+03 0.17559698864E+03 0.21294155150E+03
 0.22633439960E+03 0.19882182843E+03 0.15025166808E+03 0.10314063333E+03 0.67158117015E+02
 0.42803423605E+02 0.27342712263E+02 0.17849291811E+02 0.12109670179E+02 0.86561652248E+01
 0.65734436811E+01 0.52645339087E+01 0.45433106406E+01 0.40937922764E+01 0.38530953429E+01
 0.37773282719E+01 0.38509048444E+01 0.40891146749E+01 0.45355091693E+01 0.52525615457E+01
 0.65547740768E+01 0.86270752458E+01 0.12062909378E+02 0.17771013825E+02 0.27205579495E+02
 0.42551711543E+02 0.66675402621E+02 0.10218144117E+03 0.14830966805E+03 0.19494170540E+03
 0.21913771125E+03 0.20199645132E+03 0.16544880930E+03 0.15382041939E+03 0.12823524850E+03
 0.12269775120E+03 0.19732256365E+03 0.22633439960E+03 0.19220860175E+03 0.13778907009E+03
 0.90474364283E+02 0.57126105653E+02 0.35782666976E+02 0.22742940695E+02 0.14941634635E+02
 0.10306541337E+02 0.75493000361E+01 0.58994025339E+01 0.48932033395E+01 0.43178971382E+01
 0.39887488860E+01 0.38510520664E+01 0.38775561741E+01 0.40737604681E+01 0.44769148399E+01
 0.51481395306E+01 0.63539553390E+01 0.83072470611E+01 0.11579096201E+02 0.17084545132E+02
 0.26337728359E+02 0.41721003728E+02 0.66587123720E+02 0.10444107293E+03 0.15528612074E+03
 0.20642973243E+03 0.22188802923E+03 0.16544880930E+03 0.10034744708E+03 0.13870823058E+03
 0.85534119867E+03 0.24818480951E+03 0.12269775120E+03 0.21294155150E+03 0.22087590112E+03
 0.17097922210E+03 0.11521322781E+03 0.72929856134E+02 0.45234388732E+02 0.28244233229E+02
 0.18119141028E+02 0.12148081485E+02 0.86279254203E+01 0.65409879319E+01 0.52554650712E+01
 0.45513073993E+01 0.41274515979E+01 0.39207728097E+01 0.38924977725E+01 0.40368423447E+01
 0.43821026502E+01 0.49848287469E+01 0.60523109496E+01 0.78082178810E+01 0.10762297247E+02
 0.15766432959E+02 0.24259903447E+02 0.38583173777E+02 0.62223854568E+02 0.99325859890E+02
 0.15141831052E+03 0.20723558164E+03 0.22553903915E+03 0.15382041939E+03 0.13870823058E+03
 0.66391942915E+03 0.85534119867E+03 0.66391942915E+03 0.13870823058E+03 0.15382041939E+03
 0.22553903915E+03 0.20723558164E+03 0.15141831052E+03 0.99325859890E+02 0.62223854568E+02
 0.38583173778E+02 0.24259903448E+02 0.15766432960E+02 0.10762297247E+02 0.78082178810E+01
 0.60523109492E+01 0.49848287462E+01 0.43821026493E+01 0.40368423440E+01 0.38924977721E+01
 0.39207728097E+01 0.41274515984E+01 0.45513074001E+01 0.52554650721E+01 0.65409879327E+01
 0.86279254208E+01 0.12148081485E+02 0.18119141027E+02 0.28244233228E+02 0.45234388731E+02
 0.72929856133E+02 0.11521322781E+03 0.17097922210E+03 0.22087590112E+03 0.21294155150E+03
 0.12269775121E+03 0.24818480952E+03 0.66391942915E+03 0.85534119867E+03 0.24818480952E+03
 0.12269775121E+03 0.21294155150E+03 0.22087590112E+03 0.17097922210E+03 0.11521322781E+03
 0.72929856133E+02 0.45234388731E+02 0.28244233228E+02 0.18119141027E+02 0.12148081485E+02
 0.86279254208E+01 0.65409879327E+01 0.52554650721E+01 0.45513074001E+01 0.41274515984E+01
 0.39207728097E+01 0.38924977721E+01 0.40368423440E+01 0.43821026493E+01 0.49848287462E+01
 0.60523109492E+01 0.78082178810E+01 0.10762297247E+02 0.15766432960E+02 0.24259903448E+02
 0.38583173778E+02 0.62223854568E+02 0.99325859890E+02 0.15141831052E+03 0.20723558164E+03
 0.22553903915E+03 0.15382041939E+03 0.13870823058E+03 0.13870823058E+03 0.24818480952E+03
 0.13870823058E+03 0.12430371676E+03 0.20680542437E+03 0.22244034823E+03 0.17925990886E+03
 0.12433537933E+03 0.80139609488E+02 0.50178097325E+02 0.31406974214E+02 0.20073690962E+02
 0.13335986996E+02 0.93446279921E+01 0.69723514216E+01 0.54843738512E+01 0.46957675833E+01
 0.42024530649E+01 0.39380993989E+01 0.38555683682E+01 0.39380993985E+01 0.42024530642E+01
 0.46957675825E+01 0.54843738504E+01 0.69723514211E+01 0.93446279921E+01 0.13335986997E+02
 0.20073690963E+02 0.31406974215E+02 0.50178097326E+02 0.80139609489E+02 0.12433537933E+03
 0.17925990886E+03 0.22244034823E+03 0.20680542437E+03 0.12430371676E+03 0.15382041939E+03
 0.12269775121E+03 0.12430371676E+03 0.16544880930E+03 0.21450217928E+03 0.21591253712E+03
 0.17546726220E+03 0.12467061739E+03 0.82210031927E+02 0.52377513927E+02 0.33156672955E+02
 0.21306181171E+02 0.14151464181E+02 0.98650750048E+01 0.72955377507E+01 0.57478947294E+01
 0.48010245578E+01 0.42536565736E+01 0.39412051985E+01 0.38109854462E+01 0.38369297675E+01
 0.40244159449E+01 0.44093759325E+01 0.50511276637E+01 0.61861954427E+01 0.80210328564E+01
 0.11072937291E+02 0.16169246149E+02 0.24665253946E+02 0.38670619223E+02 0.61144902268E+02
 0.95288358212E+02 0.14188858512E+03 0.19294047022E+03 0.22435059020E+03 0.20680542437E+03
 0.22553903915E+03 0.21294155150E+03 0.20680542437E+03 0.21450217928E+03 0.21913771125E+03
 0.20043010590E+03 0.16084769896E+03 0.11637384085E+03 0.78707404845E+02 0.51348705936E+02
 0.33134053692E+02 0.21587509342E+02 0.14458155111E+02 0.10109900114E+02 0.74667607996E+01
 0.58559760337E+01 0.48548597138E+01 0.42735887727E+01 0.39265496768E+01 0.37585962203E+01
 0.37368133977E+01 0.38564846909E+01 0.41418590263E+01 0.46421942798E+01 0.54208234741E+01
 0.68657253829E+01 0.91198620647E+01 0.12827843588E+02 0.18922129756E+02 0.28854570113E+02
 0.44716715008E+02 0.69076251032E+02 0.10394789252E+03 0.14808567596E+03 0.19294047022E+03
 0.22244034823E+03 0.20723558164E+03 0.22087590112E+03 0.22244034823E+03 0.21591253712E+03
 0.20043010590E+03 0.17340371332E+03 0.13786867995E+03 0.10149054872E+03 0.70548958953E+02
 0.47358010440E+02 0.31352128367E+02 0.20862942794E+02 0.14199607089E+02 0.10038159914E+02
 0.74586892406E+01 0.58606478997E+01 0.48494562581E+01 0.42569739939E+01 0.38912505299E+01
 0.36976158412E+01 0.36391663541E+01 0.37032380538E+01 0.39032082015E+01 0.42767937584E+01
 0.48796406389E+01 0.59063983498E+01 0.75278832924E+01 0.10145034836E+02 0.14369520009E+02
 0.21141766685E+02 0.31823592257E+02 0.48173909946E+02 0.71974635365E+02 0.10394789252E+03
 0.14188858512E+03 0.17925990886E+03 0.15141831052E+03 0.17097922210E+03 0.17925990886E+03
 0.17546726220E+03 0.16084769896E+03 0.13786867995E+03 0.11041532781E+03 0.83111767657E+02
 0.59550463300E+02 0.41287482049E+02 0.28184793569E+02 0.19272204963E+02 0.13419192874E+02
 0.96581505532E+01 0.72689590403E+01 0.57577721116E+01 0.47828296371E+01 0.42018985743E+01
 0.38339767393E+01 0.36273511530E+01 0.35439869411E+01 0.35658840265E+01 0.36973559069E+01
 0.39647030153E+01 0.44129361767E+01 0.50975374989E+01 0.62831739308E+01 0.80910572806E+01
 0.10947422404E+02 0.15434575958E+02 0.22388313178E+02 0.32900176448E+02 0.48173909946E+02
 0.69076251032E+02 0.95288358212E+02 0.12433537933E+03 0.99325859890E+02 0.11521322781E+03
 0.12433537933E+03 0.12467061739E+03 0.11637384085E+03 0.10149054872E+03 0.83111767657E+02
 0.64396297196E+02 0.47719677132E+02 0.34274261339E+02 0.24217434820E+02 0.17096079077E+02
 0.12245363713E+02 0.90252625878E+01 0.69212879223E+01 0.55572116567E+01 0.46592260850E+01
 0.41103692171E+01 0.37555594797E+01 0.35478950473E+01 0.34507288686E+01 0.34433916566E+01
 0.35235034276E+01 0.37073419802E+01 0.40284677439E+01 0.45334381117E+01 0.52725637008E+01
 0.65709755081E+01 0.84719298592E+01 0.11389655772E+02 0.15816031679E+02 0.22388313178E+02
 0.31823592257E+02 0.44716715008E+02 0.61144902268E+02 0.80139609489E+02 0.62223854568E+02
 0.72929856133E+02 0.80139609488E+02 0.82210031927E+02 0.78707404845E+02 0.70548958953E+02
 0.59550463300E+02 0.47719677132E+02 0.36669514763E+02 0.27344355446E+02 0.20051175928E+02
 0.14664215554E+02 0.10849399800E+02 0.82271112151E+01 0.64591333965E+01 0.51996183993E+01
 0.44884470317E+01 0.39881341556E+01 0.36591483831E+01 0.34605787678E+01 0.33591158854E+01
 0.33337982045E+01 0.33780409316E+01 0.35002380204E+01 0.37233825272E+01 0.40831764665E+01
 0.46232345990E+01 0.53857408715E+01 0.67275194389E+01 0.86067353084E+01 0.11389655772E+02
 0.15434575958E+02 0.21141766685E+02 0.28854570113E+02 0.38670619223E+02 0.50178097326E+02
 0.38583173778E+02 0.45234388731E+02 0.50178097325E+02 0.52377513927E+02 0.51348705936E+02
 0.47358010440E+02 0.41287482049E+02 0.34274261339E+02 0.27344355446E+02 0.21194631406E+02