unknown system                          
   1.00000000000000     
     1.420026    1.420026    1.420026
     1.420026   -1.420026   -1.420026
    -1.420026    1.420026   -1.420026
   Fe
     1
Direct
  0.000000  0.000000  0.000000
 
   36   36   36
 0.37421701062E+03 0.83260237707E+03 0.12889586872E+03 0.17543917106E+03 0.22710240156E+03
 0.19371386761E+03 0.13645902055E+03 0.88241574819E+02 0.55252193421E+02 0.34542884203E+02
 0.21989943914E+02 0.14463041248E+02 0.99238260574E+01 0.71694658923E+01 0.53696630284E+01
 0.44170628617E+01 0.38025537711E+01 0.34726599188E+01 0.33675149654E+01 0.34726599188E+01
 0.38025537711E+01 0.44170628617E+01 0.53696630284E+01 0.71694658923E+01 0.99238260574E+01
 0.14463041248E+02 0.21989943914E+02 0.34542884203E+02 0.55252193421E+02 0.88241574819E+02
 0.13645902055E+03 0.19371386761E+03 0.22710240156E+03 0.17543917106E+03 0.12889586872E+03
 0.83260237707E+03 0.83260237707E+03 0.65129314299E+03 0.14419888701E+03 0.15748486403E+03
 0.22502124470E+03 0.20594315923E+03 0.15089667068E+03 0.99610565339E+02 0.62936713810E+02
 0.39394036434E+02 0.24969048440E+02 0.16274956723E+02 0.11035824276E+02 0.78508049676E+01
 0.58900460360E+01 0.46642997746E+01 0.39490477166E+01 0.35389815621E+01 0.33646108960E+01
 0.33987323138E+01 0.36470789978E+01 0.41500291488E+01 0.49772061395E+01 0.64463219737E+01
 0.87415651212E+01 0.12501066230E+02 0.18696807606E+02 0.28998417943E+02 0.46028864516E+02
 0.73521699638E+02 0.11521769377E+03 0.17004233465E+03 0.21928976012E+03 0.21275020038E+03
 0.12631249195E+03 0.24634654013E+03 0.12889586872E+03 0.14419888701E+03 0.11403566852E+03
 0.17543676256E+03 0.22581987146E+03 0.20759591942E+03 0.15597257130E+03 0.10531859493E+03
 0.67624979534E+02 0.42736130539E+02 0.27198289805E+02 0.17711955667E+02 0.11953138704E+02
 0.84299070063E+01 0.62608978091E+01 0.48729789910E+01 0.40757599499E+01 0.35936149216E+01
 0.33541808507E+01 0.33221854489E+01 0.34890317116E+01 0.38839337335E+01 0.45704537662E+01
 0.57334894263E+01 0.75909784216E+01 0.10583272502E+02 0.15467734238E+02 0.23498229964E+02
 0.36699754278E+02 0.58058953502E+02 0.91186014349E+02 0.13800054127E+03 0.19190299901E+03
 0.22636542420E+03 0.19944264290E+03 0.12631249195E+03 0.17543917106E+03 0.15748486403E+03
 0.17543676256E+03 0.21274799713E+03 0.22636471927E+03 0.19906255636E+03 0.15089408931E+03
 0.10414619420E+03 0.68326149230E+02 0.43930249265E+02 0.28297898980E+02 0.18559756673E+02
 0.12557155846E+02 0.88425334548E+01 0.65351629795E+01 0.50275156892E+01 0.41711446433E+01
 0.36311307710E+01 0.33345615956E+01 0.32446677681E+01 0.33348172182E+01 0.36316419786E+01
 0.41718752505E+01 0.50284676077E+01 0.65362754209E+01 0.88437672409E+01 0.12558507056E+02
 0.18561412229E+02 0.28298962555E+02 0.43931965407E+02 0.68327423903E+02 0.10414782139E+03
 0.15089704456E+03 0.19906414331E+03 0.22636542420E+03 0.21275020038E+03 0.22710240156E+03
 0.22502124470E+03 0.22581987146E+03 0.22636471927E+03 0.21234261761E+03 0.17911642543E+03
 0.13645483320E+03 0.96345945593E+02 0.64887821655E+02 0.42728485202E+02 0.28065483522E+02
 0.18679006600E+02 0.12761594820E+02 0.90340357084E+01 0.66835248755E+01 0.51146305490E+01
 0.42258890326E+01 0.36447992240E+01 0.33051636772E+01 0.31644798259E+01 0.31909595504E+01
 0.33970852323E+01 0.38080912957E+01 0.44906814979E+01 0.56084494021E+01 0.73552109279E+01
 0.10094292749E+02 0.14441127449E+02 0.21348276059E+02 0.32265090273E+02 0.49175610340E+02
 0.74297470633E+02 0.10891785155E+03 0.15089704456E+03 0.19190299901E+03 0.21928976012E+03
 0.19371386761E+03 0.20594315923E+03 0.20759591942E+03 0.19906255636E+03 0.17911642543E+03
 0.14922744804E+03 0.11521338854E+03 0.83565676942E+02 0.58049515249E+02 0.39377671938E+02
 0.26545716664E+02 0.18047002772E+02 0.12535110989E+02 0.89763536902E+01 0.66884006538E+01
 0.51253538461E+01 0.42331883844E+01 0.36299190582E+01 0.32638761490E+01 0.30814897185E+01
 0.30583564707E+01 0.31849822797E+01 0.34888348104E+01 0.40042247976E+01 0.48010262488E+01
 0.61233612757E+01 0.81059826362E+01 0.11178742630E+02 0.15943174728E+02 0.23311709198E+02
 0.34530074649E+02 0.51100044332E+02 0.74297470633E+02 0.10414782139E+03 0.13800054127E+03
 0.17004233465E+03 0.13645902055E+03 0.15089667068E+03 0.15597257130E+03 0.15089408931E+03
 0.13645483320E+03 0.11521338854E+03 0.91179222681E+02 0.68317189350E+02 0.49165664380E+02
 0.34518756268E+02 0.24008998258E+02 0.16770023512E+02 0.11908685731E+02 0.86771033186E+01
 0.65451028221E+01 0.50594506794E+01 0.41869697998E+01 0.35871206132E+01 0.32057723181E+01
 0.29990359512E+01 0.29326516734E+01 0.30013017876E+01 0.32102082283E+01 0.35936291027E+01
 0.41952135491E+01 0.50694006218E+01 0.65561824417E+01 0.86886238169E+01 0.11921474088E+02
 0.16781677683E+02 0.24022347670E+02 0.34530074649E+02 0.49175610340E+02 0.68327423903E+02
 0.91186014349E+02 0.11521769377E+03 0.88241574819E+02 0.99610565339E+02 0.10531859493E+03
 0.10414619420E+03 0.96345945593E+02 0.83565676942E+02 0.68317189350E+02 0.53110859297E+02
 0.39726410761E+02 0.28967312528E+02 0.20868835806E+02 0.15041398092E+02 0.10971216094E+02
 0.81728655371E+01 0.62697047481E+01 0.49185796343E+01 0.40908548727E+01 0.35139009394E+01
 0.31335967263E+01 0.29132914209E+01 0.28176487286E+01 0.28395938006E+01 0.29770656007E+01
 0.32512901702E+01 0.36935308128E+01 0.43543654358E+01 0.52684492304E+01 0.68456462181E+01
 0.90094713077E+01 0.12186433663E+02 0.16781677683E+02 0.23311709198E+02 0.32265090273E+02
 0.43931965407E+02 0.58058953502E+02 0.73521699638E+02 0.55252193421E+02 0.62936713810E+02
 0.67624979534E+02 0.68326149230E+02 0.64887821655E+02 0.58049515249E+02 0.49165664380E+02
 0.39726410761E+02 0.30928799526E+02 0.23462010133E+02 0.17551011187E+02 0.13091396220E+02
 0.98424314063E+01 0.75228352686E+01 0.58906010791E+01 0.47113361283E+01 0.39512267921E+01
 0.34129339645E+01 0.30484727550E+01 0.28251004697E+01 0.27120142778E+01 0.26994553793E+01
 0.27833161043E+01 0.29738765502E+01 0.32920294013E+01 0.37726037897E+01 0.44588846489E+01
 0.54900890849E+01 0.69466948887E+01 0.90094713077E+01 0.11921474088E+02 0.15943174728E+02
 0.21348276059E+02 0.28298962555E+02 0.36699754278E+02 0.46028864516E+02 0.34542884203E+02
 0.39394036434E+02 0.42736130539E+02 0.43930249265E+02 0.42728485202E+02 0.39377671938E+02
 0.34518756268E+02 0.28967312528E+02 0.23462010133E+02 0.18523109950E+02 0.14396250702E+02
 0.11131117232E+02 0.86418397239E+01 0.67961104034E+01 0.54444244836E+01 0.44523647257E+01
 0.37770162123E+01 0.32901046438E+01 0.29525247466E+01 0.27362660074E+01 0.26148953328E+01
 0.25799686624E+01 0.26237215948E+01 0.27537242349E+01 0.29778073762E+01 0.33226110386E+01
 0.38150317236E+01 0.44960914848E+01 0.54900890849E+01 0.68456462181E+01 0.86886238169E+01
 0.11178742630E+02 0.14441127449E+02 0.18561412229E+02 0.23498229964E+02 0.28998417943E+02
 0.21989943914E+02 0.24969048440E+02 0.27198289805E+02 0.28297898980E+02 0.28065483522E+02
 0.26545716664E+02 0.24008998258E+02 0.20868835806E+02 0.17551011187E+02 0.14396250702E+02
 0.11620115357E+02 0.93144229743E+01 0.74728481841E+01 0.60521170032E+01 0.49128524519E+01
 0.41597733123E+01 0.35806017683E+01 0.31518403818E+01 0.28506463321E+01 0.26476042622E+01
 0.25280065021E+01 0.24783124211E+01 0.24964742419E+01 0.25805199737E+01 0.27392555928E+01
 0.29824455265E+01 0.33335624989E+01 0.38150317236E+01 0.44588846489E+01 0.52684492304E+01
 0.65561824417E+01 0.81059826362E+01 0.10094292749E+02 0.12558507056E+02 0.15467734238E+02
 0.18696807606E+02 0.14463041248E+02 0.16274956723E+02 0.17711955667E+02 0.18559756673E+02
 0.18679006600E+02 0.18047002772E+02 0.16770023512E+02 0.15041398092E+02 0.13091396220E+02
 0.11131117232E+02 0.93144229743E+01 0.77269601343E+01 0.64070050327E+01 0.52367700400E+01
 0.44786981453E+01 0.38568599392E+01 0.33720744187E+01 0.30083528755E+01 0.27453903067E+01
 0.25637744579E+01 0.24502346014E+01 0.23960317259E+01 0.23963955048E+01 0.24506076627E+01
 0.25610505798E+01 0.27349177953E+01 0.29824455265E+01 0.33226110386E+01 0.37726037897E+01
 0.43543654358E+01 0.50694006218E+01 0.61233612757E+01 0.73552109279E+01 0.88437672409E+01
 0.10583272502E+02 0.12501066230E+02 0.99238260574E+01 0.11035824276E+02 0.11953138704E+02
 0.12557155846E+02 0.12761594820E+02 0.12535110989E+02 0.11908685731E+02 0.10971216094E+02
 0.98424314063E+01 0.86418397239E+01 0.74728481841E+01 0.64070050327E+01 0.54760073262E+01
 0.46591033988E+01 0.40556899295E+01 0.35591127341E+01 0.31656312563E+01 0.28656020998E+01
 0.26432783364E+01 0.24862002923E+01 0.23845289368E+01 0.23315885202E+01 0.23233039970E+01
 0.23578172464E+01 0.24361354364E+01 0.25610505798E+01 0.27392555928E+01 0.29778073762E+01
 0.32920294013E+01 0.36935308128E+01 0.41952135491E+01 0.48010262488E+01 0.56084494021E+01
 0.65362754209E+01 0.75909784216E+01 0.87415651212E+01 0.71694658923E+01 0.78508049676E+01
 0.84299070063E+01 0.88425334548E+01 0.90340357084E+01 0.89763536902E+01 0.86771033186E+01
 0.81728655371E+01 0.75228352686E+01 0.67961104034E+01 0.60521170032E+01 0.52367700400E+01
 0.46591033988E+01 0.41280745099E+01 0.36663738594E+01 0.32808187095E+01 0.29714454474E+01
 0.27305077313E+01 0.25488107892E+01 0.24182889259E+01 0.23323529104E+01 0.22861104337E+01
 0.22759051025E+01 0.23000856653E+01 0.23578172464E+01 0.24506076627E+01 0.25805199737E+01
 0.27537242349E+01 0.29738765502E+01 0.32512901702E+01 0.35936291027E+01 0.40042247976E+01
 0.44906814979E+01 0.50284676077E+01 0.57334894263E+01 0.64463219737E+01 0.53696630284E+01
 0.58900460360E+01 0.62608978091E+01 0.65351629795E+01 0.66835248755E+01 0.66884006538E+01
 0.65451028221E+01 0.62697047481E+01 0.58906010791E+01 0.54444244836E+01 0.49128524519E+01
 0.44786981453E+01 0.40556899295E+01 0.36663738594E+01 0.33230283388E+01 0.30330359423E+01
 0.27962513611E+01 0.26087966109E+01 0.24659738963E+01 0.23630145743E+01 0.22958429773E+01
 0.22605885924E+01 0.22547353129E+01 0.22759051025E+01 0.23233039970E+01 0.23963955048E+01
 0.24964742419E+01 0.26237215948E+01 0.27833161043E+01 0.29770656007E+01 0.32102082283E+01
 0.34888348104E+01 0.38080912957E+01 0.41718752505E+01 0.45704537662E+01 0.49772061395E+01
 0.44170628617E+01 0.46642997746E+01 0.48729789910E+01 0.50275156892E+01 0.51146305490E+01
 0.51253538461E+01 0.50594506794E+01 0.49185796343E+01 0.47113361283E+01 0.44523647257E+01
 0.41597733123E+01 0.38568599392E+01 0.35591127341E+01 0.32808187095E+01 0.30330359423E+01
 0.28205638545E+01 0.26446423583E+01 0.25044872069E+01 0.23981271164E+01 0.23232278920E+01
 0.22769597485E+01 0.22569467860E+01 0.22605885924E+01 0.22861104337E+01 0.23315885202E+01
 0.23960317259E+01 0.24783124211E+01 0.25799686624E+01 0.26994553793E+01 0.28395938006E+01
 0.30013017876E+01 0.31849822797E+01 0.33970852323E+01 0.36316419786E+01 0.38839337335E+01
 0.41500291488E+01 0.38025537711E+01 0.39490477166E+01 0.40757599499E+01 0.41711446433E+01
 0.42258890326E+01 0.42331883844E+01 0.41869697998E+01 0.40908548727E+01 0.39512267921E+01
 0.37770162123E+01 0.35806017683E+01 0.33720744187E+01 0.31656312563E+01 0.29714454474E+01
 0.27962513611E+01 0.26446423583E+01 0.25190451380E+01 0.24202214861E+01 0.23479797799E+01
 0.23010674429E+01 0.22781027126E+01 0.22769597485E+01 0.22958429773E+01 0.23323529104E+01
 0.23845289368E+01 0.24502346014E+01 0.25280065021E+01 0.26148953328E+01 0.27120142778E+01
 0.28176487286E+01 0.29326516734E+01 0.30583564707E+01 0.31909595504E+01 0.33348172182E+01
 0.34890317116E+01 0.36470789978E+01 0.34726599188E+01 0.35389815621E+01 0.35936149216E+01
 0.36311307710E+01 0.36447992240E+01 0.36299190582E+01 0.35871206132E+01 0.35139009394E+01
 0.34129339645E+01 0.32901046438E+01 0.31518403818E+01 0.30083528755E+01 0.28656020998E+01
 0.27305077313E+01 0.26087966109E+01 0.25044872069E+01 0.24202214861E+01 0.23576445110E+01
 0.23171333728E+01 0.22986430572E+01 0.23010674429E+01 0.23232278920E+01 0.23630145743E+01
 0.24182889259E+01 0.24862002923E+01 0.25637744579E+01 0.26476042622E+01 0.27362660074E+01
 0.28251004697E+01 0.29132914209E+01 0.29990359512E+01 0.30814897185E+01 0.31644798259E+01
 0.32446677681E+01 0.33221854489E+01 0.33987323138E+01 0.33675149654E+01 0.33646108960E+01
 0.33541808507E+01 0.33345615956E+01 0.33051636772E+01 0.32638761490E+01 0.32057723181E+01
 0.31335967263E+01 0.30484727550E+01 0.29525247466E+01 0.28506463321E+01 0.27453903067E+01
 0.26432783364E+01 0.25488107892E+01 0.24659738963E+01 0.23981271164E+01 0.23479797799E+01
 0.23171333728E+01 0.23068125407E+01 0.23171333728E+01 0.23479797799E+01 0.23981271164E+01
 0.24659738963E+01 0.25488107892E+01 0.26432783364E+01 0.27453903067E+01 0.28506463321E+01
 0.29525247466E+01 0.30484727550E+01 0.31335967263E+01 0.32057723181E+01 0.32638761490E+01
 0.33051636772E+01 0.33345615956E+01 0.33541808507E+01 0.33646108960E+01 0.34726599188E+01
 0.33987323138E+01 0.33221854489E+01 0.32446677681E+01 0.31644798259E+01 0.30814897185E+01
 0.29990359512E+01 0.29132914209E+01 0.28251004697E+01 0.27362660074E+01 0.26476042622E+01
 0.25637744579E+01 0.24862002923E+01 0.24182889259E+01 0.23630145743E+01 0.23232278920E+01
 0.23010674429E+01 0.22986430572E+01 0.23171333728E+01 0.23576445110E+01 0.24202214861E+01
 0.25044872069E+01 0.26087966109E+01 0.27305077313E+01 0.28656020998E+01 0.30083528755E+01
 0.31518403818E+01 0.32901046438E+01 0.34129339645E+01 0.35139009394E+01 0.35871206132E+01
 0.36299190582E+01 0.36447992240E+01 0.36311307710E+01 0.35936149216E+01 0.35389815621E+01
 0.38025537711E+01 0.36470789978E+01 0.34890317116E+01 0.33348172182E+01 0.31909595504E+01
 0.30583564707E+01 0.29326516734E+01 0.28176487286E+01 0.27120142778E+01 0.26148953328E+01
 0.25280065021E+01 0.24502346014E+01 0.23845289368E+01 0.23323529104E+01 0.22958429773E+01
 0.22769597485E+01 0.22781027126E+01 0.23010674429E+01 0.23479797799E+01 0.24202214861E+01
 0.25190451380E+01 0.26446423583E+01 0.27962513611E+01 0.29714454474E+01 0.31656312563E+01
 0.33720744187E+01 0.35806017683E+01 0.37770162123E+01 0.39512267921E+01 0.40908548727E+01
 0.41869697998E+01 0.42331883844E+01 0.42258890326E+01 0.41711446433E+01 0.40757599499E+01
 0.39490477166E+01 0.44170628617E+01 0.41500291488E+01 0.38839337335E+01 0.36316419786E+01
 0.33970852323E+01 0.31849822797E+01 0.30013017876E+01 0.28395938006E+01 0.26994553793E+01
 0.25799686624E+01 0.24783124211E+01 0.23960317259E+01 0.23315885202E+01 0.22861104337E+01
 0.22605885924E+01 0.22569467860E+01 0.22769597485E+01 0.23232278920E+01 0.23981271164E+01
 0.25044872069E+01 0.26446423583E+01 0.28205638545E+01 0.30330359423E+01 0.32808187095E+01
 0.35591127341E+01 0.38568599392E+01 0.41597733123E+01 0.44523647257E+01 0.47113361283E+01
 0.49185796343E+01 0.50594506794E+01 0.51253538461E+01 0.51146305490E+01 0.50275156892E+01
 0.48729789910E+01 0.46642997746E+01 0.53696630284E+01 0.49772061395E+01 0.45704537662E+01
 0.41718752505E+01 0.38080912957E+01 0.34888348104E+01 0.32102082283E+01 0.29770656007E+01
 0.27833161043E+01 0.26237215948E+01 0.24964742419E+01 0.23963955048E+01 0.23233039970E+01
 0.22759051025E+01 0.22547353129E+01 0.22605885924E+01 0.22958429773E+01 0.23630145743E+01
 0.24659738963E+01 0.26087966109E+01 0.27962513611E+01 0.30330359423E+01 0.33230283388E+01
 0.36663738594E+01 0.40556899295E+01 0.44786981453E+01 0.49128524519E+01 0.54444244836E+01
 0.58906010791E+01 0.62697047481E+01 0.65451028221E+01 0.66884006538E+01 0.66835248755E+01
 0.65351629795E+01 0.62608978091E+01 0.58900460360E+01 0.71694658923E+01 0.64463219737E+01
 0.57334894263E+01 0.50284676077E+01 0.44906814979E+01 0.40042247976E+01 0.35936291027E+01
 0.32512901702E+01 0.29738765502E+01 0.27537242349E+01 0.25805199737E+01 0.24506076627E+01
 0.23578172464E+01 0.23000856653E+01 0.22759051025E+01 0.22861104337E+01 0.23323529104E+01
 0.24182889259E+01 0.25488107892E+01 0.27305077313E+01 0.29714454474E+01 0.32808187095E+01
 0.36663738594E+01 0.41280745099E+01 0.46591033988E+01 0.52367700400E+01 0.60521170032E+01
 0.67961104034E+01 0.75228352686E+01 0.81728655371E+01 0.86771033186E+01 0.89763536902E+01
 0.90340357084E+01 0.88425334548E+01 0.84299070063E+01 0.78508049676E+01 0.99238260574E+01
 0.87415651212E+01 0.75909784216E+01 0.65362754209E+01 0.56084494021E+01 0.48010262488E+01
 0.41952135491E+01 0.36935308128E+01 0.32920294013E+01 0.29778073762E+01 0.27392555928E+01
 0.25610505798E+01 0.24361354364E+01 0.23578172464E+01 0.23233039970E+01 0.23315885202E+01
 0.23845289368E+01 0.24862002923E+01 0.26432783364E+01 0.28656020998E+01 0.31656312563E+01
 0.35591127341E+01 0.40556899295E+01 0.46591033988E+01 0.54760073262E+01 0.64070050327E+01
 0.74728481841E+01 0.86418397239E+01 0.98424314063E+01 0.10971216094E+02 0.11908685731E+02
 0.12535110989E+02 0.12761594820E+02 0.12557155846E+02 0.11953138704E+02 0.11035824276E+02
 0.14463041248E+02 0.12501066230E+02 0.10583272502E+02 0.88437672409E+01 0.73552109279E+01
 0.61233612757E+01 0.50694006218E+01 0.43543654358E+01 0.37726037897E+01 0.33226110386E+01
 0.29824455265E+01 0.27349177953E+01 0.25610505798E+01 0.24506076627E+01 0.23963955048E+01
 0.23960317259E+01 0.24502346014E+01 0.25637744579E+01 0.27453903067E+01 0.30083528755E+01
 0.33720744187E+01 0.38568599392E+01 0.44786981453E+01 0.52367700400E+01 0.64070050327E+01
 0.77269601343E+01 0.93144229743E+01 0.11131117232E+02 0.13091396220E+02 0.15041398092E+02
 0.16770023512E+02 0.18047002772E+02 0.18679006600E+02 0.18559756673E+02 0.17711955667E+02
 0.16274956723E+02 0.21989943914E+02 0.18696807606E+02 0.15467734238E+02 0.12558507056E+02
 0.10094292749E+02 0.81059826362E+01 0.65561824417E+01 0.52684492304E+01 0.44588846489E+01
 0.38150317236E+01 0.33335624989E+01 0.29824455265E+01 0.27392555928E+01 0.25805199737E+01
 0.24964742419E+01 0.24783124211E+01 0.25280065021E+01 0.26476042622E+01 0.28506463321E+01
 0.31518403818E+01 0.35806017683E+01 0.41597733123E+01 0.49128524519E+01 0.60521170032E+01
 0.74728481841E+01 0.93144229743E+01 0.11620115357E+02 0.14396250702E+02 0.17551011187E+02
 0.20868835806E+02 0.24008998258E+02 0.26545716664E+02 0.28065483522E+02 0.28297898980E+02
 0.27198289805E+02 0.24969048440E+02 0.34542884203E+02 0.28998417943E+02 0.23498229964E+02
 0.18561412229E+02 0.14441127449E+02 0.11178742630E+02 0.86886238169E+01 0.68456462181E+01
 0.54900890849E+01 0.44960914848E+01 0.38150317236E+01 0.33226110386E+01 0.29778073762E+01
 0.27537242349E+01 0.26237215948E+01 0.25799686624E+01 0.26148953328E+01 0.27362660074E+01
 0.29525247466E+01 0.32901046438E+01 0.37770162123E+01 0.44523647257E+01 0.54444244836E+01
 0.67961104034E+01 0.86418397239E+01 0.11131117232E+02 0.14396250702E+02 0.18523109950E+02
 0.23462010133E+02 0.28967312528E+02 0.34518756268E+02 0.39377671938E+02 0.42728485202E+02
 0.43930249265E+02 0.42736130539E+02 0.39394036434E+02 0.55252193421E+02 0.46028864516E+02
 0.36699754278E+02 0.28298962555E+02 0.21348276059E+02 0.15943174728E+02 0.11921474088E+02
 0.90094713077E+01 0.69466948887E+01 0.54900890849E+01 0.44588846489E+01 0.37726037897E+01
 0.32920294013E+01 0.29738765502E+01 0.27833161043E+01 0.26994553793E+01 0.27120142778E+01
 0.28251004697E+01 0.30484727550E+01 0.34129339645E+01 0.39512267921E+01 0.47113361283E+01
 0.58906010791E+01 0.75228352686E+01 0.98424314063E+01 0.13091396220E+02 0.17551011187E+02
 0.23462010133E+02 0.30928799526E+02 0.39726410761E+02 0.49165664380E+02 0.58049515249E+02
 0.64887821655E+02 0.68326149230E+02 0.67624979534E+02 0.62936713810E+02 0.88241574819E+02
 0.73521699638E+02 0.58058953502E+02 0.43931965407E+02 0.32265090273E+02 0.23311709198E+02
 0.16781677683E+02 0.12186433663E+02 0.90094713077E+01 0.68456462181E+01 0.52684492304E+01
 0.43543654358E+01 0.36935308128E+01 0.32512901702E+01 0.29770656007E+01 0.28395938006E+01
 0.28176487286E+01 0.29132914209E+01 0.31335967263E+01 0.35139009394E+01 0.40908548727E+01
 0.49185796343E+01 0.62697047481E+01 0.81728655371E+01 0.10971216094E+02 0.15041398092E+02
 0.20868835806E+02 0.28967312528E+02 0.39726410761E+02 0.53110859297E+02 0.68317189350E+02
 0.83565676942E+02 0.96345945593E+02 0.10414619420E+03 0.10531859493E+03 0.99610565339E+02
 0.13645902055E+03 0.11521769377E+03 0.91186014349E+02 0.68327423903E+02 0.49175610340E+02
 0.34530074649E+02 0.24022347670E+02 0.16781677683E+02 0.11921474088E+02 0.86886238169E+01
 0.65561824417E+01 0.50694006218E+01 0.41952135491E+01 0.35936291027E+01 0.32102082283E+01
 0.30013017876E+01 0.29326516734E+01 0.29990359512E+01 0.32057723181E+01 0.35871206132E+01
 0.41869697998E+01 0.50594506794E+01 0.65451028221E+01 0.86771033186E+01 0.11908685731E+02
 0.16770023512E+02 0.24008998258E+02 0.34518756268E+02 0.49165664380E+02 0.68317189350E+02
 0.91179222681E+02 0.11521338854E+03 0.13645483320E+03 0.15089408931E+03 0.15597257130E+03
 0.15089667068E+03 0.19371386761E+03 0.17004233465E+03 0.13800054127E+03 0.10414782139E+03
 0.74297470633E+02 0.51100044332E+02 0.34530074649E+02 0.23311709198E+02 0.15943174728E+02
 0.11178742630E+02 0.81059826362E+01 0.61233612757E+01 0.48010262488E+01 0.40042247976E+01
 0.34888348104E+01 0.31849822797E+01 0.30583564707E+01 0.30814897185E+01 0.32638761490E+01
 0.36299190582E+01 0.42331883844E+01 0.51253538461E+01 0.66884006538E+01 0.89763536902E+01
 0.12535110989E+02 0.18047002772E+02 0.26545716664E+02 0.39377671938E+02 0.58049515249E+02
 0.83565676942E+02 0.11521338854E+03 0.14922744804E+03 0.17911642543E+03 0.19906255636E+03
 0.20759591942E+03 0.20594315923E+03 0.22710240156E+03 0.21928976012E+03 0.19190299901E+03
 0.15089704456E+03 0.10891785155E+03 0.74297470633E+02 0.49175610340E+02 0.32265090273E+02
 0.21348276059E+02 0.14441127449E+02 0.10094292749E+02 0.73552109279E+01 0.56084494021E+01
 0.44906814979E+01 0.38080912957E+01 0.33970852323E+01 0.31909595504E+01 0.31644798259E+01
 0.33051636772E+01 0.36447992240E+01 0.42258890326E+01 0.51146305490E+01 0.66835248755E+01
 0.90340357084E+01 0.12761594820E+02 0.18679006600E+02 0.28065483522E+02 0.42728485202E+02
 0.64887821655E+02 0.96345945593E+02 0.13645483320E+03 0.17911642543E+03 0.21234261761E+03
 0.22636471927E+03 0.22581987146E+03 0.22502124470E+03 0.17543917106E+03 0.21275020038E+03
 0.22636542420E+03 0.19906414331E+03 0.15089704456E+03 0.10414782139E+03 0.68327423903E+02
 0.43931965407E+02 0.28298962555E+02 0.18561412229E+02 0.12558507056E+02 0.88437672409E+01
 0.65362754209E+01 0.50284676077E+01 0.41718752505E+01 0.36316419786E+01 0.33348172182E+01
 0.32446677681E+01 0.33345615956E+01 0.36311307710E+01 0.41711446433E+01 0.50275156892E+01
 0.65351629795E+01 0.88425334548E+01 0.12557155846E+02 0.18559756673E+02 0.28297898980E+02
 0.43930249265E+02 0.68326149230E+02 0.10414619420E+03 0.15089408931E+03 0.19906255636E+03
 0.22636471927E+03 0.21274799713E+03 0.17543676256E+03 0.15748486403E+03 0.12889586872E+03
 0.12631249195E+03 0.19944264290E+03 0.22636542420E+03 0.19190299901E+03 0.13800054127E+03
 0.91186014349E+02 0.58058953502E+02 0.36699754278E+02 0.23498229964E+02 0.15467734238E+02
 0.10583272502E+02 0.75909784216E+01 0.57334894263E+01 0.45704537662E+01 0.38839337335E+01
 0.34890317116E+01 0.33221854489E+01 0.33541808507E+01 0.35936149216E+01 0.40757599499E+01
 0.48729789910E+01 0.62608978091E+01 0.84299070063E+01 0.11953138704E+02 0.17711955667E+02
 0.27198289805E+02 0.42736130539E+02 0.67624979534E+02 0.10531859493E+03 0.15597257130E+03
 0.20759591942E+03 0.22581987146E+03 0.17543676256E+03 0.11403566852E+03 0.14419888701E+03
 0.83260237707E+03 0.24634654013E+03 0.12631249195E+03 0.21275020038E+03 0.21928976012E+03
 0.17004233465E+03 0.11521769377E+03 0.73521699638E+02 0.46028864516E+02 0.28998417943E+02
 0.18696807606E+02 0.12501066230E+02 0.87415651212E+01 0.64463219737E+01 0.49772061395E+01
 0.41500291488E+01 0.36470789978E+01 0.33987323138E+01 0.33646108960E+01 0.35389815621E+01
 0.39490477166E+01 0.46642997746E+01 0.58900460360E+01 0.78508049676E+01 0.11035824276E+02
 0.16274956723E+02 0.24969048440E+02 0.39394036434E+02 0.62936713810E+02 0.99610565339E+02
 0.15089667068E+03 0.20594315923E+03 0.22502124470E+03 0.15748486403E+03 0.14419888701E+03
 0.65129314299E+03 0.83260237707E+03 0.65129314299E+03 0.14419888701E+03 0.15748486403E+03
 0.22502124470E+03 0.20594315923E+03 0.15089667068E+03 0.99610565339E+02 0.62936713810E+02
 0.39394036434E+02 0.24969048440E+02 0.16274956723E+02 0.11035824276E+02 0.78508049676E+01
 0.58900460360E+01 0.46642997746E+01 0.39490477166E+01 0.35389815621E+01 0.33646108960E+01
 0.33987323138E+01 0.36470789978E+01 0.41500291488E+01 0.49772061395E+01 0.64463219737E+01
 0.87415651212E+01 0.12501066230E+02 0.18696807606E+02 0.28998417943E+02 0.46028864516E+02
 0.73521699638E+02 0.11521769377E+03 0.17004233465E+03 0.21928976012E+03 0.21275020038E+03
 0.12631249195E+03 0.24634654013E+03 0.65129314299E+03 0.83260075723E+03 0.24634520168E+03
 0.12631229112E+03 0.21275077266E+03 0.21928906169E+03 0.17004226874E+03 0.11521838957E+03
 0.73520979715E+02 0.46028777847E+02 0.28998193315E+02 0.18696894448E+02 0.12501095545E+02
 0.87414843380E+01 0.64463708415E+01 0.49771308164E+01 0.41500935962E+01 0.36470073671E+01
 0.33988097219E+01 0.33645381140E+01 0.35390591060E+01 0.39489749277E+01 0.46643690046E+01
 0.58899635856E+01 0.78508670914E+01 0.11035765450E+02 0.16274990006E+02 0.24968929617E+02
 0.39393699256E+02 0.62937351791E+02 0.99610486199E+02 0.15089770986E+03 0.20594400156E+03
 0.22502087996E+03 0.15748566910E+03 0.14419994778E+03 0.14419888701E+03 0.24634520168E+03
 0.14420013732E+03 0.13211876528E+03 0.20989660142E+03 0.22265397780E+03 0.17912006745E+03
 0.12468547005E+03 0.80915143739E+02 0.51104138389E+02 0.32273340367E+02 0.20754459304E+02
 0.13782834874E+02 0.95407749037E+01 0.69470728985E+01 0.52514923276E+01 0.43319940621E+01
 0.37435795299E+01 0.34249964542E+01 0.33253967780E+01 0.34249922416E+01 0.37435799775E+01
 0.43319704047E+01 0.52515010727E+01 0.69470361034E+01 0.95407452357E+01 0.13782826552E+02
 0.20754657493E+02 0.32273437444E+02 0.51103427694E+02 0.80914627279E+02 0.12468504920E+03
 0.17911933920E+03 0.22265368227E+03 0.20989631178E+03 0.13211763810E+03 0.15748486403E+03
 0.12631229112E+03 0.13211876528E+03 0.17543675319E+03 0.22129265564E+03 0.21928930367E+03
 0.17729272334E+03 0.12610086514E+03 0.83571679956E+02 0.53645847358E+02 0.34241841687E+02
 0.22144173597E+02 0.14716721441E+02 0.10158525305E+02 0.73451624260E+01 0.55846177152E+01
 0.44795647967E+01 0.38207863197E+01 0.34407305493E+01 0.32808534127E+01 0.33113551509E+01
 0.35419365038E+01 0.40048822024E+01 0.47724468100E+01 0.60850218315E+01 0.81371691488E+01
 0.11441524536E+02 0.16800293189E+02 0.25547004913E+02 0.39744252910E+02 0.62297033002E+02
 0.96349231207E+02 0.14272283254E+03 0.19370993764E+03 0.22584835035E+03 0.20989574120E+03
 0.22502124470E+03 0.21275077266E+03 0.20989660142E+03 0.22129265564E+03 0.22636416302E+03
 0.20594230063E+03 0.16468349599E+03 0.11917897073E+03 0.80910524833E+02 0.53121754949E+02
 0.34531886651E+02 0.22632006294E+02 0.15168436633E+02 0.10512455783E+02 0.75990071764E+01
 0.57573399750E+01 0.45799858559E+01 0.38701453807E+01 0.34430664487E+01 0.32295219414E+01
 0.32021787896E+01 0.33493579758E+01 0.37022240468E+01 0.43085660109E+01 0.52299515483E+01
 0.68943093669E+01 0.93875025435E+01 0.13370224271E+02 0.19745901337E+02 0.29947031648E+02
 0.46023988607E+02 0.70494079914E+02 0.10531816758E+03 0.14923202289E+03 0.19371129712E+03
 0.22265438185E+03 0.20594315923E+03 0.21928906169E+03 0.22265397780E+03 0.21928930367E+03
 0.20594230063E+03 0.17911587546E+03 0.14271941510E+03 0.10531427385E+03 0.73513117797E+02
 0.49641706285E+02 0.33086106893E+02 0.22131137779E+02 0.15065472378E+02 0.10553197331E+02
 0.76761813041E+01 0.58274758304E+01 0.46226871202E+01 0.38857426025E+01 0.34271144820E+01
 0.31720953794E+01 0.30962453392E+01 0.31729004986E+01 0.34287130381E+01 0.38880533757E+01
 0.46256632109E+01 0.58310569287E+01 0.76800160264E+01 0.10557514180E+02 0.15069906427E+02
 0.22135783397E+02 0.33089963318E+02 0.49646906602E+02 0.73517848305E+02 0.10531757753E+03
 0.14272346952E+03 0.17911928360E+03 0.15089667068E+03 0.17004226874E+03 0.17912006745E+03
 0.17729272334E+03 0.16468349599E+03 0.14271941510E+03 0.11521274916E+03 0.87274450878E+02
 0.62924939224E+02 0.43920357532E+02 0.30180415398E+02 0.20729290105E+02 0.14421716410E+02
 0.10275188742E+02 0.75633017788E+01 0.57858592502E+01 0.46006724868E+01 0.38647869249E+01
 0.33884306316E+01 0.31092859407E+01 0.29917378645E+01 0.30158890908E+01 0.31853257933E+01
 0.35270531590E+01 0.40837385271E+01 0.49151878414E+01 0.63082469011E+01 0.83488741075E+01
 0.11477508632E+02 0.16247556408E+02 0.23485552030E+02 0.34233435286E+02 0.49647105255E+02
 0.70493460586E+02 0.96349186111E+02 0.12468472565E+03 0.99610565339E+02 0.11521838957E+03
 0.12468547005E+03 0.12610086514E+03 0.11917897073E+03 0.10531427385E+03 0.87274450878E+02
 0.68317822009E+02 0.51088332707E+02 0.37001668361E+02 0.26328936730E+02 0.18659309221E+02
 0.13336148036E+02 0.97134872084E+01 0.72750293925E+01 0.56327660407E+01 0.45163539884E+01
 0.38029918906E+01 0.33293515257E+01 0.30365302680E+01 0.28929028559E+01 0.28725994940E+01
 0.29784371684E+01 0.32188163447E+01 0.36314638192E+01 0.42592274268E+01 0.51507375601E+01
 0.66700219440E+01 0.88045199801E+01 0.11984672481E+02 0.16672260197E+02 0.23485455102E+02
 0.33090258196E+02 0.46024068017E+02 0.62297406717E+02 0.80915484931E+02 0.62936713810E+02
 0.73520979715E+02 0.80915143739E+02 0.83571679956E+02 0.80910524833E+02 0.73513117797E+02
 0.62924939224E+02 0.51088332707E+02 0.39726552622E+02 0.29925766734E+02 0.22112766415E+02
 0.16224018885E+02 0.11959319271E+02 0.89413741070E+01 0.68434140140E+01 0.52821976701E+01
 0.43729856074E+01 0.37044282408E+01 0.32487442623E+01 0.29564211130E+01 0.27966484770E+01
 0.27456633993E+01 0.28011927629E+01 0.29653362193E+01 0.32617818399E+01 0.37209812598E+01
 0.43928412489E+01 0.53042802484E+01 0.68676595050E+01 0.89651347932E+01 0.11984758935E+02
 0.16247452714E+02 0.22135677448E+02 0.29946892178E+02 0.39743803739E+02 0.51103459331E+02
 0.39394036434E+02 0.46028777847E+02 0.51104138389E+02 0.53645847358E+02 0.53121754949E+02
 0.49641706285E+02 0.43920357532E+02 0.37001668361E+02 0.29925766734E+02 0.23461747260E+02