       N       E                     dE             d eps       ncg     rms          rms(c)
DAV:   1     0.546986914984E+02    0.54699E+02   -0.58201E+03  5890   0.843E+02
DAV:   2    -0.105493082453E+02   -0.65248E+02   -0.60407E+02  5524   0.171E+02
DAV:   3    -0.121687098928E+02   -0.16194E+01   -0.15958E+01  6170   0.330E+01
DAV:   4    -0.121899121126E+02   -0.21202E-01   -0.21197E-01  6558   0.327E+00
DAV:   5    -0.121904846537E+02   -0.57254E-03   -0.57252E-03  6250   0.504E-01    0.239E+01
DAV:   6    -0.135932379911E+02   -0.14028E+01   -0.79673E+00  5866   0.518E+01    0.530E+00
DAV:   7    -0.133865077580E+02    0.20673E+00   -0.11230E+00  6092   0.184E+01    0.305E+00
DAV:   8    -0.133594380912E+02    0.27070E-01   -0.27545E-02  7414   0.230E+00    0.141E+00
DAV:   9    -0.133513803267E+02    0.80578E-02   -0.22447E-03  8154   0.599E-01    0.706E-01
DAV:  10    -0.133479140063E+02    0.34663E-02   -0.45826E-04  6790   0.212E-01    0.793E-02
DAV:  11    -0.133479492613E+02   -0.35255E-04   -0.81791E-05  7348   0.129E-01    0.331E-02
DAV:  12    -0.133479436913E+02    0.55701E-05   -0.64977E-06  6402   0.274E-02    0.163E-02
DAV:  13    -0.133479407277E+02    0.29635E-05   -0.65400E-07  3544   0.101E-02    0.530E-03
DAV:  14    -0.133479410091E+02   -0.28136E-06   -0.35783E-07  2988   0.543E-03
   1 F= -.13347941E+02 E0= -.13329116E+02  d E =-.376509E-01  mag=     3.2182
