=========================================
SLURM_JOB_ID = 51754159
SLURM_JOB_NODELIST = lnode24
SLURM_GPUS = 
SLURM_CPUS_ON_NODE = 24
SLURM_JOB_PARTITION = lenovo
SLURM_TASK_PID = 3861699
CUDA_VISIBLE_DEVICES = 
==========================================
 running on   24 total cores
 distrk:  each k-point on   24 cores,    1 groups
 distr:  one band on    4 cores,    6 groups
 using from now: INCAR     
 vasp.5.4.4.18Apr17-6-g9f103f2a35 (build Apr 28 2018 00:24:27) complex          
  
 POSCAR found type information on POSCAR  Fe
 POSCAR found :  1 types and       2 ions
 scaLAPACK will be used

 ----------------------------------------------------------------------------- 
|                                                                             |
|  ADVICE TO THIS USER RUNNING 'VASP/VAMP'   (HEAR YOUR MASTER'S VOICE ...):  |
|                                                                             |
|      You have a (more or less) 'small supercell' and for smaller cells      |
|      it is recommended  to use the reciprocal-space projection scheme!      |
|      The real space optimization is not  efficient for small cells and it   |
|      is also less accurate ...                                              |
|      Therefore set LREAL=.FALSE. in the  INCAR file                         |
|                                                                             |
 ----------------------------------------------------------------------------- 

 LDA part: xc-table for Pade appr. of Perdew
 POSCAR, INCAR and KPOINTS ok, starting setup
 FFT: planning ...
 WAVECAR not read
 entering main loop
       N       E                     dE             d eps       ncg     rms          rms(c)
DAV:   1     0.252771669909E+03    0.25277E+03   -0.22451E+04  3456   0.244E+03
DAV:   2    -0.887968285391E+01   -0.26165E+03   -0.25099E+03  3444   0.460E+02
DAV:   3    -0.162097871667E+02   -0.73301E+01   -0.73162E+01  3684   0.841E+01
DAV:   4    -0.162736946576E+02   -0.63907E-01   -0.63914E-01  3924   0.746E+00
DAV:   5    -0.162748998043E+02   -0.12051E-02   -0.12052E-02  3660   0.957E-01    0.250E+01
DAV:   6    -0.164591651398E+02   -0.18427E+00   -0.74920E+00  3420   0.398E+01    0.691E+00
DAV:   7    -0.165137160549E+02   -0.54551E-01   -0.61485E-01  3408   0.978E+00    0.431E+00
DAV:   8    -0.165234335108E+02   -0.97175E-02   -0.15153E-02  3780   0.148E+00    0.137E+00
DAV:   9    -0.165151542648E+02    0.82792E-02   -0.52644E-03  3660   0.889E-01    0.337E-01
DAV:  10    -0.165149552995E+02    0.19897E-03   -0.22422E-03  3420   0.615E-01    0.441E-02
DAV:  11    -0.165150153209E+02   -0.60021E-04   -0.49902E-05  3636   0.670E-02    0.242E-02
DAV:  12    -0.165150234784E+02   -0.81576E-05   -0.50431E-06  3852   0.229E-02    0.955E-03
DAV:  13    -0.165150167383E+02    0.67401E-05   -0.12948E-06  3516   0.113E-02    0.249E-03
DAV:  14    -0.165150151739E+02    0.15644E-05   -0.15604E-07  2808   0.330E-03    0.658E-04
DAV:  15    -0.165150151906E+02   -0.16649E-07   -0.11242E-08  1740   0.110E-03
   1 F= -.16515015E+02 E0= -.16515015E+02  d E =0.000000E+00  mag=     4.4054
