=========================================
SLURM_JOB_ID = 63599631
SLURM_JOB_NODELIST = lnode13
SLURM_GPUS = 
SLURM_CPUS_ON_NODE = 8
SLURM_JOB_PARTITION = lenovo
SLURM_TASK_PID = 845156
CUDA_VISIBLE_DEVICES = 
==========================================
 running on    8 total cores
 distrk:  each k-point on    8 cores,    1 groups
 distr:  one band on    4 cores,    2 groups
 using from now: INCAR     
 vasp.5.4.4.18Apr17-6-g9f103f2a35 (build Apr 28 2018 00:24:27) complex          
  
 POSCAR found type information on POSCAR  Co
 POSCAR found :  1 types and       2 ions
 scaLAPACK will be used
 LDA part: xc-table for Pade appr. of Perdew
 POSCAR, INCAR and KPOINTS ok, starting setup
 FFT: planning ...
 WAVECAR not read
 entering main loop
       N       E                     dE             d eps       ncg     rms          rms(c)
DAV:   1     0.541737845115E+02    0.54174E+02   -0.58204E+03  5874   0.843E+02
DAV:   2    -0.112196119012E+02   -0.65393E+02   -0.60538E+02  5532   0.172E+02
DAV:   3    -0.128584127090E+02   -0.16388E+01   -0.16150E+01  6184   0.332E+01
DAV:   4    -0.128795491557E+02   -0.21136E-01   -0.21132E-01  6576   0.327E+00
DAV:   5    -0.128801001965E+02   -0.55104E-03   -0.55102E-03  6256   0.492E-01    0.239E+01
DAV:   6    -0.143210529410E+02   -0.14410E+01   -0.78785E+00  5866   0.515E+01    0.528E+00
DAV:   7    -0.141151818596E+02    0.20587E+00   -0.11171E+00  6074   0.184E+01    0.305E+00
DAV:   8    -0.140884708629E+02    0.26711E-01   -0.27467E-02  7390   0.230E+00    0.141E+00
DAV:   9    -0.140805437587E+02    0.79271E-02   -0.22490E-03  8150   0.598E-01    0.706E-01
DAV:  10    -0.140771244440E+02    0.34193E-02   -0.45456E-04  6766   0.211E-01    0.797E-02
DAV:  11    -0.140771595633E+02   -0.35119E-04   -0.81704E-05  7340   0.128E-01    0.334E-02
DAV:  12    -0.140771538990E+02    0.56643E-05   -0.65414E-06  6348   0.274E-02    0.160E-02
DAV:  13    -0.140771510992E+02    0.27998E-05   -0.66986E-07  3600   0.101E-02    0.517E-03
DAV:  14    -0.140771513992E+02   -0.29991E-06   -0.35250E-07  2980   0.544E-03
   1 F= -.14077151E+02 E0= -.14058283E+02  d E =-.377376E-01  mag=     3.2116
 writing wavefunctions
