=========================================
SLURM_JOB_ID = 51754192
SLURM_JOB_NODELIST = lnode20
SLURM_GPUS = 
SLURM_CPUS_ON_NODE = 24
SLURM_JOB_PARTITION = lenovo
SLURM_TASK_PID = 625368
CUDA_VISIBLE_DEVICES = 
==========================================
 running on   24 total cores
 distrk:  each k-point on   24 cores,    1 groups
 distr:  one band on    4 cores,    6 groups
 using from now: INCAR     
 vasp.5.4.4.18Apr17-6-g9f103f2a35 (build Apr 28 2018 00:24:27) complex          
  
 POSCAR found type information on POSCAR  Fe
 POSCAR found :  1 types and       2 ions
 scaLAPACK will be used

 ----------------------------------------------------------------------------- 
|                                                                             |
|  ADVICE TO THIS USER RUNNING 'VASP/VAMP'   (HEAR YOUR MASTER'S VOICE ...):  |
|                                                                             |
|      You have a (more or less) 'small supercell' and for smaller cells      |
|      it is recommended  to use the reciprocal-space projection scheme!      |
|      The real space optimization is not  efficient for small cells and it   |
|      is also less accurate ...                                              |
|      Therefore set LREAL=.FALSE. in the  INCAR file                         |
|                                                                             |
 ----------------------------------------------------------------------------- 

 LDA part: xc-table for Pade appr. of Perdew
 generate k-points for:   42   42   42
 POSCAR, INCAR and KPOINTS ok, starting setup
 FFT: planning ...
 WAVECAR not read
 entering main loop
       N       E                     dE             d eps       ncg     rms          rms(c)
DAV:   1     0.267361456103E+03    0.26736E+03   -0.24172E+04196560   0.264E+03
DAV:   2    -0.821019542762E+01   -0.27557E+03   -0.26433E+03198732   0.487E+02
DAV:   3    -0.162009184316E+02   -0.79907E+01   -0.79735E+01211656   0.889E+01
DAV:   4    -0.162717246068E+02   -0.70806E-01   -0.70802E-01227832   0.800E+00
DAV:   5    -0.162730380323E+02   -0.13134E-02   -0.13134E-02211896   0.103E+00    0.249E+01
DAV:   6    -0.164618769972E+02   -0.18884E+00   -0.74527E+00197772   0.398E+01    0.686E+00
DAV:   7    -0.165141394682E+02   -0.52262E-01   -0.62122E-01198912   0.991E+00    0.433E+00
DAV:   8    -0.165241458269E+02   -0.10006E-01   -0.14866E-02221760   0.148E+00    0.137E+00
DAV:   9    -0.165158043187E+02    0.83415E-02   -0.51122E-03213096   0.888E-01    0.347E-01
DAV:  10    -0.165154480805E+02    0.35624E-03   -0.21925E-03202080   0.609E-01    0.441E-02
DAV:  11    -0.165154942503E+02   -0.46170E-04   -0.55509E-05209424   0.708E-02    0.251E-02
DAV:  12    -0.165154925822E+02    0.16681E-05   -0.50042E-06225504   0.246E-02    0.104E-02
DAV:  13    -0.165154936547E+02   -0.10724E-05   -0.20706E-06205164   0.151E-02    0.147E-03
DAV:  14    -0.165154937615E+02   -0.10687E-06   -0.10076E-07188088   0.295E-03    0.637E-04
DAV:  15    -0.165154937558E+02    0.57034E-08   -0.63647E-09104292   0.955E-04
   1 F= -.16515494E+02 E0= -.16515494E+02  d E =0.000000E+00  mag=     4.4319
