 vasp.5.4.4.18Apr17-6-g9f103f2a35 (build Apr 28 2018 00:24:27) complex          
  
 executed on             LinuxIFC date 2021.09.06  23:54:43
 running on   24 total cores
 distrk:  each k-point on   24 cores,    1 groups
 distr:  one band on NCORES_PER_BAND=   4 cores,    6 groups


--------------------------------------------------------------------------------------------------------


 INCAR:
 POTCAR:    PAW_PBE Fe_pv 02Aug2007               
 POTCAR:    PAW_PBE Fe_pv 02Aug2007               
   VRHFIN =Fe:  3pd7s1                                                          
   LEXCH  = PE                                                                  
   EATOM  =  2457.4239 eV,  180.6156 Ry                                         
                                                                                
   TITEL  = PAW_PBE Fe_pv 02Aug2007                                             
   LULTRA =        F    use ultrasoft PP ?                                      
   IUNSCR =        1    unscreen: 0-lin 1-nonlin 2-no                           
   RPACOR =    1.750    partial core radius                                     
   POMASS =   55.847; ZVAL   =   14.000    mass and valenz                      
   RCORE  =    2.200    outmost cutoff radius                                   
   RWIGS  =    2.200; RWIGS  =    1.164    wigner-seitz radius (au A)           
   ENMAX  =  293.238; ENMIN  =  219.928 eV                                      
   ICORE  =        3    local potential                                         
   LCOR   =        T    correct aug charges                                     
   LPAW   =        T    paw PP                                                  
   EAUG   =  578.342                                                            
   DEXC   =    0.000                                                            
   RMAX   =    2.249    core radius for proj-oper                               
   RAUG   =    1.300    factor for augmentation sphere                          
   RDEP   =    2.296    radius for radial grids                                 
   RDEPT  =    1.766    core radius for aug-charge                              
                                                                                
   Atomic configuration                                                         
    8 entries                                                                   
     n  l   j            E        occ.                                          
     1  0  0.50     -6993.8440   2.0000                                         
     2  0  0.50      -814.6047   2.0000                                         
     2  1  1.50      -693.3689   6.0000                                         
     3  0  0.50       -89.4732   2.0000                                         
     3  1  1.50       -55.6373   6.0000                                         
     3  2  2.50        -3.8151   7.0000                                         
     4  0  0.50        -4.2551   1.0000                                         
     4  3  2.50        -1.3606   0.0000                                         
   Description                                                                  
     l       E           TYP  RCUT    TYP  RCUT                                 
     1    -55.6372668     23  2.000                                             
     1     -5.4423304     23  2.000                                             
     2     -3.8151096     23  2.200                                             
     2     -5.1756922     23  2.200                                             
     0     -4.2550951     23  2.200                                             
     0     27.2116520     23  2.200                                             
     3     -1.3605826     23  2.200                                             
  local pseudopotential read in
  partial core-charges read in
  partial kinetic energy density read in
  atomic valenz-charges read in
  non local Contribution for L=           1  read in
    real space projection operators read in
  non local Contribution for L=           1  read in
    real space projection operators read in
  non local Contribution for L=           2  read in
    real space projection operators read in
  non local Contribution for L=           2  read in
    real space projection operators read in
  non local Contribution for L=           0  read in
    real space projection operators read in
  non local Contribution for L=           0  read in
    real space projection operators read in
    PAW grid and wavefunctions read in
 
   number of l-projection  operators is LMAX  =           6
   number of lm-projection operators is LMMAX =          18
 

 ----------------------------------------------------------------------------- 
|                                                                             |
|  ADVICE TO THIS USER RUNNING 'VASP/VAMP'   (HEAR YOUR MASTER'S VOICE ...):  |
|                                                                             |
|      You have a (more or less) 'small supercell' and for smaller cells      |
|      it is recommended  to use the reciprocal-space projection scheme!      |
|      The real space optimization is not  efficient for small cells and it   |
|      is also less accurate ...                                              |
|      Therefore set LREAL=.FALSE. in the  INCAR file                         |
|                                                                             |
 ----------------------------------------------------------------------------- 

 Optimization of the real space projectors (new method)

 maximal supplied QI-value         = 17.01
 optimisation between [QCUT,QGAM] = [ 15.48, 30.95] = [ 67.08,268.30] Ry 
 Optimized for a Real-space Cutoff    1.26 Angstroem

   l    n(q)    QCUT    max X(q) W(low)/X(q) W(high)/X(q)  e(spline) 
   1     11    15.477     4.267    0.90E-04    0.14E-03    0.59E-06
   1     11    15.477     5.750    0.14E-03    0.21E-03    0.81E-06
   2     11    15.477    53.656    0.97E-04    0.12E-03    0.26E-06
   2     11    15.477    49.521    0.10E-03    0.12E-03    0.27E-06
   0     12    15.477    31.246    0.35E-04    0.34E-04    0.27E-06
   0     12    15.477    12.201    0.29E-04    0.28E-04    0.22E-06
  PAW_PBE Fe_pv 02Aug2007               :
 energy of atom  1       EATOM=-2457.4239
 kinetic energy error for atom=    0.0010 (will be added to EATOM!!)
 
 
 POSCAR: Fe2                                     
  positions in direct lattice
  No initial velocities read in
 exchange correlation table for  LEXCH =        8
   RHO(1)=    0.500       N(1)  =     2000
   RHO(2)=  100.500       N(2)  =     4000
 


--------------------------------------------------------------------------------------------------------


 ion  position               nearest neighbor table
   1  0.000  0.000  0.000-   2 2.46   2 2.46   2 2.46   2 2.46   2 2.46   2 2.46   2 2.46   2 2.46

   2  0.500  0.500  0.500-   1 2.46   1 2.46   1 2.46   1 2.46   1 2.46   1 2.46   1 2.46   1 2.46

 
  LATTYP: Found a simple cubic cell.
 ALAT       =     2.8400520000
  
  Lattice vectors:
  
 A1 = (   2.8400520000,   0.0000000000,   0.0000000000)
 A2 = (   0.0000000000,   2.8400520000,   0.0000000000)
 A3 = (   0.0000000000,   0.0000000000,   2.8400520000)


Analysis of symmetry for initial positions (statically):
=====================================================================
 Subroutine PRICEL returns following result:
 
  LATTYP: Found a body centered cubic cell.
 ALAT       =     2.8400520000
  
  Lattice vectors:
  
 A1 = (   1.4200260000,   1.4200260000,   1.4200260000)
 A2 = (   1.4200260000,  -1.4200260000,  -1.4200260000)
 A3 = (  -1.4200260000,   1.4200260000,  -1.4200260000)
 
   2 primitive cells build up your supercell.
 

 Routine SETGRP: Setting up the symmetry group for a 
 simple cubic supercell.


 Subroutine GETGRP returns: Found 48 space group operations
 (whereof 48 operations were pure point group operations)
 out of a pool of 48 trial point group operations.


The static configuration has the point symmetry O_h .


Analysis of symmetry for dynamics (positions and initial velocities):
=====================================================================
 Subroutine PRICEL returns following result:
 
  LATTYP: Found a body centered cubic cell.
 ALAT       =     2.8400520000
  
  Lattice vectors:
  
 A1 = (   1.4200260000,   1.4200260000,   1.4200260000)
 A2 = (   1.4200260000,  -1.4200260000,  -1.4200260000)
 A3 = (  -1.4200260000,   1.4200260000,  -1.4200260000)
 
   2 primitive cells build up your supercell.
 

 Routine SETGRP: Setting up the symmetry group for a 
 simple cubic supercell.


 Subroutine GETGRP returns: Found 48 space group operations
 (whereof 48 operations were pure point group operations)
 out of a pool of 48 trial point group operations.


The dynamic configuration has the point symmetry O_h .


Analysis of structural, dynamic, and magnetic symmetry:
=====================================================================
 Subroutine PRICEL returns following result:
 
  LATTYP: Found a body centered cubic cell.
 ALAT       =     2.8400520000
  
  Lattice vectors:
  
 A1 = (   1.4200260000,   1.4200260000,   1.4200260000)
 A2 = (   1.4200260000,  -1.4200260000,  -1.4200260000)
 A3 = (  -1.4200260000,   1.4200260000,  -1.4200260000)
 
   2 primitive cells build up your supercell.
 

 Routine SETGRP: Setting up the symmetry group for a 
 simple cubic supercell.


 Subroutine GETGRP returns: Found 48 space group operations
 (whereof 48 operations were pure point group operations)
 out of a pool of 48 trial point group operations.


The magnetic configuration has the point symmetry O_h .


 Subroutine INISYM returns: Found 48 space group operations
 (whereof 48 operations are pure point group operations),
 and found     2 'primitive' translations

 
 
 KPOINTS: pymatgen with grid density = 2166 / numb

Automatic generation of k-mesh.
Space group operators:
 irot       det(A)        alpha          n_x          n_y          n_z        tau_x        tau_y        tau_z
    1     1.000000     0.000000     1.000000     0.000000     0.000000     0.000000     0.000000     0.000000
    2    -1.000000     0.000000     1.000000     0.000000     0.000000     0.000000     0.000000     0.000000
    3     1.000000   120.000000    -0.577350    -0.577350    -0.577350     0.000000     0.000000     0.000000
    4    -1.000000   120.000000    -0.577350    -0.577350    -0.577350     0.000000     0.000000     0.000000
    5     1.000000   120.000000     0.577350     0.577350     0.577350     0.000000     0.000000     0.000000
    6    -1.000000   120.000000     0.577350     0.577350     0.577350     0.000000     0.000000     0.000000
    7     1.000000    90.000000     0.000000     0.000000    -1.000000     0.000000     0.000000     0.000000
    8    -1.000000    90.000000     0.000000     0.000000    -1.000000     0.000000     0.000000     0.000000
    9     1.000000   180.000000     0.000000     0.707107     0.707107     0.000000     0.000000     0.000000
   10    -1.000000   180.000000     0.000000     0.707107     0.707107     0.000000     0.000000     0.000000
   11     1.000000    90.000000     0.000000     1.000000     0.000000     0.000000     0.000000     0.000000
   12    -1.000000    90.000000     0.000000     1.000000     0.000000     0.000000     0.000000     0.000000
   13     1.000000   180.000000     0.000000     0.000000     1.000000     0.000000     0.000000     0.000000
   14    -1.000000   180.000000     0.000000     0.000000     1.000000     0.000000     0.000000     0.000000
   15     1.000000   120.000000    -0.577350     0.577350     0.577350     0.000000     0.000000     0.000000
   16    -1.000000   120.000000    -0.577350     0.577350     0.577350     0.000000     0.000000     0.000000
   17     1.000000   120.000000    -0.577350     0.577350    -0.577350     0.000000     0.000000     0.000000
   18    -1.000000   120.000000    -0.577350     0.577350    -0.577350     0.000000     0.000000     0.000000
   19     1.000000    90.000000     0.000000     0.000000     1.000000     0.000000     0.000000     0.000000
   20    -1.000000    90.000000     0.000000     0.000000     1.000000     0.000000     0.000000     0.000000
   21     1.000000    90.000000    -1.000000     0.000000     0.000000     0.000000     0.000000     0.000000
   22    -1.000000    90.000000    -1.000000     0.000000     0.000000     0.000000     0.000000     0.000000
   23     1.000000   180.000000     0.707107     0.000000     0.707107     0.000000     0.000000     0.000000
   24    -1.000000   180.000000     0.707107     0.000000     0.707107     0.000000     0.000000     0.000000
   25     1.000000   120.000000     0.577350    -0.577350     0.577350     0.000000     0.000000     0.000000
   26    -1.000000   120.000000     0.577350    -0.577350     0.577350     0.000000     0.000000     0.000000
   27     1.000000   120.000000    -0.577350    -0.577350     0.577350     0.000000     0.000000     0.000000
   28    -1.000000   120.000000    -0.577350    -0.577350     0.577350     0.000000     0.000000     0.000000
   29     1.000000   180.000000     1.000000     0.000000     0.000000     0.000000     0.000000     0.000000
   30    -1.000000   180.000000     1.000000     0.000000     0.000000     0.000000     0.000000     0.000000
   31     1.000000    90.000000     0.000000    -1.000000     0.000000     0.000000     0.000000     0.000000
   32    -1.000000    90.000000     0.000000    -1.000000     0.000000     0.000000     0.000000     0.000000
   33     1.000000   180.000000     0.707107     0.707107     0.000000     0.000000     0.000000     0.000000
   34    -1.000000   180.000000     0.707107     0.707107     0.000000     0.000000     0.000000     0.000000
   35     1.000000    90.000000     1.000000     0.000000     0.000000     0.000000     0.000000     0.000000
   36    -1.000000    90.000000     1.000000     0.000000     0.000000     0.000000     0.000000     0.000000
   37     1.000000   120.000000     0.577350    -0.577350    -0.577350     0.000000     0.000000     0.000000
   38    -1.000000   120.000000     0.577350    -0.577350    -0.577350     0.000000     0.000000     0.000000
   39     1.000000   180.000000     0.000000     1.000000     0.000000     0.000000     0.000000     0.000000
   40    -1.000000   180.000000     0.000000     1.000000     0.000000     0.000000     0.000000     0.000000
   41     1.000000   120.000000     0.577350     0.577350    -0.577350     0.000000     0.000000     0.000000
   42    -1.000000   120.000000     0.577350     0.577350    -0.577350     0.000000     0.000000     0.000000
   43     1.000000   180.000000     0.000000    -0.707107     0.707107     0.000000     0.000000     0.000000
   44    -1.000000   180.000000     0.000000    -0.707107     0.707107     0.000000     0.000000     0.000000
   45     1.000000   180.000000     0.707107    -0.707107     0.000000     0.000000     0.000000     0.000000
   46    -1.000000   180.000000     0.707107    -0.707107     0.000000     0.000000     0.000000     0.000000
   47     1.000000   180.000000     0.707107     0.000000    -0.707107     0.000000     0.000000     0.000000
   48    -1.000000   180.000000     0.707107     0.000000    -0.707107     0.000000     0.000000     0.000000
 
 Subroutine IBZKPT returns following result:
 ===========================================
 
 Found     35 irreducible k-points:
 
 Following reciprocal coordinates:
            Coordinates               Weight
  0.050000  0.050000  0.050000      8.000000
  0.150000  0.050000  0.050000     24.000000
  0.250000  0.050000  0.050000     24.000000
  0.350000  0.050000  0.050000     24.000000
  0.450000  0.050000  0.050000     24.000000
  0.150000  0.150000  0.050000     24.000000
  0.250000  0.150000  0.050000     48.000000
  0.350000  0.150000  0.050000     48.000000
  0.450000  0.150000  0.050000     48.000000
  0.250000  0.250000  0.050000     24.000000
  0.350000  0.250000  0.050000     48.000000
  0.450000  0.250000  0.050000     48.000000
  0.350000  0.350000  0.050000     24.000000
  0.450000  0.350000  0.050000     48.000000
  0.450000  0.450000  0.050000     24.000000
  0.150000  0.150000  0.150000      8.000000
  0.250000  0.150000  0.150000     24.000000
  0.350000  0.150000  0.150000     24.000000
  0.450000  0.150000  0.150000     24.000000
  0.250000  0.250000  0.150000     24.000000
  0.350000  0.250000  0.150000     48.000000
  0.450000  0.250000  0.150000     48.000000
  0.350000  0.350000  0.150000     24.000000
  0.450000  0.350000  0.150000     48.000000
  0.450000  0.450000  0.150000     24.000000
  0.250000  0.250000  0.250000      8.000000
  0.350000  0.250000  0.250000     24.000000
  0.450000  0.250000  0.250000     24.000000
  0.350000  0.350000  0.250000     24.000000
  0.450000  0.350000  0.250000     48.000000
  0.450000  0.450000  0.250000     24.000000
  0.350000  0.350000  0.350000      8.000000
  0.450000  0.350000  0.350000     24.000000
  0.450000  0.450000  0.350000     24.000000
  0.450000  0.450000  0.450000      8.000000
 
 Following cartesian coordinates:
            Coordinates               Weight
  0.017605  0.017605  0.017605      8.000000
  0.052816  0.017605  0.017605     24.000000
  0.088027  0.017605  0.017605     24.000000
  0.123237  0.017605  0.017605     24.000000
  0.158448  0.017605  0.017605     24.000000
  0.052816  0.052816  0.017605     24.000000
  0.088027  0.052816  0.017605     48.000000
  0.123237  0.052816  0.017605     48.000000
  0.158448  0.052816  0.017605     48.000000
  0.088027  0.088027  0.017605     24.000000
  0.123237  0.088027  0.017605     48.000000
  0.158448  0.088027  0.017605     48.000000
  0.123237  0.123237  0.017605     24.000000
  0.158448  0.123237  0.017605     48.000000
  0.158448  0.158448  0.017605     24.000000
  0.052816  0.052816  0.052816      8.000000
  0.088027  0.052816  0.052816     24.000000
  0.123237  0.052816  0.052816     24.000000
  0.158448  0.052816  0.052816     24.000000
  0.088027  0.088027  0.052816     24.000000
  0.123237  0.088027  0.052816     48.000000
  0.158448  0.088027  0.052816     48.000000
  0.123237  0.123237  0.052816     24.000000
  0.158448  0.123237  0.052816     48.000000
  0.158448  0.158448  0.052816     24.000000
  0.088027  0.088027  0.088027      8.000000
  0.123237  0.088027  0.088027     24.000000
  0.158448  0.088027  0.088027     24.000000
  0.123237  0.123237  0.088027     24.000000
  0.158448  0.123237  0.088027     48.000000
  0.158448  0.158448  0.088027     24.000000
  0.123237  0.123237  0.123237      8.000000
  0.158448  0.123237  0.123237     24.000000
  0.158448  0.158448  0.123237     24.000000
  0.158448  0.158448  0.158448      8.000000
 
 TETIRR: Found    466 inequivalent tetrahedra from     6000


--------------------------------------------------------------------------------------------------------




 Dimension of arrays:
   k-points           NKPTS =     35   k-points in BZ     NKDIM =     35   number of bands    NBANDS=     24
   number of dos      NEDOS =    301   number of ions     NIONS =      2
   non local maximal  LDIM  =      6   non local SUM 2l+1 LMDIM =     18
   total plane-waves  NPLWV =  21952
   max r-space proj   IRMAX =   8080   max aug-charges    IRDMAX=  28578
   dimension x,y,z NGX =    28 NGY =   28 NGZ =   28
   dimension x,y,z NGXF=    56 NGYF=   56 NGZF=   56
   support grid    NGXF=    56 NGYF=   56 NGZF=   56
   ions per type =               2
   NGX,Y,Z   is equivalent  to a cutoff of  16.39, 16.39, 16.39 a.u.
   NGXF,Y,Z  is equivalent  to a cutoff of  32.78, 32.78, 32.78 a.u.

 SYSTEM =  unknown system                          
 POSCAR =  Fe2                                     

 Startparameter for this run:
   NWRITE =      2    write-flag & timer
   PREC   = accura    normal or accurate (medium, high low for compatibility)
   ISTART =      0    job   : 0-new  1-cont  2-samecut
   ICHARG =      2    charge: 1-file 2-atom 10-const
   ISPIN  =      2    spin polarized calculation?
   LNONCOLLINEAR =      F non collinear calculations
   LSORBIT =      F    spin-orbit coupling
   INIWAV =      1    electr: 0-lowe 1-rand  2-diag
   LASPH  =      F    aspherical Exc in radial PAW
   METAGGA=      F    non-selfconsistent MetaGGA calc.

 Electronic Relaxation 1
   ENCUT  =  920.0 eV  67.62 Ry    8.22 a.u.   7.02  7.02  7.02*2*pi/ulx,y,z
   ENINI  =  920.0     initial cutoff
   ENAUG  =  578.3 eV  augmentation charge cutoff
   NELM   =    100;   NELMIN=  2; NELMDL= -5     # of ELM steps 
   EDIFF  = 0.1E-06   stopping-criterion for ELM
   LREAL  =      T    real-space projection
   NLSPLINE    = F    spline interpolate recip. space projectors
   LCOMPAT=      F    compatible to vasp.4.4
   GGA_COMPAT  = T    GGA compatible to vasp.4.4-vasp.4.6
   LMAXPAW     = -100 max onsite density
   LMAXMIX     =    2 max onsite mixed and CHGCAR
   VOSKOWN=      0    Vosko Wilk Nusair interpolation
   ROPT   =   -0.00025
 Ionic relaxation
   EDIFFG = 0.1E-05   stopping-criterion for IOM
   NSW    =      0    number of steps for IOM
   NBLOCK =      1;   KBLOCK =      1    inner block; outer block 
   IBRION =     -1    ionic relax: 0-MD 1-quasi-New 2-CG
   NFREE  =      0    steps in history (QN), initial steepest desc. (CG)
   ISIF   =      3    stress and relaxation
   IWAVPR =     10    prediction:  0-non 1-charg 2-wave 3-comb
   ISYM   =      2    0-nonsym 1-usesym 2-fastsym
   LCORR  =      T    Harris-Foulkes like correction to forces

   POTIM  = 0.5000    time-step for ionic-motion
   TEIN   =    0.0    initial temperature
   TEBEG  =    0.0;   TEEND  =   0.0 temperature during run
   SMASS  =  -3.00    Nose mass-parameter (am)
   estimated Nose-frequenzy (Omega)   =  0.10E-29 period in steps =****** mass=  -0.184E-27a.u.
   SCALEE = 1.0000    scale energy and forces
   NPACO  =    256;   APACO  = 16.0  distance and # of slots for P.C.
   PSTRESS=    0.0 pullay stress

  Mass of Ions in am
   POMASS =  55.85
  Ionic Valenz
   ZVAL   =  14.00
  Atomic Wigner-Seitz radii
   RWIGS  =  -1.00
  virtual crystal weights 
   VCA    =   1.00
   NELECT =      28.0000    total number of electrons
   NUPDOWN=      -1.0000    fix difference up-down

 DOS related values:
   EMIN   =  10.00;   EMAX   =-10.00  energy-range for DOS
   EFERMI =   0.00
   ISMEAR =    -5;   SIGMA  =   0.05  broadening in eV -4-tet -1-fermi 0-gaus

 Electronic relaxation 2 (details)
   IALGO  =     38    algorithm
   LDIAG  =      T    sub-space diagonalisation (order eigenvalues)
   LSUBROT=      F    optimize rotation matrix (better conditioning)
   TURBO    =      0    0=normal 1=particle mesh
   IRESTART =      0    0=no restart 2=restart with 2 vectors
   NREBOOT  =      0    no. of reboots
   NMIN     =      0    reboot dimension
   EREF     =   0.00    reference energy to select bands
   IMIX   =      4    mixing-type and parameters
     AMIX     =   0.40;   BMIX     =  1.00
     AMIX_MAG =   1.60;   BMIX_MAG =  1.00
     AMIN     =   0.10
     WC   =   100.;   INIMIX=   1;  MIXPRE=   1;  MAXMIX= -45

 Intra band minimization:
   WEIMIN = 0.0000     energy-eigenvalue tresh-hold
   EBREAK =  0.10E-08  absolut break condition
   DEPER  =   0.30     relativ break condition  

   TIME   =   0.40     timestep for ELM

  volume/ion in A,a.u.               =      11.45        77.29
  Fermi-wavevector in a.u.,A,eV,Ry     =   1.750389  3.307755 41.686364  3.063861
  Thomas-Fermi vector in A             =   2.821117
 
 Write flags
   LWAVE        =      F    write WAVECAR
   LDOWNSAMPLE  =      F    k-point downsampling of WAVECAR
   LCHARG       =      F    write CHGCAR
   LVTOT        =      F    write LOCPOT, total local potential
   LVHAR        =      F    write LOCPOT, Hartree potential only
   LELF         =      F    write electronic localiz. function (ELF)
   LORBIT       =     11    0 simple, 1 ext, 2 COOP (PROOUT), +10 PAW based schemes


 Dipole corrections
   LMONO  =      F    monopole corrections only (constant potential shift)
   LDIPOL =      F    correct potential (dipole corrections)
   IDIPOL =      0    1-x, 2-y, 3-z, 4-all directions 
   EPSILON=  1.0000000 bulk dielectric constant

 Exchange correlation treatment:
   GGA     =    --    GGA type
   LEXCH   =     8    internal setting for exchange type
   VOSKOWN=      0    Vosko Wilk Nusair interpolation
   LHFCALC =     F    Hartree Fock is set to
   LHFONE  =     F    Hartree Fock one center treatment
   AEXX    =    0.0000 exact exchange contribution

 Linear response parameters
   LEPSILON=     F    determine dielectric tensor
   LRPA    =     F    only Hartree local field effects (RPA)
   LNABLA  =     F    use nabla operator in PAW spheres
   LVEL    =     F    velocity operator in full k-point grid
   LINTERFAST=   F  fast interpolation
   KINTER  =     0    interpolate to denser k-point grid
   CSHIFT  =0.1000    complex shift for real part using Kramers Kronig
   OMEGAMAX=  -1.0    maximum frequency
   DEG_THRESHOLD= 0.2000000E-02 threshold for treating states as degnerate
   RTIME   =   -0.100 relaxation time in fs
  (WPLASMAI=    0.000 imaginary part of plasma frequency in eV, 0.658/RTIME)
   DFIELD  = 0.0000000 0.0000000 0.0000000 field for delta impulse in time
 
 Orbital magnetization related:
   ORBITALMAG=     F  switch on orbital magnetization
   LCHIMAG   =     F  perturbation theory with respect to B field
   DQ        =  0.001000  dq finite difference perturbation B field
   LLRAUG    =     F  two centre corrections for induced B field



--------------------------------------------------------------------------------------------------------


 Static calculation
 charge density and potential will be updated during run
 spin polarized calculation
 Variant of blocked Davidson
 Davidson routine will perform the subspace rotation
 perform sub-space diagonalisation
    after iterative eigenvector-optimisation
 modified Broyden-mixing scheme, WC =      100.0
 initial mixing is a Kerker type mixing with AMIX =  0.4000 and BMIX =      1.0000
 Hartree-type preconditioning will be used
 using additional bands           10
 real space projection scheme for non local part
 use partial core corrections
 calculate Harris-corrections to forces 
   (improved forces if not selfconsistent)
 use gradient corrections 
 use of overlap-Matrix (Vanderbilt PP)
 Fermi weights with tetrahedron method with Bloechl corrections


--------------------------------------------------------------------------------------------------------


  energy-cutoff  :      920.00
  volume of cell :       22.91
      direct lattice vectors                 reciprocal lattice vectors
     2.840052000  0.000000000  0.000000000     0.352106229  0.000000000  0.000000000
     0.000000000  2.840052000  0.000000000     0.000000000  0.352106229  0.000000000
     0.000000000  0.000000000  2.840052000     0.000000000  0.000000000  0.352106229

  length of vectors
     2.840052000  2.840052000  2.840052000     0.352106229  0.352106229  0.352106229


 
 k-points in units of 2pi/SCALE and weight: pymatgen with grid density = 2166 / numb
   0.01760531  0.01760531  0.01760531       0.008
   0.05281593  0.01760531  0.01760531       0.024
   0.08802656  0.01760531  0.01760531       0.024
   0.12323718  0.01760531  0.01760531       0.024
   0.15844780  0.01760531  0.01760531       0.024
   0.05281593  0.05281593  0.01760531       0.024
   0.08802656  0.05281593  0.01760531       0.048
   0.12323718  0.05281593  0.01760531       0.048
   0.15844780  0.05281593  0.01760531       0.048
   0.08802656  0.08802656  0.01760531       0.024
   0.12323718  0.08802656  0.01760531       0.048
   0.15844780  0.08802656  0.01760531       0.048
   0.12323718  0.12323718  0.01760531       0.024
   0.15844780  0.12323718  0.01760531       0.048
   0.15844780  0.15844780  0.01760531       0.024
   0.05281593  0.05281593  0.05281593       0.008
   0.08802656  0.05281593  0.05281593       0.024
   0.12323718  0.05281593  0.05281593       0.024
   0.15844780  0.05281593  0.05281593       0.024
   0.08802656  0.08802656  0.05281593       0.024
   0.12323718  0.08802656  0.05281593       0.048
   0.15844780  0.08802656  0.05281593       0.048
   0.12323718  0.12323718  0.05281593       0.024
   0.15844780  0.12323718  0.05281593       0.048
   0.15844780  0.15844780  0.05281593       0.024
   0.08802656  0.08802656  0.08802656       0.008
   0.12323718  0.08802656  0.08802656       0.024
   0.15844780  0.08802656  0.08802656       0.024
   0.12323718  0.12323718  0.08802656       0.024
   0.15844780  0.12323718  0.08802656       0.048
   0.15844780  0.15844780  0.08802656       0.024
   0.12323718  0.12323718  0.12323718       0.008
   0.15844780  0.12323718  0.12323718       0.024
   0.15844780  0.15844780  0.12323718       0.024
   0.15844780  0.15844780  0.15844780       0.008
 
 k-points in reciprocal lattice and weights: pymatgen with grid density = 2166 / numb
   0.05000000  0.05000000  0.05000000       0.008
   0.15000000  0.05000000  0.05000000       0.024
   0.25000000  0.05000000  0.05000000       0.024
   0.35000000  0.05000000  0.05000000       0.024
   0.45000000  0.05000000  0.05000000       0.024
   0.15000000  0.15000000  0.05000000       0.024
   0.25000000  0.15000000  0.05000000       0.048
   0.35000000  0.15000000  0.05000000       0.048
   0.45000000  0.15000000  0.05000000       0.048
   0.25000000  0.25000000  0.05000000       0.024
   0.35000000  0.25000000  0.05000000       0.048
   0.45000000  0.25000000  0.05000000       0.048
   0.35000000  0.35000000  0.05000000       0.024
   0.45000000  0.35000000  0.05000000       0.048
   0.45000000  0.45000000  0.05000000       0.024
   0.15000000  0.15000000  0.15000000       0.008
   0.25000000  0.15000000  0.15000000       0.024
   0.35000000  0.15000000  0.15000000       0.024
   0.45000000  0.15000000  0.15000000       0.024
   0.25000000  0.25000000  0.15000000       0.024
   0.35000000  0.25000000  0.15000000       0.048
   0.45000000  0.25000000  0.15000000       0.048
   0.35000000  0.35000000  0.15000000       0.024
   0.45000000  0.35000000  0.15000000       0.048
   0.45000000  0.45000000  0.15000000       0.024
   0.25000000  0.25000000  0.25000000       0.008
   0.35000000  0.25000000  0.25000000       0.024
   0.45000000  0.25000000  0.25000000       0.024
   0.35000000  0.35000000  0.25000000       0.024
   0.45000000  0.35000000  0.25000000       0.048
   0.45000000  0.45000000  0.25000000       0.024
   0.35000000  0.35000000  0.35000000       0.008
   0.45000000  0.35000000  0.35000000       0.024
   0.45000000  0.45000000  0.35000000       0.024
   0.45000000  0.45000000  0.45000000       0.008
 
 position of ions in fractional coordinates (direct lattice) 
   0.00000000  0.00000000  0.00000000
   0.50000000  0.50000000  0.50000000
 
 position of ions in cartesian coordinates  (Angst):
   0.00000000  0.00000000  0.00000000
   1.42002600  1.42002600  1.42002600
 


--------------------------------------------------------------------------------------------------------


 k-point  1 :   0.0500 0.0500 0.0500  plane waves:    1413
 k-point  2 :   0.1500 0.0500 0.0500  plane waves:    1438
 k-point  3 :   0.2500 0.0500 0.0500  plane waves:    1438
 k-point  4 :   0.3500 0.0500 0.0500  plane waves:    1450
 k-point  5 :   0.4500 0.0500 0.0500  plane waves:    1446
 k-point  6 :   0.1500 0.1500 0.0500  plane waves:    1433
 k-point  7 :   0.2500 0.1500 0.0500  plane waves:    1441
 k-point  8 :   0.3500 0.1500 0.0500  plane waves:    1451
 k-point  9 :   0.4500 0.1500 0.0500  plane waves:    1455
 k-point 10 :   0.2500 0.2500 0.0500  plane waves:    1445
 k-point 11 :   0.3500 0.2500 0.0500  plane waves:    1449
 k-point 12 :   0.4500 0.2500 0.0500  plane waves:    1456
 k-point 13 :   0.3500 0.3500 0.0500  plane waves:    1454
 k-point 14 :   0.4500 0.3500 0.0500  plane waves:    1455
 k-point 15 :   0.4500 0.4500 0.0500  plane waves:    1459
 k-point 16 :   0.1500 0.1500 0.1500  plane waves:    1445
 k-point 17 :   0.2500 0.1500 0.1500  plane waves:    1451
 k-point 18 :   0.3500 0.1500 0.1500  plane waves:    1450
 k-point 19 :   0.4500 0.1500 0.1500  plane waves:    1452
 k-point 20 :   0.2500 0.2500 0.1500  plane waves:    1447
 k-point 21 :   0.3500 0.2500 0.1500  plane waves:    1455
 k-point 22 :   0.4500 0.2500 0.1500  plane waves:    1460
 k-point 23 :   0.3500 0.3500 0.1500  plane waves:    1455
 k-point 24 :   0.4500 0.3500 0.1500  plane waves:    1453
 k-point 25 :   0.4500 0.4500 0.1500  plane waves:    1453
 k-point 26 :   0.2500 0.2500 0.2500  plane waves:    1457
 k-point 27 :   0.3500 0.2500 0.2500  plane waves:    1451
 k-point 28 :   0.4500 0.2500 0.2500  plane waves:    1464
 k-point 29 :   0.3500 0.3500 0.2500  plane waves:    1457
 k-point 30 :   0.4500 0.3500 0.2500  plane waves:    1459
 k-point 31 :   0.4500 0.4500 0.2500  plane waves:    1452
 k-point 32 :   0.3500 0.3500 0.3500  plane waves:    1457
 k-point 33 :   0.4500 0.3500 0.3500  plane waves:    1451
 k-point 34 :   0.4500 0.4500 0.3500  plane waves:    1456
 k-point 35 :   0.4500 0.4500 0.4500  plane waves:    1448

 maximum and minimum number of plane-waves per node :       373      343

 maximum number of plane-waves:      1464
 maximum index in each direction: 
   IXMAX=    6   IYMAX=    6   IZMAX=    6
   IXMIN=   -7   IYMIN=   -7   IZMIN=   -7


 real space projection operators:
  total allocation   :       2196.28 KBytes
  max/ min on nodes  :        551.81        546.33


 parallel 3D FFT for wavefunctions:
    minimum data exchange during FFTs selected (reduces bandwidth)
 parallel 3D FFT for charge:
    minimum data exchange during FFTs selected (reduces bandwidth)


 total amount of memory used by VASP MPI-rank0    34342. kBytes
=======================================================================

   base      :      30000. kBytes
   nonlr-proj:        945. kBytes
   fftplans  :        478. kBytes
   grid      :       1141. kBytes
   one-center:         31. kBytes
   wavefun   :       1747. kBytes
 
     INWAV:  cpu time    0.0000: real time    0.0002
 Broyden mixing: mesh for mixing (old mesh)
   NGX = 15   NGY = 15   NGZ = 15
  (NGX  = 56   NGY  = 56   NGZ  = 56)
  gives a total of   3375 points

 initial charge density was supplied:
 charge density of overlapping atoms calculated
 number of electron      28.0000000 magnetization      10.0000000
 keeping initial charge density in first step


--------------------------------------------------------------------------------------------------------


 Maximum index for non-local projection operator         1966
 Maximum index for augmentation-charges         1986 (set IRDMAX)


--------------------------------------------------------------------------------------------------------


 First call to EWALD:  gamma=   0.624
 Maximum number of real-space cells 3x 3x 3
 Maximum number of reciprocal cells 3x 3x 3

    FEWALD:  cpu time    0.0013: real time    0.0013


--------------------------------------- Iteration      1(   1)  ---------------------------------------


    POTLOK:  cpu time    0.0135: real time    0.0185
    SETDIJ:  cpu time    0.0073: real time    0.0074
     EDDAV:  cpu time    0.5720: real time    0.5847
 BZINTS: Fermi energy: 22.253230; 28.000000 electrons
         Band energy: -55.157283;  BLOECHL correction: -0.154794
       DOS:  cpu time    0.0336: real time    0.0337
    --------------------------------------------
      LOOP:  cpu time    0.6264: real time    0.6442

 eigenvalue-minimisations  :  3408
 total energy-change (2. order) : 0.2672712E+03  (-0.2413662E+04)
 number of electron      28.0000000 magnetization      10.0000000
 augmentation part       28.0000000 magnetization      10.0000000

 Free energy of the ion-electron system (eV)
  ---------------------------------------------------
  alpha Z        PSCENC =       218.87048721
  Ewald energy   TEWEN  =     -3616.56080017
  -Hartree energ DENC   =     -1162.86386254
  -exchange      EXHF   =         0.00000000
  -V(xc)+E(xc)   XCENC  =       147.54621443
  PAW double counting   =      3997.93860218    -4177.34792201
  entropy T*S    EENTRO =         0.00000000
  eigenvalues    EBANDS =       -55.15728270
  atomic energy  EATOM  =      4914.84579160
  Solvation  Ediel_sol  =         0.00000000
  ---------------------------------------------------
  free energy    TOTEN  =       267.27122800 eV

  energy without entropy =      267.27122800  energy(sigma->0) =      267.27122800


--------------------------------------------------------------------------------------------------------




--------------------------------------- Iteration      1(   2)  ---------------------------------------


     EDDAV:  cpu time    0.5754: real time    0.5814
 BZINTS: Fermi energy: 12.215868; 28.000000 electrons
         Band energy:-330.645349;  BLOECHL correction: -0.069177
       DOS:  cpu time    0.0337: real time    0.0338
    --------------------------------------------
      LOOP:  cpu time    0.6091: real time    0.6152

 eigenvalue-minimisations  :  3432
 total energy-change (2. order) :-0.2754881E+03  (-0.2645344E+03)
 number of electron      28.0000000 magnetization      10.0000000
 augmentation part       28.0000000 magnetization      10.0000000

 Free energy of the ion-electron system (eV)
  ---------------------------------------------------
  alpha Z        PSCENC =       218.87048721
  Ewald energy   TEWEN  =     -3616.56080017
  -Hartree energ DENC   =     -1162.86386254
  -exchange      EXHF   =         0.00000000
  -V(xc)+E(xc)   XCENC  =       147.54621443
  PAW double counting   =      3997.93860218    -4177.34792201
  entropy T*S    EENTRO =         0.00000000
  eigenvalues    EBANDS =      -330.64534921
  atomic energy  EATOM  =      4914.84579160
  Solvation  Ediel_sol  =         0.00000000
  ---------------------------------------------------
  free energy    TOTEN  =        -8.21683852 eV

  energy without entropy =       -8.21683852  energy(sigma->0) =       -8.21683852


--------------------------------------------------------------------------------------------------------




--------------------------------------- Iteration      1(   3)  ---------------------------------------


     EDDAV:  cpu time    0.5791: real time    0.5811
 BZINTS: Fermi energy: 12.037088; 28.000000 electrons
         Band energy:-338.631341;  BLOECHL correction: -0.071271
       DOS:  cpu time    0.0345: real time    0.0346
    --------------------------------------------
      LOOP:  cpu time    0.6137: real time    0.6157

 eigenvalue-minimisations  :  3540
 total energy-change (2. order) :-0.7985991E+01  (-0.7968929E+01)
 number of electron      28.0000000 magnetization      10.0000000
 augmentation part       28.0000000 magnetization      10.0000000

 Free energy of the ion-electron system (eV)
  ---------------------------------------------------
  alpha Z        PSCENC =       218.87048721
  Ewald energy   TEWEN  =     -3616.56080017
  -Hartree energ DENC   =     -1162.86386254
  -exchange      EXHF   =         0.00000000
  -V(xc)+E(xc)   XCENC  =       147.54621443
  PAW double counting   =      3997.93860218    -4177.34792201
  entropy T*S    EENTRO =         0.00000000
  eigenvalues    EBANDS =      -338.63134071
  atomic energy  EATOM  =      4914.84579160
  Solvation  Ediel_sol  =         0.00000000
  ---------------------------------------------------
  free energy    TOTEN  =       -16.20283001 eV

  energy without entropy =      -16.20283001  energy(sigma->0) =      -16.20283001


--------------------------------------------------------------------------------------------------------




--------------------------------------- Iteration      1(   4)  ---------------------------------------


     EDDAV:  cpu time    0.6495: real time    0.6514
 BZINTS: Fermi energy: 12.036481; 28.000000 electrons
         Band energy:-338.702294;  BLOECHL correction: -0.071273
       DOS:  cpu time    0.0308: real time    0.0309
    --------------------------------------------
      LOOP:  cpu time    0.6803: real time    0.6822

 eigenvalue-minimisations  :  3996
 total energy-change (2. order) :-0.7095335E-01  (-0.7095316E-01)
 number of electron      28.0000000 magnetization      10.0000000
 augmentation part       28.0000000 magnetization      10.0000000

 Free energy of the ion-electron system (eV)
  ---------------------------------------------------
  alpha Z        PSCENC =       218.87048721
  Ewald energy   TEWEN  =     -3616.56080017
  -Hartree energ DENC   =     -1162.86386254
  -exchange      EXHF   =         0.00000000
  -V(xc)+E(xc)   XCENC  =       147.54621443
  PAW double counting   =      3997.93860218    -4177.34792201
  entropy T*S    EENTRO =         0.00000000
  eigenvalues    EBANDS =      -338.70229405
  atomic energy  EATOM  =      4914.84579160
  Solvation  Ediel_sol  =         0.00000000
  ---------------------------------------------------
  free energy    TOTEN  =       -16.27378335 eV

  energy without entropy =      -16.27378335  energy(sigma->0) =      -16.27378335


--------------------------------------------------------------------------------------------------------




--------------------------------------- Iteration      1(   5)  ---------------------------------------


     EDDAV:  cpu time    0.5975: real time    0.5992
 BZINTS: Fermi energy: 12.036478; 28.000000 electrons
         Band energy:-338.703611;  BLOECHL correction: -0.071273
       DOS:  cpu time    0.0331: real time    0.0332
    CHARGE:  cpu time    0.0233: real time    0.0234
    MIXING:  cpu time    0.0007: real time    0.0008
    --------------------------------------------
      LOOP:  cpu time    0.6546: real time    0.6565

 eigenvalue-minimisations  :  3636
 total energy-change (2. order) :-0.1317396E-02  (-0.1317428E-02)
 number of electron      27.9999985 magnetization       4.3573732
 augmentation part       15.9045449 magnetization       2.8335865

 Broyden mixing:
  rms(total) = 0.24993E+01    rms(broyden)= 0.24993E+01
  rms(prec ) = 0.39515E+01
  weight for this iteration     100.00

 Free energy of the ion-electron system (eV)
  ---------------------------------------------------
  alpha Z        PSCENC =       218.87048721
  Ewald energy   TEWEN  =     -3616.56080017
  -Hartree energ DENC   =     -1162.86386254
  -exchange      EXHF   =         0.00000000
  -V(xc)+E(xc)   XCENC  =       147.54621443
  PAW double counting   =      3997.93860218    -4177.34792201
  entropy T*S    EENTRO =         0.00000000
  eigenvalues    EBANDS =      -338.70361145
  atomic energy  EATOM  =      4914.84579160
  Solvation  Ediel_sol  =         0.00000000
  ---------------------------------------------------
  free energy    TOTEN  =       -16.27510075 eV

  energy without entropy =      -16.27510075  energy(sigma->0) =      -16.27510075


--------------------------------------------------------------------------------------------------------




--------------------------------------- Iteration      1(   6)  ---------------------------------------


    POTLOK:  cpu time    0.0111: real time    0.0116
    SETDIJ:  cpu time    0.0056: real time    0.0056
     EDDAV:  cpu time    0.5566: real time    0.5579
 BZINTS: Fermi energy:  9.265655; 28.000000 electrons
         Band energy:-409.593087;  BLOECHL correction: -0.036205
       DOS:  cpu time    0.0355: real time    0.0356
    CHARGE:  cpu time    0.0226: real time    0.0227
    MIXING:  cpu time    0.0006: real time    0.0006
    --------------------------------------------
      LOOP:  cpu time    0.6321: real time    0.6340

 eigenvalue-minimisations  :  3420
 total energy-change (2. order) :-0.1843355E+00  (-0.7492083E+00)
 number of electron      27.9999984 magnetization       4.5319709
 augmentation part       17.0680733 magnetization       3.5496488

 Broyden mixing:
  rms(total) = 0.69134E+00    rms(broyden)= 0.69134E+00
  rms(prec ) = 0.86653E+00
  weight for this iteration     100.00

 eigenvalues of (default mixing * dielectric matrix)
  average eigenvalue GAMMA=   0.8369
  0.8369

 Free energy of the ion-electron system (eV)
  ---------------------------------------------------
  alpha Z        PSCENC =       218.87048721
  Ewald energy   TEWEN  =     -3616.56080017
  -Hartree energ DENC   =     -1089.08664585
  -exchange      EXHF   =         0.00000000
  -V(xc)+E(xc)   XCENC  =       140.63803327
  PAW double counting   =      4113.89306426    -4289.46627989
  entropy T*S    EENTRO =         0.00000000
  eigenvalues    EBANDS =      -409.59308666
  atomic energy  EATOM  =      4914.84579160
  Solvation  Ediel_sol  =         0.00000000
  ---------------------------------------------------
  free energy    TOTEN  =       -16.45943623 eV

  energy without entropy =      -16.45943623  energy(sigma->0) =      -16.45943623


--------------------------------------------------------------------------------------------------------




--------------------------------------- Iteration      1(   7)  ---------------------------------------


    POTLOK:  cpu time    0.0107: real time    0.0110
    SETDIJ:  cpu time    0.0055: real time    0.0055
     EDDAV:  cpu time    0.5623: real time    0.5637
 BZINTS: Fermi energy:  9.762201; 28.000000 electrons
         Band energy:-395.207595;  BLOECHL correction: -0.033724
       DOS:  cpu time    0.0329: real time    0.0329
    CHARGE:  cpu time    0.0223: real time    0.0223
    MIXING:  cpu time    0.0005: real time    0.0005
    --------------------------------------------
      LOOP:  cpu time    0.6342: real time    0.6359

 eigenvalue-minimisations  :  3420
 total energy-change (2. order) :-0.5450106E-01  (-0.6151778E-01)
 number of electron      27.9999985 magnetization       4.4436928
 augmentation part       16.7744199 magnetization       3.5266608

 Broyden mixing:
  rms(total) = 0.43087E+00    rms(broyden)= 0.43087E+00
  rms(prec ) = 0.52600E+00
  weight for this iteration     100.00

 eigenvalues of (default mixing * dielectric matrix)
  average eigenvalue GAMMA=   0.7673
  0.9881  0.5466

 Free energy of the ion-electron system (eV)
  ---------------------------------------------------
  alpha Z        PSCENC =       218.87048721
  Ewald energy   TEWEN  =     -3616.56080017
  -Hartree energ DENC   =     -1099.07867022
  -exchange      EXHF   =         0.00000000
  -V(xc)+E(xc)   XCENC  =       141.33083847
  PAW double counting   =      4219.87832332    -4400.59231226
  entropy T*S    EENTRO =         0.00000000
  eigenvalues    EBANDS =      -395.20759524
  atomic energy  EATOM  =      4914.84579160
  Solvation  Ediel_sol  =         0.00000000
  ---------------------------------------------------
  free energy    TOTEN  =       -16.51393729 eV

  energy without entropy =      -16.51393729  energy(sigma->0) =      -16.51393729


--------------------------------------------------------------------------------------------------------




--------------------------------------- Iteration      1(   8)  ---------------------------------------


    POTLOK:  cpu time    0.0107: real time    0.0110
    SETDIJ:  cpu time    0.0055: real time    0.0055
     EDDAV:  cpu time    0.6110: real time    0.6125
 BZINTS: Fermi energy:  9.688600; 28.000000 electrons
         Band energy:-397.473136;  BLOECHL correction: -0.033980
       DOS:  cpu time    0.0346: real time    0.0347
    CHARGE:  cpu time    0.0218: real time    0.0219
    MIXING:  cpu time    0.0005: real time    0.0005
    --------------------------------------------
      LOOP:  cpu time    0.6841: real time    0.6859

 eigenvalue-minimisations  :  3756
 total energy-change (2. order) :-0.9694630E-02  (-0.1518003E-02)
 number of electron      27.9999985 magnetization       4.3698703
 augmentation part       16.8105510 magnetization       3.4531023

 Broyden mixing:
  rms(total) = 0.13690E+00    rms(broyden)= 0.13690E+00
  rms(prec ) = 0.21421E+00
  weight for this iteration     100.00

 eigenvalues of (default mixing * dielectric matrix)
  average eigenvalue GAMMA=   1.0474
  1.6985  0.8570  0.5867

 Free energy of the ion-electron system (eV)
  ---------------------------------------------------
  alpha Z        PSCENC =       218.87048721
  Ewald energy   TEWEN  =     -3616.56080017
  -Hartree energ DENC   =     -1095.16238459
  -exchange      EXHF   =         0.00000000
  -V(xc)+E(xc)   XCENC  =       141.10680046
  PAW double counting   =      4267.89136766    -4450.04175786
  entropy T*S    EENTRO =         0.00000000
  eigenvalues    EBANDS =      -397.47313623
  atomic energy  EATOM  =      4914.84579160
  Solvation  Ediel_sol  =         0.00000000
  ---------------------------------------------------
  free energy    TOTEN  =       -16.52363192 eV

  energy without entropy =      -16.52363192  energy(sigma->0) =      -16.52363192


--------------------------------------------------------------------------------------------------------




--------------------------------------- Iteration      1(   9)  ---------------------------------------


    POTLOK:  cpu time    0.0108: real time    0.0111
    SETDIJ:  cpu time    0.0056: real time    0.0056
     EDDAV:  cpu time    0.5854: real time    0.5868
 BZINTS: Fermi energy:  9.610430; 28.000000 electrons
         Band energy:-399.764188;  BLOECHL correction: -0.034533
       DOS:  cpu time    0.0317: real time    0.0317
    CHARGE:  cpu time    0.0225: real time    0.0225
    MIXING:  cpu time    0.0005: real time    0.0005
    --------------------------------------------
      LOOP:  cpu time    0.6563: real time    0.6582

 eigenvalue-minimisations  :  3600
 total energy-change (2. order) : 0.8277181E-02  (-0.5286184E-03)
 number of electron      27.9999984 magnetization       4.4017368
 augmentation part       16.8467590 magnetization       3.4830714

 Broyden mixing:
  rms(total) = 0.33710E-01    rms(broyden)= 0.33710E-01
  rms(prec ) = 0.45979E-01
  weight for this iteration     100.00

 eigenvalues of (default mixing * dielectric matrix)
  average eigenvalue GAMMA=   1.1855
  2.3393  1.0621  0.6995  0.6412

 Free energy of the ion-electron system (eV)
  ---------------------------------------------------
  alpha Z        PSCENC =       218.87048721
  Ewald energy   TEWEN  =     -3616.56080017
  -Hartree energ DENC   =     -1090.25257860
  -exchange      EXHF   =         0.00000000
  -V(xc)+E(xc)   XCENC  =       140.86345431
  PAW double counting   =      4344.37672853    -4528.89424974
  entropy T*S    EENTRO =         0.00000000
  eigenvalues    EBANDS =      -399.76418790
  atomic energy  EATOM  =      4914.84579160
  Solvation  Ediel_sol  =         0.00000000
  ---------------------------------------------------
  free energy    TOTEN  =       -16.51535474 eV

  energy without entropy =      -16.51535474  energy(sigma->0) =      -16.51535474


--------------------------------------------------------------------------------------------------------




--------------------------------------- Iteration      1(  10)  ---------------------------------------


    POTLOK:  cpu time    0.0106: real time    0.0109
    SETDIJ:  cpu time    0.0054: real time    0.0054
     EDDAV:  cpu time    0.5709: real time    0.5722
 BZINTS: Fermi energy:  9.624892; 28.000000 electrons
         Band energy:-399.222083;  BLOECHL correction: -0.034691
       DOS:  cpu time    0.0345: real time    0.0346
    CHARGE:  cpu time    0.0224: real time    0.0225
    MIXING:  cpu time    0.0005: real time    0.0005
    --------------------------------------------
      LOOP:  cpu time    0.6443: real time    0.6461

 eigenvalue-minimisations  :  3444
 total energy-change (2. order) : 0.1988135E-03  (-0.2243277E-03)
 number of electron      27.9999985 magnetization       4.4065063
 augmentation part       16.8347430 magnetization       3.4850806

 Broyden mixing:
  rms(total) = 0.44127E-02    rms(broyden)= 0.44127E-02
  rms(prec ) = 0.54443E-02
  weight for this iteration     100.00

 eigenvalues of (default mixing * dielectric matrix)
  average eigenvalue GAMMA=   1.1291
  2.4317  1.0998  0.7830  0.6970  0.6339

 Free energy of the ion-electron system (eV)
  ---------------------------------------------------
  alpha Z        PSCENC =       218.87048721
  Ewald energy   TEWEN  =     -3616.56080017
  -Hartree energ DENC   =     -1089.86876089
  -exchange      EXHF   =         0.00000000
  -V(xc)+E(xc)   XCENC  =       140.87086951
  PAW double counting   =      4373.17108843    -4558.62174905
  entropy T*S    EENTRO =         0.00000000
  eigenvalues    EBANDS =      -399.22208258
  atomic energy  EATOM  =      4914.84579160
  Solvation  Ediel_sol  =         0.00000000
  ---------------------------------------------------
  free energy    TOTEN  =       -16.51515593 eV

  energy without entropy =      -16.51515593  energy(sigma->0) =      -16.51515593


--------------------------------------------------------------------------------------------------------




--------------------------------------- Iteration      1(  11)  ---------------------------------------


    POTLOK:  cpu time    0.0107: real time    0.0113
    SETDIJ:  cpu time    0.0057: real time    0.0057
     EDDAV:  cpu time    0.5728: real time    0.5742
 BZINTS: Fermi energy:  9.623323; 28.000000 electrons
         Band energy:-399.254518;  BLOECHL correction: -0.034708
       DOS:  cpu time    0.0342: real time    0.0343
    CHARGE:  cpu time    0.0225: real time    0.0225
    MIXING:  cpu time    0.0005: real time    0.0005
    --------------------------------------------
      LOOP:  cpu time    0.6463: real time    0.6484

 eigenvalue-minimisations  :  3672
 total energy-change (2. order) :-0.5992264E-04  (-0.5003140E-05)
 number of electron      27.9999985 magnetization       4.4059068
 augmentation part       16.8353008 magnetization       3.4847429

 Broyden mixing:
  rms(total) = 0.24169E-02    rms(broyden)= 0.24168E-02
  rms(prec ) = 0.32614E-02
  weight for this iteration     100.00

 eigenvalues of (default mixing * dielectric matrix)
  average eigenvalue GAMMA=   1.2960
  2.3074  2.3074  1.0748  0.6332  0.7557  0.6976

 Free energy of the ion-electron system (eV)
  ---------------------------------------------------
  alpha Z        PSCENC =       218.87048721
  Ewald energy   TEWEN  =     -3616.56080017
  -Hartree energ DENC   =     -1089.86130014
  -exchange      EXHF   =         0.00000000
  -V(xc)+E(xc)   XCENC  =       140.87319036
  PAW double counting   =      4374.37495087    -4559.80301784
  entropy T*S    EENTRO =         0.00000000
  eigenvalues    EBANDS =      -399.25451774
  atomic energy  EATOM  =      4914.84579160
  Solvation  Ediel_sol  =         0.00000000
  ---------------------------------------------------
  free energy    TOTEN  =       -16.51521585 eV

  energy without entropy =      -16.51521585  energy(sigma->0) =      -16.51521585


--------------------------------------------------------------------------------------------------------




--------------------------------------- Iteration      1(  12)  ---------------------------------------


    POTLOK:  cpu time    0.0105: real time    0.0108
    SETDIJ:  cpu time    0.0055: real time    0.0055
     EDDAV:  cpu time    0.6176: real time    0.6190
 BZINTS: Fermi energy:  9.621793; 28.000000 electrons
         Band energy:-399.288909;  BLOECHL correction: -0.034721
       DOS:  cpu time    0.0343: real time    0.0344
    CHARGE:  cpu time    0.0223: real time    0.0224
    MIXING:  cpu time    0.0006: real time    0.0006
    --------------------------------------------
      LOOP:  cpu time    0.6907: real time    0.6927

 eigenvalue-minimisations  :  3816
 total energy-change (2. order) :-0.8154822E-05  (-0.5071780E-06)
 number of electron      27.9999985 magnetization       4.4056411
 augmentation part       16.8360131 magnetization       3.4847455

 Broyden mixing:
  rms(total) = 0.95726E-03    rms(broyden)= 0.95726E-03
  rms(prec ) = 0.13575E-02
  weight for this iteration     100.00

 eigenvalues of (default mixing * dielectric matrix)
  average eigenvalue GAMMA=   1.2320
  2.3916  2.3916  1.0836  0.7897  0.7155  0.6259  0.6259

 Free energy of the ion-electron system (eV)
  ---------------------------------------------------
  alpha Z        PSCENC =       218.87048721
  Ewald energy   TEWEN  =     -3616.56080017
  -Hartree energ DENC   =     -1089.91319576
  -exchange      EXHF   =         0.00000000
  -V(xc)+E(xc)   XCENC  =       140.87589014
  PAW double counting   =      4375.43246223    -4560.77695026
  entropy T*S    EENTRO =         0.00000000
  eigenvalues    EBANDS =      -399.28890900
  atomic energy  EATOM  =      4914.84579160
  Solvation  Ediel_sol  =         0.00000000
  ---------------------------------------------------
  free energy    TOTEN  =       -16.51522401 eV

  energy without entropy =      -16.51522401  energy(sigma->0) =      -16.51522401


--------------------------------------------------------------------------------------------------------




--------------------------------------- Iteration      1(  13)  ---------------------------------------


    POTLOK:  cpu time    0.0106: real time    0.0109
    SETDIJ:  cpu time    0.0055: real time    0.0055
     EDDAV:  cpu time    0.5771: real time    0.5784
 BZINTS: Fermi energy:  9.622395; 28.000000 electrons
         Band energy:-399.276473;  BLOECHL correction: -0.034713
       DOS:  cpu time    0.0342: real time    0.0343
    CHARGE:  cpu time    0.0223: real time    0.0223
    MIXING:  cpu time    0.0006: real time    0.0006
    --------------------------------------------
      LOOP:  cpu time    0.6502: real time    0.6520

 eigenvalue-minimisations  :  3528
 total energy-change (2. order) : 0.6718012E-05  (-0.1281727E-06)
 number of electron      27.9999985 magnetization       4.4054406
 augmentation part       16.8357106 magnetization       3.4844356

 Broyden mixing:
  rms(total) = 0.25252E-03    rms(broyden)= 0.25252E-03
  rms(prec ) = 0.34559E-03
  weight for this iteration     100.00

 eigenvalues of (default mixing * dielectric matrix)
  average eigenvalue GAMMA=   1.2901
  2.5188  2.4432  1.4853  1.0645  0.8088  0.6260  0.6873  0.6873

 Free energy of the ion-electron system (eV)
  ---------------------------------------------------
  alpha Z        PSCENC =       218.87048721
  Ewald energy   TEWEN  =     -3616.56080017
  -Hartree energ DENC   =     -1089.92009122
  -exchange      EXHF   =         0.00000000
  -V(xc)+E(xc)   XCENC  =       140.87578646
  PAW double counting   =      4375.55853806    -4560.90845632
  entropy T*S    EENTRO =         0.00000000
  eigenvalues    EBANDS =      -399.27647290
  atomic energy  EATOM  =      4914.84579160
  Solvation  Ediel_sol  =         0.00000000
  ---------------------------------------------------
  free energy    TOTEN  =       -16.51521729 eV

  energy without entropy =      -16.51521729  energy(sigma->0) =      -16.51521729


--------------------------------------------------------------------------------------------------------




--------------------------------------- Iteration      1(  14)  ---------------------------------------


    POTLOK:  cpu time    0.0108: real time    0.0111
    SETDIJ:  cpu time    0.0055: real time    0.0055
     EDDAV:  cpu time    0.4819: real time    0.4831
 BZINTS: Fermi energy:  9.622642; 28.000000 electrons
         Band energy:-399.271487;  BLOECHL correction: -0.034711
       DOS:  cpu time    0.0333: real time    0.0334
    CHARGE:  cpu time    0.0223: real time    0.0223
    MIXING:  cpu time    0.0006: real time    0.0006
    --------------------------------------------
      LOOP:  cpu time    0.5544: real time    0.5560

 eigenvalue-minimisations  :  2688
 total energy-change (2. order) : 0.1586664E-05  (-0.1588344E-07)
 number of electron      27.9999985 magnetization       4.4054582
 augmentation part       16.8355934 magnetization       3.4844185

 Broyden mixing:
  rms(total) = 0.65707E-04    rms(broyden)= 0.65706E-04
  rms(prec ) = 0.85984E-04
  weight for this iteration     100.00

 eigenvalues of (default mixing * dielectric matrix)
  average eigenvalue GAMMA=   1.2120
  2.6079  2.4646  1.2911  1.0507  0.8271  0.6324  0.6635  0.6854  0.6854

 Free energy of the ion-electron system (eV)
  ---------------------------------------------------
  alpha Z        PSCENC =       218.87048721
  Ewald energy   TEWEN  =     -3616.56080017
  -Hartree energ DENC   =     -1089.92254322
  -exchange      EXHF   =         0.00000000
  -V(xc)+E(xc)   XCENC  =       140.87561785
  PAW double counting   =      4375.55968567    -4560.91196715
  entropy T*S    EENTRO =         0.00000000
  eigenvalues    EBANDS =      -399.27148748
  atomic energy  EATOM  =      4914.84579160
  Solvation  Ediel_sol  =         0.00000000
  ---------------------------------------------------
  free energy    TOTEN  =       -16.51521570 eV

  energy without entropy =      -16.51521570  energy(sigma->0) =      -16.51521570


--------------------------------------------------------------------------------------------------------




--------------------------------------- Iteration      1(  15)  ---------------------------------------


    POTLOK:  cpu time    0.0106: real time    0.0109
    SETDIJ:  cpu time    0.0058: real time    0.0058
     EDDAV:  cpu time    0.3667: real time    0.3676
 BZINTS: Fermi energy:  9.622607; 28.000000 electrons
         Band energy:-399.272403;  BLOECHL correction: -0.034711
       DOS:  cpu time    0.0342: real time    0.0343
    --------------------------------------------
      LOOP:  cpu time    0.4173: real time    0.4186

 eigenvalue-minimisations  :  1704
 total energy-change (2. order) :-0.7305971E-08  (-0.1136016E-08)
 number of electron      27.9999985 magnetization       4.4054582
 augmentation part       16.8355934 magnetization       3.4844185

 Free energy of the ion-electron system (eV)
  ---------------------------------------------------
  alpha Z        PSCENC =       218.87048721
  Ewald energy   TEWEN  =     -3616.56080017
  -Hartree energ DENC   =     -1089.92216247
  -exchange      EXHF   =         0.00000000
  -V(xc)+E(xc)   XCENC  =       140.87565054
  PAW double counting   =      4375.55496237    -4560.90674219
  entropy T*S    EENTRO =         0.00000000
  eigenvalues    EBANDS =      -399.27240260
  atomic energy  EATOM  =      4914.84579160
  Solvation  Ediel_sol  =         0.00000000
  ---------------------------------------------------
  free energy    TOTEN  =       -16.51521571 eV

  energy without entropy =      -16.51521571  energy(sigma->0) =      -16.51521571


--------------------------------------------------------------------------------------------------------




 average (electrostatic) potential at core
  the test charge radii are     0.9500
  (the norm of the test charge is              1.0000)
       1 -73.6648       2 -73.6648
 
 
 
 E-fermi :   9.6226     XC(G=0): -13.6242     alpha+bet :-17.4163


 spin component 1

 k-point     1 :       0.0500    0.0500    0.0500
  band No.  band energies     occupation 
      1     -44.5605      1.00000
      2     -44.5605      1.00000
      3     -44.5462      1.00000
      4     -44.2894      1.00000
      5     -44.2747      1.00000
      6     -44.2747      1.00000
      7       1.3982      1.00000
      8       4.9382      1.00000
      9       4.9382      1.00000
     10       7.3047      1.00000
     11       7.3047      1.00000
     12       7.4307      1.00000
     13       8.5803      1.00000
     14       8.5803      1.00000
     15       9.4947      1.00000
     16       9.6871      0.60079
     17       9.6871      0.00979
     18      19.1997      0.00000
     19      19.1997      0.00000
     20      19.4417      0.00000
     21      25.8102      0.00000
     22      25.8102      0.00000
     23      30.6974      0.00000
     24      33.3488      0.00000

 k-point     2 :       0.1500    0.0500    0.0500
  band No.  band energies     occupation 
      1     -44.5665      1.00000
      2     -44.5457      1.00000
      3     -44.5241      1.00000
      4     -44.3212      1.00000
      5     -44.2879      1.00000
      6     -44.2802      1.00000
      7       1.8018      1.00000
      8       5.1061      1.00000
      9       5.1083      1.00000
     10       7.2462      1.00000
     11       7.2945      1.00000
     12       7.5990      1.00000
     13       8.4141      1.00000
     14       8.6552      1.00000
     15       9.1040      1.00000
     16       9.3724      1.02104
     17       9.6656      0.13613
     18      17.0988      0.00000
     19      19.9186      0.00000
     20      20.0957      0.00000
     21      25.9617      0.00000
     22      27.1439      0.00000
     23      31.5525      0.00000
     24      32.1500      0.00000

 k-point     3 :       0.2500    0.0500    0.0500
  band No.  band energies     occupation 
      1     -44.5637      1.00000
      2     -44.5179      1.00000
      3     -44.4934      1.00000
      4     -44.3689      1.00000
      5     -44.3133      1.00000
      6     -44.3003      1.00000
      7       2.5673      1.00000
      8       5.3674      1.00000
      9       5.4273      1.00000
     10       7.2423      1.00000
     11       7.2873      1.00000
     12       7.8415      1.00000
     13       8.1077      1.00000
     14       8.6066      1.00000
     15       8.7946      1.00000
     16       8.8889      1.00000
     17       9.4858      1.03921
     18      14.5756      0.00000
     19      21.1878      0.00000
     20      21.3585      0.00000
     21      26.2944      0.00000
     22      27.9718      0.00000
     23      29.6288      0.00000
     24      31.2960      0.00000

 k-point     4 :       0.3500    0.0500    0.0500
  band No.  band energies     occupation 
      1     -44.5492      1.00000
      2     -44.4800      1.00000
      3     -44.4554      1.00000
      4     -44.4242      1.00000
      5     -44.3486      1.00000
      6     -44.3316      1.00000
      7       3.5893      1.00000
      8       5.5401      1.00000
      9       5.8724      1.00000
     10       7.2457      1.00000
     11       7.3212      1.00000
     12       7.7678      1.00000
     13       8.1303      1.00000
     14       8.1502      1.00000
     15       8.3928      1.00000
     16       9.0191      1.00000
     17       9.2002      1.03866
     18      12.2832      0.00000
     19      22.7946      0.00000
     20      23.0074      0.00000
     21      26.8754      0.00000
     22      27.8748      0.00000
     23      28.6105      0.00000
     24      29.1475      0.00000

 k-point     5 :       0.4500    0.0500    0.0500
  band No.  band energies     occupation 
      1     -44.5204      1.00000
      2     -44.4774      1.00000
      3     -44.4362      1.00000
      4     -44.4132      1.00000
      5     -44.3909      1.00000
      6     -44.3705      1.00000
      7       4.6411      1.00000
      8       5.3581      1.00000
      9       6.3945      1.00000
     10       6.9173      1.00000
     11       7.4990      1.00000
     12       7.7310      1.00000
     13       7.7624      1.00000
     14       7.9854      1.00000
     15       8.4990      1.00000
     16       8.8573      1.00000
     17       9.4832      0.98552
     18      10.5197      0.00000
     19      24.5324      0.00000
     20      24.9046      0.00000
     21      26.2267      0.00000
     22      26.9672      0.00000
     23      27.8211      0.00000
     24      29.2507      0.00000

 k-point     6 :       0.1500    0.1500    0.0500
  band No.  band energies     occupation 
      1     -44.5805      1.00000
      2     -44.5369      1.00000
      3     -44.4918      1.00000
      4     -44.3627      1.00000
      5     -44.2981      1.00000
      6     -44.2748      1.00000
      7       2.1897      1.00000
      8       5.2390      1.00000
      9       5.2978      1.00000
     10       7.0936      1.00000
     11       7.2373      1.00000
     12       7.8699      1.00000
     13       8.4385      1.00000
     14       8.6105      1.00000
     15       8.6246      1.00000
     16       9.1495      1.00691
     17       9.7347      0.03139
     18      17.1959      0.00000
     19      18.2810      0.00000
     20      20.6509      0.00000
     21      26.6282      0.00000
     22      28.5392      0.00000
     23      29.9220      0.00000
     24      31.9695      0.00000

 k-point     7 :       0.2500    0.1500    0.0500
  band No.  band energies     occupation 
      1     -44.5898      1.00000
      2     -44.5114      1.00000
      3     -44.4539      1.00000
      4     -44.4174      1.00000
      5     -44.3211      1.00000
      6     -44.2822      1.00000
      7       2.9160      1.00000
      8       5.4553      1.00000
      9       5.6205      1.00000
     10       6.9880      1.00000
     11       7.1823      1.00000
     12       8.1057      1.00000
     13       8.2001      1.00000
     14       8.2824      1.00000
     15       8.7216      1.00000
     16       8.7243      1.00000
     17       9.6885      0.28921
     18      14.9839      0.00000
     19      19.0121      0.00000
     20      21.7957      0.00000
     21      27.0199      0.00000
     22      27.7478      0.00000
     23      29.9239      0.00000
     24      30.6412      0.00000

 k-point     8 :       0.3500    0.1500    0.0500
  band No.  band energies     occupation 
      1     -44.5857      1.00000
      2     -44.4759      1.00000
      3     -44.4752      1.00000
      4     -44.4132      1.00000
      5     -44.3536      1.00000
      6     -44.3031      1.00000
      7       3.8581      1.00000
      8       5.5954      1.00000
      9       6.0116      1.00000
     10       6.9644      1.00000
     11       7.1188      1.00000
     12       7.6670      1.00000
     13       8.0930      1.00000
     14       8.3376      1.00000
     15       8.5642      1.00000
     16       8.9632      1.00000
     17       9.4967      0.92394
     18      12.6533      0.00000
     19      20.3762      0.00000
     20      23.3121      0.00000
     21      25.6604      0.00000
     22      27.5890      0.00000
     23      28.7791      0.00000
     24      30.9264      0.00000

 k-point     9 :       0.4500    0.1500    0.0500
  band No.  band energies     occupation 
      1     -44.5648      1.00000
      2     -44.5267      1.00000
      3     -44.4349      1.00000
      4     -44.3927      1.00000
      5     -44.3723      1.00000
      6     -44.3344      1.00000
      7       4.7818      1.00000
      8       5.4045      1.00000
      9       6.4366      1.00000
     10       6.8149      1.00000
     11       7.1496      1.00000
     12       7.3555      1.00000
     13       8.0549      1.00000
     14       8.1284      1.00000
     15       8.8892      1.00000
     16       9.2081      1.00000
     17       9.5412      0.77849
     18      10.7643      0.00000
     19      21.9649      0.00000
     20      23.7293      0.00000
     21      25.0473      0.00000
     22      26.8831      0.00000
     23      28.4946      0.00000
     24      29.8474      0.00000

 k-point    10 :       0.2500    0.2500    0.0500
  band No.  band energies     occupation 
      1     -44.6130      1.00000
      2     -44.4907      1.00000
      3     -44.4771      1.00000
      4     -44.4110      1.00000
      5     -44.3389      1.00000
      6     -44.2749      1.00000
      7       3.5389      1.00000
      8       5.5103      1.00000
      9       6.0140      1.00000
     10       6.7713      1.00000
     11       7.1536      1.00000
     12       7.5986      1.00000
     13       8.4262      1.00000
     14       8.4287      1.00000
     15       8.6229      1.00000
     16       8.6647      1.00000
     17       9.8079     -0.03393
     18      14.8630      0.00000
     19      17.4658      0.00000
     20      22.7548      0.00000
     21      25.3834      0.00000
     22      27.3662      0.00000
     23      30.0595      0.00000
     24      32.3851      0.00000

 k-point    11 :       0.3500    0.2500    0.0500
  band No.  band energies     occupation 
      1     -44.6222      1.00000
      2     -44.5352      1.00000
      3     -44.4619      1.00000
      4     -44.3695      1.00000
      5     -44.3642      1.00000
      6     -44.2821      1.00000
      7       4.2636      1.00000
      8       5.4677      1.00000
      9       6.4672      1.00000
     10       6.6638      1.00000
     11       7.1892      1.00000
     12       7.2435      1.00000
     13       8.2727      1.00000
     14       8.4045      1.00000
     15       8.8096      1.00000
     16       9.0698      1.02187
     17       9.7579      0.00398
     18      13.0482      0.00000
     19      18.1035      0.00000
     20      23.1679      0.00000
     21      24.0662      0.00000
     22      27.8480      0.00000
     23      28.7851      0.00000
     24      31.4420      0.00000

 k-point    12 :       0.4500    0.2500    0.0500
  band No.  band energies     occupation 
      1     -44.6125      1.00000
      2     -44.5826      1.00000
      3     -44.4288      1.00000
      4     -44.3951      1.00000
      5     -44.3323      1.00000
      6     -44.3021      1.00000
      7       4.8666      1.00000
      8       5.2596      1.00000
      9       6.6821      1.00000
     10       6.7708      1.00000
     11       7.0120      1.00000
     12       7.2241      1.00000
     13       8.3123      1.00000
     14       8.3952      1.00000
     15       9.1810      1.00000
     16       9.5468      0.95175
     17       9.7287      0.02977
     18      11.1094      0.00000
     19      19.4888      0.00000
     20      21.1931      0.00000
     21      25.5959      0.00000
     22      27.2068      0.00000
     23      28.6470      0.00000
     24      29.8692      0.00000

 k-point    13 :       0.3500    0.3500    0.0500
  band No.  band energies     occupation 
      1     -44.6453      1.00000
      2     -44.5898      1.00000
      3     -44.4426      1.00000
      4     -44.3797      1.00000
      5     -44.3312      1.00000
      6     -44.2750      1.00000
      7       4.6032      1.00000
      8       5.2500      1.00000
      9       6.4671      1.00000
     10       6.7899      1.00000
     11       7.0688      1.00000
     12       7.8005      1.00000
     13       8.3288      1.00000
     14       8.5818      1.00000
     15       8.7312      1.00000
     16       9.5045      0.96285
     17       9.8584     -0.00497
     18      12.6726      0.00000
     19      17.0754      0.00000
     20      20.9326      0.00000
     21      25.1102      0.00000
     22      28.2079      0.00000
     23      28.4080      0.00000
     24      30.7491      0.00000

 k-point    14 :       0.4500    0.3500    0.0500
  band No.  band energies     occupation 
      1     -44.6486      1.00000
      2     -44.6295      1.00000
      3     -44.4208      1.00000
      4     -44.3991      1.00000
      5     -44.3012      1.00000
      6     -44.2818      1.00000
      7       4.8276      1.00000
      8       5.0273      1.00000
      9       6.4158      1.00000
     10       6.5252      1.00000
     11       7.6335      1.00000
     12       8.0156      1.00000
     13       8.4770      1.00000
     14       8.6081      1.00000
     15       9.2344      1.00000
     16       9.7475      0.31700
     17      10.0490      0.00000
     18      11.2874      0.00000
     19      17.6523      0.00000
     20      19.0565      0.00000
     21      26.3162      0.00000
     22      27.4991      0.00000
     23      28.8185      0.00000
     24      29.7273      0.00000

 k-point    15 :       0.4500    0.4500    0.0500
  band No.  band energies     occupation 
      1     -44.6652      1.00000
      2     -44.6587      1.00000
      3     -44.4124      1.00000
      4     -44.4049      1.00000
      5     -44.2817      1.00000
      6     -44.2750      1.00000
      7       4.7954      1.00000
      8       4.8569      1.00000
      9       6.2865      1.00000
     10       6.3240      1.00000
     11       8.3604      1.00000
     12       8.5982      1.00000
     13       8.6193      1.00000
     14       8.7801      1.00000
     15       9.2763      1.00000
     16       9.7024      0.28329
     17      10.4352      0.00000
     18      10.9857      0.00000
     19      16.9430      0.00000
     20      17.5291      0.00000
     21      27.0345      0.00000
     22      27.4880      0.00000
     23      29.0850      0.00000
     24      29.4301      0.00000

 k-point    16 :       0.1500    0.1500    0.1500
  band No.  band energies     occupation 
      1     -44.5648      1.00000
      2     -44.5648      1.00000
      3     -44.4560      1.00000
      4     -44.4002      1.00000
      5     -44.2889      1.00000
      6     -44.2889      1.00000
      7       2.5669      1.00000
      8       5.4263      1.00000
      9       5.4263      1.00000
     10       7.0361      1.00000
     11       7.0361      1.00000
     12       8.0860      1.00000
     13       8.1860      1.00000
     14       8.5280      1.00000
     15       8.5280      1.00000
     16       9.4248      0.99979
     17       9.4248      1.11232
     18      17.8413      0.00000
     19      17.8413      0.00000
     20      19.2371      0.00000
     21      28.7874      0.00000
     22      28.7874      0.00000
     23      29.7385      0.00000
     24      29.7385      0.00000

 k-point    17 :       0.2500    0.1500    0.1500
  band No.  band energies     occupation 
      1     -44.5851      1.00000
      2     -44.5351      1.00000
      3     -44.4516      1.00000
      4     -44.4179      1.00000
      5     -44.3161      1.00000
      6     -44.2884      1.00000
      7       3.2656      1.00000
      8       5.6655      1.00000
      9       5.6997      1.00000
     10       6.9035      1.00000
     11       6.9348      1.00000
     12       7.5732      1.00000
     13       8.3822      1.00000
     14       8.5849      1.00000
     15       8.6826      1.00000
     16       8.9719      1.00000
     17       9.5062      0.95267
     18      15.4702      0.00000
     19      18.9552      0.00000
     20      19.8769      0.00000
     21      27.5256      0.00000
     22      28.5415      0.00000
     23      29.3030      0.00000
     24      30.5091      0.00000

 k-point    18 :       0.3500    0.1500    0.1500
  band No.  band energies     occupation 
      1     -44.5912      1.00000
      2     -44.5045      1.00000
      3     -44.4947      1.00000
      4     -44.3810      1.00000
      5     -44.3541      1.00000
      6     -44.2990      1.00000
      7       4.1488      1.00000
      8       5.8192      1.00000
      9       5.9787      1.00000
     10       6.7952      1.00000
     11       6.9293      1.00000
     12       7.2679      1.00000
     13       8.2260      1.00000
     14       8.5458      1.00000
     15       8.8081      1.00000
     16       9.1279      1.00000
     17       9.4067      0.92704
     18      13.1244      0.00000
     19      20.3548      0.00000
     20      21.0651      0.00000
     21      25.4924      0.00000
     22      26.4578      0.00000
     23      30.1153      0.00000
     24      31.4557      0.00000

 k-point    19 :       0.4500    0.1500    0.1500
  band No.  band energies     occupation 
      1     -44.5796      1.00000
      2     -44.5495      1.00000
      3     -44.4478      1.00000
      4     -44.3994      1.00000
      5     -44.3475      1.00000
      6     -44.3194      1.00000
      7       4.9804      1.00000
      8       5.5622      1.00000
[...]
     19      18.3222      0.00000
     20      20.7971      0.00000
     21      22.3835      0.00000
     22      24.8361      0.00000
     23      26.2509      0.00000
     24      30.1362      0.00000

 k-point    30 :       0.4500    0.3500    0.2500
  band No.  band energies     occupation 
      1     -42.0278      1.00000
      2     -42.0275      1.00000
      3     -41.8763      1.00000
      4     -41.8250      1.00000
      5     -41.7188      1.00000
      6     -41.7145      1.00000
      7       6.7328      1.00000
      8       7.0450      1.00000
      9       7.9674      1.00000
     10       7.9783      1.00000
     11       8.3645      1.00000
     12       8.4912      1.00000
     13      11.1842      0.00000
     14      11.2347      0.00000
     15      11.5150      0.00000
     16      11.5334      0.00000
     17      13.8173      0.00000
     18      14.8897      0.00000
     19      19.1261      0.00000
     20      20.5767      0.00000
     21      21.9129      0.00000
     22      23.4381      0.00000
     23      26.7662      0.00000
     24      28.2365      0.00000

 k-point    31 :       0.4500    0.4500    0.2500
  band No.  band energies     occupation 
      1     -42.0356      1.00000
      2     -42.0350      1.00000
      3     -41.8569      1.00000
      4     -41.8361      1.00000
      5     -41.7252      1.00000
      6     -41.7214      1.00000
      7       6.8529      1.00000
      8       6.9334      1.00000
      9       7.8846      1.00000
     10       7.8995      1.00000
     11       8.6612      1.00000
     12       8.7304      1.00000
     13      11.3009      0.00000
     14      11.3257      0.00000
     15      11.5265      0.00000
     16      11.5391      0.00000
     17      14.4940      0.00000
     18      15.0169      0.00000
     19      18.3897      0.00000
     20      19.0493      0.00000
     21      23.0062      0.00000
     22      24.1212      0.00000
     23      25.2333      0.00000
     24      26.3294      0.00000

 k-point    32 :       0.3500    0.3500    0.3500
  band No.  band energies     occupation 
      1     -42.0118      1.00000
      2     -41.9614      1.00000
      3     -41.9614      1.00000
      4     -41.7729      1.00000
      5     -41.7729      1.00000
      6     -41.7227      1.00000
      7       6.9264      1.00000
      8       7.5003      1.00000
      9       7.9276      1.00000
     10       7.9276      1.00000
     11       8.0742      1.00000
     12       8.0742      1.00000
     13      11.3765      0.00000
     14      11.3765      0.00000
     15      11.4153      0.00000
     16      11.4153      0.00000
     17      13.8656      0.00000
     18      17.4973      0.00000
     19      17.4973      0.00000
     20      19.8865      0.00000
     21      22.8235      0.00000
     22      22.8235      0.00000
     23      24.1463      0.00000
     24      28.0398      0.00000

 k-point    33 :       0.4500    0.3500    0.3500
  band No.  band energies     occupation 
      1     -42.0064      1.00000
      2     -41.9906      1.00000
      3     -41.8987      1.00000
      4     -41.8337      1.00000
      5     -41.7566      1.00000
      6     -41.7378      1.00000
      7       7.2798      1.00000
      8       7.3821      1.00000
      9       7.8722      1.00000
     10       7.9206      1.00000
     11       8.0467      1.00000
     12       8.2171      1.00000
     13      11.3597      0.00000
     14      11.3850      0.00000
     15      11.5029      0.00000
     16      11.5141      0.00000
     17      14.8063      0.00000
     18      16.0278      0.00000
     19      19.1308      0.00000
     20      20.4299      0.00000
     21      20.9114      0.00000
     22      21.6695      0.00000
     23      24.5510      0.00000
     24      26.0869      0.00000

 k-point    34 :       0.4500    0.4500    0.3500
  band No.  band energies     occupation 
      1     -41.9892      1.00000
      2     -41.9780      1.00000
      3     -41.8850      1.00000
      4     -41.8488      1.00000
      5     -41.7791      1.00000
      6     -41.7645      1.00000
      7       7.4283      1.00000
      8       7.4420      1.00000
      9       7.8024      1.00000
     10       7.8454      1.00000
     11       8.1730      1.00000
     12       8.2613      1.00000
     13      11.4437      0.00000
     14      11.4545      0.00000
     15      11.5334      0.00000
     16      11.5377      0.00000
     17      15.8061      0.00000
     18      16.5886      0.00000
     19      18.5409      0.00000
     20      19.5007      0.00000
     21      21.0125      0.00000
     22      22.1184      0.00000
     23      22.9696      0.00000
     24      24.1595      0.00000

 k-point    35 :       0.4500    0.4500    0.4500
  band No.  band energies     occupation 
      1     -41.9444      1.00000
      2     -41.9119      1.00000
      3     -41.9119      1.00000
      4     -41.8434      1.00000
      5     -41.8434      1.00000
      6     -41.8109      1.00000
      7       7.6625      1.00000
      8       7.8091      1.00000
      9       7.8091      1.00000
     10       7.9080      1.00000
     11       7.9533      1.00000
     12       7.9533      1.00000
     13      11.5394      0.00000
     14      11.5394      0.00000
     15      11.5424      0.00000
     16      11.5424      0.00000
     17      17.1205      0.00000
     18      18.3146      0.00000
     19      18.3146      0.00000
     20      20.0019      0.00000
     21      20.1675      0.00000
     22      20.1675      0.00000
     23      21.5183      0.00000
     24      22.3098      0.00000


--------------------------------------------------------------------------------------------------------


 soft charge-density along one line, spin component           1
         0         1         2         3         4         5         6         7         8         9
 total charge-density along one line
 
 soft charge-density along one line, spin component           2
         0         1         2         3         4         5         6         7         8         9
 total charge-density along one line
 
 pseudopotential strength for first ion, spin component:           1
-44.857  -0.000   0.000   7.570   0.000  -0.000   0.000  -0.000
 -0.000 -44.857   0.000   0.000   7.570  -0.000   0.000  -0.000
  0.000   0.000 -44.857  -0.000  -0.000   7.570  -0.000   0.000
  7.570   0.000  -0.000   5.638  -0.000  -0.000  -0.000   0.000
  0.000   7.570  -0.000  -0.000   5.638   0.000  -0.000   0.000
 -0.000  -0.000   7.570  -0.000   0.000   5.638   0.000  -0.000
  0.000   0.000  -0.000  -0.000  -0.000   0.000  -1.981   0.000
 -0.000  -0.000   0.000   0.000   0.000  -0.000   0.000  -1.981
  0.000  -0.000  -0.000  -0.000   0.000   0.000  -0.000  -0.000
  0.000   0.000  -0.000  -0.000  -0.000   0.000   0.000   0.000
  0.000  -0.000   0.000  -0.000   0.000  -0.000  -0.000   0.000
  0.000   0.000  -0.000  -0.000  -0.000   0.000  -2.495   0.000
 -0.000  -0.000   0.000   0.000   0.000  -0.000   0.000  -2.495
  0.000  -0.000  -0.000  -0.000   0.000   0.000  -0.000  -0.000
  0.000  -0.000  -0.000  -0.000  -0.000   0.000   0.000   0.000
  0.000  -0.000  -0.000  -0.000   0.000  -0.000  -0.000   0.000
  0.000   0.000  -0.000   0.000   0.000  -0.000  -0.000   0.000
  0.000   0.000   0.000   0.000   0.000  -0.000  -0.000   0.000
 pseudopotential strength for first ion, spin component:           2
-42.886  -0.000   0.000   6.737   0.000  -0.000   0.000  -0.000
 -0.000 -42.886  -0.000   0.000   6.737   0.000   0.000  -0.000
  0.000  -0.000 -42.886  -0.000   0.000   6.737  -0.000   0.000
  6.737   0.000  -0.000   5.866   0.000  -0.000   0.000   0.000
  0.000   6.737   0.000   0.000   5.866   0.000  -0.000   0.000
 -0.000   0.000   6.737  -0.000   0.000   5.866   0.000  -0.000
  0.000   0.000  -0.000   0.000  -0.000   0.000  -0.455  -0.000
 -0.000  -0.000   0.000   0.000   0.000  -0.000  -0.000  -0.455
  0.000  -0.000   0.000  -0.000   0.000   0.000  -0.000  -0.000
  0.000  -0.000  -0.000  -0.000  -0.000   0.000  -0.000   0.000
  0.000  -0.000   0.000  -0.000   0.000  -0.000  -0.000   0.000
  0.000   0.000  -0.000  -0.000  -0.000   0.000  -0.995  -0.000
 -0.000  -0.000   0.000   0.000   0.000  -0.000  -0.000  -0.995
  0.000  -0.000  -0.000  -0.000   0.000   0.000  -0.000  -0.000
  0.000  -0.000  -0.000  -0.000  -0.000   0.000  -0.000   0.000
  0.000  -0.000  -0.000  -0.000   0.000   0.000  -0.000   0.000
  0.000   0.000   0.000   0.000   0.000   0.000  -0.000   0.000
  0.000   0.000   0.000   0.000   0.000  -0.000  -0.000   0.000
 total augmentation occupancy for first ion, spin component:           1
  1.992   0.000   0.000  -0.026   0.000  -0.000   0.000   0.000   0.000  -0.000   0.000   0.000   0.000   0.000   0.000  -0.000
  0.000   1.992   0.000   0.000  -0.026   0.000   0.000   0.000   0.000   0.000   0.000  -0.000   0.000   0.000   0.000  -0.000
  0.000   0.000   1.992  -0.000   0.000  -0.026   0.000  -0.000   0.000   0.000   0.000   0.000   0.000   0.000   0.000   0.000
 -0.026  -0.000  -0.000   0.201  -0.000  -0.000   0.000  -0.000   0.000   0.000  -0.000  -0.000   0.000  -0.000   0.000  -0.000
  0.000  -0.026   0.000  -0.000   0.201  -0.000   0.000   0.000   0.000   0.000  -0.000   0.000  -0.000   0.000   0.000   0.000
  0.000   0.000  -0.026  -0.000  -0.000   0.201  -0.000   0.000   0.000   0.000  -0.000   0.000  -0.000  -0.000  -0.000   0.000
  0.000   0.000   0.000   0.000   0.000   0.000   2.169  -0.000  -0.000  -0.000   0.000  -1.222  -0.000  -0.000   0.000  -0.000
  0.000   0.000   0.000  -0.000  -0.000  -0.000  -0.000   2.169   0.000  -0.000  -0.000   0.000  -1.222   0.000   0.000   0.000
  0.000   0.000  -0.000   0.000   0.000   0.000  -0.000  -0.000   3.408  -0.000  -0.000  -0.000  -0.000  -2.184  -0.000  -0.000
  0.000   0.000   0.000  -0.000  -0.000   0.000  -0.000  -0.000   0.000   2.169   0.000   0.000  -0.000  -0.000  -1.222  -0.000
  0.000  -0.000   0.000   0.000  -0.000  -0.000  -0.000  -0.000  -0.000   0.000   3.408   0.000  -0.000  -0.000   0.000  -2.184
  0.000  -0.000   0.000   0.000  -0.000   0.000  -1.222   0.000  -0.000   0.000   0.000   1.650  -0.000   0.000  -0.000  -0.000
  0.000   0.000   0.000  -0.000  -0.000   0.000   0.000  -1.222  -0.000  -0.000  -0.000   0.000   1.650  -0.000   0.000   0.000
  0.000   0.000   0.000   0.000   0.000  -0.000  -0.000  -0.000  -2.184  -0.000   0.000   0.000   0.000   2.224  -0.000   0.000
  0.000   0.000   0.000   0.000  -0.000   0.000  -0.000   0.000  -0.000  -1.222   0.000   0.000  -0.000  -0.000   1.650   0.000
 -0.000   0.000   0.000   0.000   0.000   0.000  -0.000   0.000   0.000  -0.000  -2.184   0.000   0.000   0.000   0.000   2.224
  0.000   0.000   0.000  -0.000  -0.000  -0.000  -0.000   0.000  -0.000  -0.000  -0.000  -0.000  -0.000   0.000   0.000   0.000
  0.000   0.000   0.000  -0.000  -0.000  -0.000   0.000   0.000  -0.000   0.000  -0.000   0.000  -0.000   0.000   0.000  -0.000
 total augmentation occupancy for first ion, spin component:           2
 -0.002   0.000   0.000  -0.009   0.000   0.000   0.000   0.000  -0.000   0.000   0.000   0.000   0.000   0.000   0.000   0.000
  0.000  -0.002   0.000   0.000  -0.009   0.000  -0.000   0.000   0.000   0.000   0.000  -0.000   0.000   0.000   0.000   0.000
  0.000   0.000  -0.002   0.000  -0.000  -0.009   0.000   0.000   0.000   0.000   0.000   0.000   0.000  -0.000   0.000  -0.000
 -0.009  -0.000   0.000  -0.020  -0.000   0.000  -0.000  -0.000  -0.000   0.000   0.000   0.000  -0.000  -0.000   0.000  -0.000
 -0.000  -0.009  -0.000   0.000  -0.020  -0.000   0.000   0.000   0.000   0.000   0.000  -0.000   0.000   0.000  -0.000   0.000
 -0.000   0.000  -0.009   0.000   0.000  -0.020   0.000   0.000   0.000  -0.000   0.000  -0.000   0.000  -0.000   0.000  -0.000
  0.000  -0.000   0.000  -0.000   0.000  -0.000   1.759  -0.000  -0.000  -0.000   0.000  -0.662   0.000   0.000  -0.000   0.000
  0.000   0.000   0.000   0.000   0.000  -0.000  -0.000   1.759   0.000   0.000   0.000   0.000  -0.662   0.000  -0.000  -0.000
  0.000   0.000  -0.000   0.000   0.000   0.000  -0.000   0.000   2.822   0.000  -0.000   0.000  -0.000  -1.163  -0.000  -0.000
  0.000   0.000   0.000  -0.000   0.000   0.000   0.000   0.000  -0.000   1.759  -0.000   0.000   0.000   0.000  -0.662  -0.000
 -0.000   0.000  -0.000  -0.000  -0.000  -0.000   0.000  -0.000  -0.000  -0.000   2.822  -0.000  -0.000   0.000   0.000  -1.163
  0.000  -0.000   0.000  -0.000   0.000  -0.000  -0.662   0.000  -0.000   0.000   0.000  -0.006   0.000  -0.000   0.000  -0.000
  0.000   0.000  -0.000   0.000   0.000  -0.000   0.000  -0.662  -0.000  -0.000  -0.000  -0.000  -0.006   0.000   0.000  -0.000
  0.000   0.000  -0.000  -0.000   0.000  -0.000   0.000   0.000  -1.163   0.000   0.000   0.000   0.000   0.239  -0.000  -0.000
 -0.000   0.000   0.000  -0.000   0.000  -0.000  -0.000  -0.000   0.000  -0.662   0.000   0.000   0.000  -0.000  -0.006   0.000
  0.000   0.000  -0.000   0.000  -0.000   0.000   0.000   0.000   0.000  -0.000  -1.163  -0.000  -0.000   0.000   0.000   0.239
  0.000   0.000   0.000   0.000   0.000   0.000   0.000   0.000  -0.000  -0.000   0.000   0.000   0.000   0.000   0.000   0.000
  0.000   0.000   0.000   0.000   0.000   0.000  -0.000  -0.000  -0.000   0.000  -0.000  -0.000  -0.000   0.000  -0.000   0.000


------------------------ aborting loop because EDIFF is reached ----------------------------------------


 


 total charge     
 
# of ion       s       p       d       tot
------------------------------------------
    1        0.385   6.378   6.075  12.837
    2        0.385   6.378   6.075  12.837
--------------------------------------------------
tot          0.770  12.755  12.150  25.675
 


 magnetization (x)
 
# of ion       s       p       d       tot
------------------------------------------
    1       -0.008  -0.042   2.292   2.243
    2       -0.008  -0.042   2.292   2.243
--------------------------------------------------
tot         -0.015  -0.083   4.584   4.485
 
    CHARGE:  cpu time    0.0212: real time    0.0213
    FORLOC:  cpu time    0.0002: real time    0.0002
    FORNL :  cpu time    0.1124: real time    0.1127
    STRESS:  cpu time    0.3352: real time    0.3360
    FORCOR:  cpu time    0.0107: real time    0.0107
    FORHAR:  cpu time    0.0012: real time    0.0012
    MIXING:  cpu time    0.0006: real time    0.0006
    OFIELD:  cpu time    0.0000: real time    0.0000

  FORCE on cell =-STRESS in cart. coord.  units (eV):
  Direction    XX          YY          ZZ          XY          YZ          ZX
  --------------------------------------------------------------------------------------
  Alpha Z   218.87049   218.87049   218.87049
  Ewald   -1205.52018 -1205.52018 -1205.52018    -0.00000    -0.00000    -0.00000
  Hartree   363.30742   363.30742   363.30742    -0.00000    -0.00000    -0.00000
  E(xc)    -179.77967  -179.77967  -179.77967    -0.00000    -0.00000    -0.00000
  Local     289.65892   289.65892   289.65892    -0.00000     0.00000    -0.00000
  n-local   -60.12368   -54.10884   -50.50212     2.76497    -1.55551     0.58484
  augment   285.39210   285.39210   285.39210    -0.00000     0.00000     0.00000
  Kinetic   283.97084   282.52527   281.79477     2.93795    -0.74279    -0.07109
  Fock        0.00000     0.00000     0.00000     0.00000     0.00000     0.00000
  -------------------------------------------------------------------------------------
  Total      -0.21884    -0.21884    -0.21884    -0.00000    -0.00000    -0.00000
  in kB     -15.30607   -15.30607   -15.30607    -0.00000    -0.00000    -0.00000
  external pressure =      -15.31 kB  Pullay stress =        0.00 kB


 VOLUME and BASIS-vectors are now :
 -----------------------------------------------------------------------------
  energy-cutoff  :      920.00
  volume of cell :       22.91
      direct lattice vectors                 reciprocal lattice vectors
     2.840052000  0.000000000  0.000000000     0.352106229  0.000000000  0.000000000
     0.000000000  2.840052000  0.000000000     0.000000000  0.352106229  0.000000000
     0.000000000  0.000000000  2.840052000     0.000000000  0.000000000  0.352106229

  length of vectors
     2.840052000  2.840052000  2.840052000     0.352106229  0.352106229  0.352106229


 FORCES acting on ions
    electron-ion (+dipol)            ewald-force                    non-local-force                 convergence-correction
 -----------------------------------------------------------------------------------------------
   -.554E-13 -.213E-13 -.300E-13   -.529E-15 -.103E-14 -.897E-14   0.000E+00 0.000E+00 0.000E+00   0.504E-13 -.953E-15 -.157E-13
   0.816E-12 0.749E-11 0.865E-11   0.472E-14 0.447E-14 0.926E-14   0.000E+00 0.000E+00 0.000E+00   -.452E-13 0.750E-15 -.989E-13
 -----------------------------------------------------------------------------------------------
   0.761E-12 0.747E-11 0.862E-11   0.419E-14 0.343E-14 0.284E-15   0.000E+00 0.000E+00 0.000E+00   0.514E-14 -.203E-15 -.115E-12
 
 
 POSITION                                       TOTAL-FORCE (eV/Angst)
 -----------------------------------------------------------------------------------
      0.00000      0.00000      0.00000         0.000000      0.000000      0.000000
      1.42003      1.42003      1.42003        -0.000000     -0.000000     -0.000000
 -----------------------------------------------------------------------------------
    total drift:                                0.000000      0.000000      0.000000


--------------------------------------------------------------------------------------------------------



  FREE ENERGIE OF THE ION-ELECTRON SYSTEM (eV)
  ---------------------------------------------------
  free  energy   TOTEN  =       -16.51521571 eV

  energy  without entropy=      -16.51521571  energy(sigma->0) =      -16.51521571
 


--------------------------------------------------------------------------------------------------------


    POTLOK:  cpu time    0.0166: real time    0.0166


--------------------------------------------------------------------------------------------------------


     LOOP+:  cpu time    9.9076: real time    9.9586
    4ORBIT:  cpu time    0.0000: real time    0.0000
 


 total charge     
 
# of ion       s       p       d       tot
------------------------------------------
    1        0.385   6.378   6.075  12.837
    2        0.385   6.378   6.075  12.837
--------------------------------------------------
tot          0.770  12.755  12.150  25.675
 


 magnetization (x)
 
# of ion       s       p       d       tot
------------------------------------------
    1       -0.008  -0.042   2.292   2.243
    2       -0.008  -0.042   2.292   2.243
--------------------------------------------------
tot         -0.015  -0.083   4.584   4.485
 
 BZINTS: Fermi energy:  9.622607; 28.000000 electrons
         Band energy:-399.272403;  BLOECHL correction: -0.034711

 total amount of memory used by VASP MPI-rank0    34342. kBytes
=======================================================================

   base      :      30000. kBytes
   nonlr-proj:        945. kBytes
   fftplans  :        478. kBytes
   grid      :       1141. kBytes
   one-center:         31. kBytes
   wavefun   :       1747. kBytes
 
  
  
 General timing and accounting informations for this job:
 ========================================================
  
                  Total CPU time used (sec):       11.255
                            User time (sec):       11.034
                          System time (sec):        0.220
                         Elapsed time (sec):       11.916
  
                   Maximum memory used (kb):       59240.
                   Average memory used (kb):           0.
  
                          Minor page faults:        14764
                          Major page faults:            0
                 Voluntary context switches:         1705
