       N       E                     dE             d eps       ncg     rms          rms(c)
DAV:   1     0.905924351364E+03    0.90592E+03   -0.44187E+04122720   0.250E+03
DAV:   2     0.512401452005E+02   -0.85468E+03   -0.82440E+03110944   0.714E+02
DAV:   3    -0.227963098618E+01   -0.53520E+02   -0.50154E+02119920   0.213E+02
DAV:   4    -0.329916037776E+01   -0.10195E+01   -0.10125E+01122008   0.305E+01
DAV:   5    -0.332618374989E+01   -0.27023E-01   -0.26901E-01139880   0.481E+00    0.531E+01
DAV:   6    -0.134371530121E+02   -0.10111E+02   -0.60770E+01112464   0.902E+01    0.218E+01
DAV:   7    -0.113479562962E+02    0.20892E+01   -0.18596E+01121328   0.543E+01    0.475E+00
DAV:   8    -0.114912762802E+02   -0.14332E+00   -0.10505E+00125232   0.107E+01    0.188E+00
DAV:   9    -0.115301096698E+02   -0.38833E-01   -0.79677E-02127056   0.273E+00    0.118E+00
DAV:  10    -0.115524022117E+02   -0.22293E-01   -0.19898E-02159848   0.148E+00    0.777E-01
DAV:  11    -0.115698589584E+02   -0.17457E-01   -0.22337E-02152568   0.155E+00    0.552E-01
DAV:  12    -0.115821373139E+02   -0.12278E-01   -0.21509E-02157648   0.138E+00    0.499E-01
DAV:  13    -0.115909848620E+02   -0.88475E-02   -0.10767E-02162680   0.877E-01    0.540E-01
DAV:  14    -0.115750600816E+02    0.15925E-01   -0.33311E-02169816   0.200E+00    0.417E-01
DAV:  15    -0.115669975814E+02    0.80625E-02   -0.62548E-02170608   0.235E+00    0.340E-01
DAV:  16    -0.115741886330E+02   -0.71911E-02   -0.75598E-03123536   0.913E-01    0.219E-01
DAV:  17    -0.115764049726E+02   -0.22163E-02   -0.76257E-03163832   0.110E+00    0.149E-01
DAV:  18    -0.115773261450E+02   -0.92117E-03   -0.36508E-03166240   0.631E-01    0.113E-01
DAV:  19    -0.115776763574E+02   -0.35021E-03   -0.10178E-03143744   0.301E-01    0.941E-02
DAV:  20    -0.115783909524E+02   -0.71460E-03   -0.54458E-03175200   0.861E-01    0.763E-02
DAV:  21    -0.115787492710E+02   -0.35832E-03   -0.31283E-03164984   0.566E-01    0.574E-02
DAV:  22    -0.115788594237E+02   -0.11015E-03   -0.96809E-04150448   0.295E-01    0.315E-02
DAV:  23    -0.115788970528E+02   -0.37629E-04   -0.70719E-04158584   0.255E-01    0.247E-02
DAV:  24    -0.115789328921E+02   -0.35839E-04   -0.25280E-04141976   0.139E-01    0.182E-02
DAV:  25    -0.115789525119E+02   -0.19620E-04   -0.82481E-05146848   0.721E-02    0.197E-02
DAV:  26    -0.115789344197E+02    0.18092E-04   -0.11268E-04145888   0.120E-01    0.165E-02
DAV:  27    -0.115789136004E+02    0.20819E-04   -0.57649E-05168800   0.877E-02    0.216E-02
DAV:  28    -0.115789137526E+02   -0.15226E-06   -0.12637E-05142808   0.303E-02    0.222E-02
DAV:  29    -0.115789206894E+02   -0.69368E-05   -0.13780E-05152984   0.490E-02    0.224E-02
DAV:  30    -0.115789381050E+02   -0.17416E-04   -0.58433E-05162440   0.879E-02    0.211E-02
DAV:  31    -0.115789909658E+02   -0.52861E-04   -0.86354E-04166312   0.302E-01    0.301E-02
DAV:  32    -0.115790020704E+02   -0.11105E-04   -0.83954E-05123280   0.110E-01    0.240E-02
DAV:  33    -0.115790342957E+02   -0.32225E-04   -0.57219E-05148128   0.909E-02    0.232E-02
DAV:  34    -0.115791276044E+02   -0.93309E-04   -0.48907E-04167424   0.234E-01    0.298E-02
DAV:  35    -0.115791942376E+02   -0.66633E-04   -0.10595E-04153320   0.789E-02    0.301E-02
DAV:  36    -0.115792096475E+02   -0.15410E-04   -0.90751E-06102576   0.237E-02    0.307E-02
DAV:  37    -0.115791529404E+02    0.56707E-04   -0.61820E-05172448   0.845E-02    0.279E-02
DAV:  38    -0.115788297232E+02    0.32322E-03   -0.19293E-03172656   0.468E-01    0.392E-02
DAV:  39    -0.115785997825E+02    0.22994E-03   -0.47390E-03161672   0.682E-01    0.651E-02
DAV:  40    -0.115789308172E+02   -0.33103E-03   -0.70362E-04141176   0.324E-01    0.325E-02
DAV:  41    -0.115789273947E+02    0.34225E-05   -0.10841E-04154464   0.957E-02    0.281E-02
DAV:  42    -0.115788862755E+02    0.41119E-04   -0.50444E-04173800   0.227E-01    0.229E-02
DAV:  43    -0.115789565308E+02   -0.70255E-04   -0.95612E-04162680   0.287E-01    0.279E-02
DAV:  44    -0.115790293149E+02   -0.72784E-04   -0.15896E-04157256   0.107E-01    0.215E-02
DAV:  45    -0.115790665735E+02   -0.37259E-04   -0.54827E-05149640   0.675E-02    0.209E-02
DAV:  46    -0.115790812104E+02   -0.14637E-04   -0.14536E-05128880   0.290E-02    0.210E-02
DAV:  47    -0.115790983294E+02   -0.17119E-04   -0.10246E-05178792   0.302E-02    0.215E-02
DAV:  48    -0.115791009359E+02   -0.26066E-05   -0.14953E-06101632   0.973E-03    0.217E-02
DAV:  49    -0.115791151225E+02   -0.14187E-04   -0.55928E-06135616   0.251E-02    0.222E-02
DAV:  50    -0.115791350622E+02   -0.19940E-04   -0.11374E-05161472   0.343E-02    0.233E-02
DAV:  51    -0.115791236399E+02    0.11422E-04   -0.40173E-06139760   0.245E-02    0.229E-02
DAV:  52    -0.115791250421E+02   -0.14021E-05   -0.16212E-07 68088   0.447E-03    0.229E-02
DAV:  53    -0.115791237549E+02    0.12872E-05   -0.52943E-08 56216   0.301E-03    0.229E-02
DAV:  54    -0.115791150602E+02    0.86946E-05   -0.17807E-06 81440   0.142E-02    0.225E-02
DAV:  55    -0.115791039148E+02    0.11145E-04   -0.48411E-06145536   0.224E-02    0.221E-02
DAV:  56    -0.115790691820E+02    0.34733E-04   -0.43113E-05166960   0.716E-02    0.224E-02
DAV:  57    -0.115790087882E+02    0.60394E-04   -0.17470E-04165400   0.141E-01    0.244E-02
DAV:  58    -0.115789942002E+02    0.14588E-04   -0.53923E-05162104   0.628E-02    0.216E-02
DAV:  59    -0.115789944859E+02   -0.28571E-06   -0.47193E-06101952   0.183E-02    0.195E-02
DAV:  60    -0.115789664076E+02    0.28078E-04   -0.45284E-05175408   0.736E-02    0.202E-02
DAV:  61    -0.115789087633E+02    0.57644E-04   -0.23973E-04164200   0.152E-01    0.199E-02
DAV:  62    -0.115789293934E+02   -0.20630E-04   -0.24196E-05120168   0.569E-02    0.153E-02
DAV:  63    -0.115789300585E+02   -0.66512E-06   -0.99649E-07109256   0.871E-03    0.153E-02
DAV:  64    -0.115789324819E+02   -0.24234E-05   -0.65729E-07 64984   0.862E-03    0.148E-02
DAV:  65    -0.115789320124E+02    0.46951E-06   -0.13367E-07 57832   0.484E-03    0.149E-02
DAV:  66    -0.115789355033E+02   -0.34909E-05   -0.73918E-06137968   0.241E-02    0.192E-02
DAV:  67    -0.115789314708E+02    0.40325E-05   -0.97787E-06102360   0.183E-02    0.150E-02
DAV:  68    -0.115789406008E+02   -0.91300E-05   -0.29240E-05163040   0.394E-02    0.191E-02
DAV:  69    -0.115789414132E+02   -0.81238E-06   -0.10669E-06100848   0.800E-03    0.192E-02
DAV:  70    -0.115789406706E+02    0.74256E-06   -0.77833E-08 56232   0.418E-03    0.192E-02
DAV:  71    -0.115789431236E+02   -0.24529E-05   -0.47270E-07 74344   0.855E-03    0.198E-02
DAV:  72    -0.115789718210E+02   -0.28697E-04   -0.87541E-05173704   0.108E-01    0.201E-02
DAV:  73    -0.115789938512E+02   -0.22030E-04   -0.63412E-05167552   0.828E-02    0.213E-02
DAV:  74    -0.115789875819E+02    0.62693E-05   -0.15333E-05143784   0.513E-02    0.207E-02
DAV:  75    -0.115789737511E+02    0.13831E-04   -0.13809E-05165240   0.378E-02    0.208E-02
DAV:  76    -0.115790046151E+02   -0.30864E-04   -0.88462E-05175160   0.110E-01    0.208E-02
DAV:  77    -0.115790292164E+02   -0.24601E-04   -0.41621E-05159872   0.622E-02    0.218E-02
DAV:  78    -0.115790260137E+02    0.32027E-05   -0.66201E-06127864   0.334E-02    0.215E-02
DAV:  79    -0.115789900728E+02    0.35941E-04   -0.73316E-05173360   0.970E-02    0.215E-02
DAV:  80    -0.115789515778E+02    0.38495E-04   -0.10164E-04166624   0.107E-01    0.224E-02
DAV:  81    -0.115789036293E+02    0.47948E-04   -0.25142E-04177168   0.151E-01    0.225E-02
DAV:  82    -0.115789014683E+02    0.21610E-05   -0.28928E-04174112   0.178E-01    0.280E-02
DAV:  83    -0.115789221307E+02   -0.20662E-04   -0.40495E-05119408   0.518E-02    0.258E-02
DAV:  84    -0.115789222481E+02   -0.11732E-06   -0.27770E-05148576   0.681E-02    0.234E-02
DAV:  85    -0.115789192847E+02    0.29634E-05   -0.72286E-06152400   0.232E-02    0.228E-02
DAV:  86    -0.115789205710E+02   -0.12863E-05   -0.54156E-06155680   0.317E-02    0.255E-02
DAV:  87    -0.115789196516E+02    0.91935E-06   -0.10076E-06128360   0.999E-03    0.270E-02
DAV:  88    -0.115789085301E+02    0.11121E-04   -0.24539E-05173592   0.538E-02    0.259E-02
DAV:  89    -0.115789095191E+02   -0.98891E-06   -0.43399E-05160128   0.712E-02    0.217E-02
DAV:  90    -0.115789206167E+02   -0.11098E-04   -0.24164E-05163616   0.456E-02    0.208E-02
DAV:  91    -0.115788847292E+02    0.35888E-04   -0.55710E-04170352   0.281E-01    0.367E-02
DAV:  92    -0.115789185062E+02   -0.33777E-04   -0.79890E-05150912   0.112E-01    0.293E-02
DAV:  93    -0.115789046297E+02    0.13876E-04   -0.14714E-04178480   0.132E-01    0.270E-02
DAV:  94    -0.115789091160E+02   -0.44862E-05   -0.12636E-05111160   0.270E-02    0.266E-02
DAV:  95    -0.115789108406E+02   -0.17246E-05   -0.56587E-07107760   0.942E-03    0.250E-02
DAV:  96    -0.115789188319E+02   -0.79913E-05   -0.14842E-05172824   0.397E-02    0.248E-02
DAV:  97    -0.115789047561E+02    0.14076E-04   -0.27817E-05174256   0.600E-02    0.245E-02
DAV:  98    -0.115789190026E+02   -0.14246E-04   -0.17202E-05173712   0.503E-02    0.222E-02
DAV:  99    -0.115789281969E+02   -0.91943E-05   -0.10712E-05160944   0.359E-02    0.207E-02
DAV: 100    -0.115789327558E+02   -0.45589E-05   -0.38116E-06143176   0.172E-02    0.201E-02
DAV: 101    -0.115789846035E+02   -0.51848E-04   -0.49730E-04174592   0.219E-01    0.287E-02
DAV: 102    -0.115790074618E+02   -0.22858E-04   -0.45872E-05114368   0.511E-02    0.272E-02
DAV: 103    -0.115790137079E+02   -0.62460E-05   -0.40011E-06120224   0.159E-02    0.271E-02
DAV: 104    -0.115790097244E+02    0.39835E-05   -0.15357E-06106936   0.172E-02    0.264E-02
DAV: 105    -0.115790099832E+02   -0.25885E-06   -0.81750E-08 57888   0.324E-03    0.264E-02
DAV: 106    -0.115790327376E+02   -0.22754E-04   -0.33143E-05173840   0.639E-02    0.278E-02
DAV: 107    -0.115790258599E+02    0.68777E-05   -0.41483E-06135928   0.248E-02    0.277E-02
DAV: 108    -0.115789790238E+02    0.46836E-04   -0.99428E-05174944   0.110E-01    0.282E-02
DAV: 109    -0.115789209787E+02    0.58045E-04   -0.20897E-04159920   0.152E-01    0.289E-02
DAV: 110    -0.115789312123E+02   -0.10234E-04   -0.32626E-05111824   0.397E-02    0.215E-02
DAV: 111    -0.115790226014E+02   -0.91389E-04   -0.14517E-03172088   0.399E-01    0.327E-02
DAV: 112    -0.115791077198E+02   -0.85118E-04   -0.16848E-04141808   0.993E-02    0.269E-02
DAV: 113    -0.115791758240E+02   -0.68104E-04   -0.10489E-04182808   0.988E-02    0.311E-02
DAV: 114    -0.115791807825E+02   -0.49585E-05   -0.14698E-05111424   0.356E-02    0.303E-02
DAV: 115    -0.115791805711E+02    0.21144E-06   -0.12504E-07 74112   0.473E-03    0.300E-02
DAV: 116    -0.115791728934E+02    0.76777E-05   -0.11382E-06 75328   0.117E-02    0.294E-02
DAV: 117    -0.115791480476E+02    0.24846E-04   -0.11236E-05164064   0.370E-02    0.285E-02
DAV: 118    -0.115791950691E+02   -0.47022E-04   -0.35214E-05175072   0.689E-02    0.309E-02
DAV: 119    -0.115791949137E+02    0.15544E-06   -0.13183E-06100992   0.907E-03    0.309E-02
DAV: 120    -0.115791716345E+02    0.23279E-04   -0.75511E-06143536   0.302E-02
   1 F= -.11579172E+02 E0= -.11579172E+02  d E =0.000000E+00  mag=    -0.0000
