       N       E                     dE             d eps       ncg     rms          rms(c)
DAV:   1     0.895094872959E+02    0.89509E+02   -0.90779E+03  5400   0.188E+03
DAV:   2    -0.138437777613E+02   -0.10335E+03   -0.96581E+02  5382   0.286E+02
DAV:   3    -0.161958810408E+02   -0.23521E+01   -0.22668E+01  6048   0.630E+01
DAV:   4    -0.162279114742E+02   -0.32030E-01   -0.32002E-01  7598   0.574E+00
DAV:   5    -0.162283291056E+02   -0.41763E-03   -0.41717E-03  6442   0.585E-01    0.145E+01
DAV:   6    -0.142617333649E+02    0.19666E+01   -0.16546E+01  5616   0.841E+01    0.785E+00
DAV:   7    -0.139246694625E+02    0.33706E+00   -0.22766E+00  5844   0.299E+01    0.484E+00
DAV:   8    -0.140773228988E+02   -0.15265E+00   -0.14365E-01  7236   0.631E+00    0.217E+00
DAV:   9    -0.140339037907E+02    0.43419E-01   -0.39883E-02  7676   0.305E+00    0.241E+00
DAV:  10    -0.140250295347E+02    0.88743E-02   -0.89307E-04  7526   0.414E-01    0.266E+00
DAV:  11    -0.140695029785E+02   -0.44473E-01   -0.33719E-02  6630   0.304E+00    0.435E-01
DAV:  12    -0.140699969782E+02   -0.49400E-03   -0.86028E-04  7296   0.345E-01    0.205E-01
DAV:  13    -0.140697247138E+02    0.27226E-03   -0.23866E-04  7052   0.255E-01    0.169E-02
DAV:  14    -0.140696941445E+02    0.30569E-04   -0.83698E-06  6044   0.321E-02    0.650E-03
DAV:  15    -0.140696931765E+02    0.96804E-06   -0.42550E-07  6504   0.740E-03    0.164E-03
DAV:  16    -0.140696902551E+02    0.29213E-05   -0.92060E-08  3252   0.486E-03    0.452E-04
DAV:  17    -0.140696875757E+02    0.26795E-05   -0.15834E-08  2826   0.176E-03    0.741E-04
DAV:  18    -0.140696893029E+02   -0.17273E-05   -0.46065E-09  2796   0.121E-03    0.149E-04
DAV:  19    -0.140696895920E+02   -0.28913E-06   -0.15329E-09  2772   0.380E-04    0.577E-05
DAV:  20    -0.140696897137E+02   -0.12166E-06   -0.56809E-10  2778   0.275E-04    0.165E-05
DAV:  21    -0.140696896946E+02    0.19113E-07   -0.23882E-10  2772   0.139E-04
   1 F= -.14069690E+02 E0= -.14069690E+02  d E =0.000000E+00  mag=     3.1577
