=========================================
SLURM_JOB_ID = 63455636
SLURM_JOB_NODELIST = lnode52
SLURM_GPUS = 
SLURM_CPUS_ON_NODE = 16
SLURM_JOB_PARTITION = lenovo
SLURM_TASK_PID = 2656373
CUDA_VISIBLE_DEVICES = 
==========================================
 running on   16 total cores
 distrk:  each k-point on   16 cores,    1 groups
 distr:  one band on    4 cores,    4 groups
 using from now: INCAR     
 vasp.5.4.4.18Apr17-6-g9f103f2a35 (build Apr 28 2018 00:24:27) complex          
  
 POSCAR found type information on POSCAR  Co
 POSCAR found :  1 types and       4 ions
 scaLAPACK will be used

 ----------------------------------------------------------------------------- 
|                                                                             |
|  ADVICE TO THIS USER RUNNING 'VASP/VAMP'   (HEAR YOUR MASTER'S VOICE ...):  |
|                                                                             |
|      You have a (more or less) 'small supercell' and for smaller cells      |
|      it is recommended  to use the reciprocal-space projection scheme!      |
|      The real space optimization is not  efficient for small cells and it   |
|      is also less accurate ...                                              |
|      Therefore set LREAL=.FALSE. in the  INCAR file                         |
|                                                                             |
 ----------------------------------------------------------------------------- 

 LDA part: xc-table for Pade appr. of Perdew
 POSCAR, INCAR and KPOINTS ok, starting setup
 FFT: planning ...
 WAVECAR not read
 entering main loop
       N       E                     dE             d eps       ncg     rms          rms(c)
DAV:   1     0.257892673150E+03    0.25789E+03   -0.17246E+04 25936   0.215E+03
DAV:   2     0.242941968623E+01   -0.25546E+03   -0.24821E+03 26200   0.387E+02
DAV:   3    -0.147314226860E+02   -0.17161E+02   -0.16828E+02 29176   0.139E+02
DAV:   4    -0.150089952209E+02   -0.27757E+00   -0.27601E+00 26832   0.173E+01
DAV:   5    -0.150203571366E+02   -0.11362E-01   -0.11357E-01 38408   0.293E+00    0.326E+01
DAV:   6    -0.165363848840E+02   -0.15160E+01   -0.58578E+01 29776   0.101E+02    0.102E+01
DAV:   7    -0.160571595714E+02    0.47923E+00   -0.79035E+00 28080   0.434E+01    0.380E+00
DAV:   8    -0.161642695313E+02   -0.10711E+00   -0.53792E-01 27760   0.800E+00    0.244E+00
DAV:   9    -0.162327286218E+02   -0.68459E-01   -0.12568E-01 39912   0.314E+00    0.158E+00
DAV:  10    -0.162693587696E+02   -0.36630E-01   -0.29042E-02 35672   0.158E+00    0.157E+00
DAV:  11    -0.162824974636E+02   -0.13139E-01   -0.46372E-03 31416   0.623E-01    0.160E+00
DAV:  12    -0.161681966539E+02    0.11430E+00   -0.25467E-01 45368   0.700E+00    0.110E+00
DAV:  13    -0.160939384700E+02    0.74258E-01   -0.29967E-01 47112   0.649E+00    0.103E+00
DAV:  14    -0.160551588876E+02    0.38780E-01   -0.12089E-01 47536   0.348E+00    0.101E+00
DAV:  15    -0.160416325176E+02    0.13526E-01   -0.32652E-02 44128   0.167E+00    0.951E-01
DAV:  16    -0.160442948880E+02   -0.26624E-02   -0.16456E-02 43488   0.235E+00    0.744E-01
DAV:  17    -0.160427895242E+02    0.15054E-02   -0.37619E-02 47408   0.245E+00    0.556E-01
DAV:  18    -0.160447194927E+02   -0.19300E-02   -0.64735E-03 38880   0.807E-01    0.523E-01
DAV:  19    -0.160309403620E+02    0.13779E-01   -0.26208E-02 45816   0.150E+00    0.516E-01
DAV:  20    -0.159958924074E+02    0.35048E-01   -0.23182E-01 46784   0.422E+00    0.443E-01
DAV:  21    -0.159753806254E+02    0.20512E-01   -0.15108E-01 45544   0.306E+00    0.479E-01
DAV:  22    -0.159724339617E+02    0.29467E-02   -0.51908E-02 46224   0.193E+00    0.429E-01
DAV:  23    -0.159876763375E+02   -0.15242E-01   -0.92458E-02 41456   0.353E+00    0.355E-01
DAV:  24    -0.159891067312E+02   -0.14304E-02   -0.88061E-03 34200   0.101E+00    0.331E-01
DAV:  25    -0.159874117001E+02    0.16950E-02   -0.81754E-03 42656   0.669E-01    0.317E-01
DAV:  26    -0.159900132180E+02   -0.26015E-02   -0.22787E-03 45560   0.570E-01    0.304E-01
DAV:  27    -0.159989753396E+02   -0.89621E-02   -0.30061E-02 45840   0.184E+00    0.280E-01
DAV:  28    -0.160096295756E+02   -0.10654E-01   -0.54482E-02 47320   0.237E+00    0.270E-01
DAV:  29    -0.160001758955E+02    0.94537E-02   -0.37129E-02 42888   0.221E+00    0.230E-01
DAV:  30    -0.159846698645E+02    0.15506E-01   -0.11738E-01 45416   0.332E+00    0.209E-01
DAV:  31    -0.159662252335E+02    0.18445E-01   -0.13183E-01 47008   0.364E+00    0.235E-01
DAV:  32    -0.159677589232E+02   -0.15337E-02   -0.46216E-03 25920   0.794E-01    0.228E-01
DAV:  33    -0.159680417320E+02   -0.28281E-03   -0.11757E-04 39632   0.132E-01    0.228E-01
DAV:  34    -0.159678511804E+02    0.19055E-03   -0.10574E-04 41752   0.973E-02    0.231E-01
DAV:  35    -0.159759636120E+02   -0.81124E-02   -0.39920E-02 45088   0.186E+00    0.216E-01
DAV:  36    -0.159831399536E+02   -0.71763E-02   -0.23324E-02 44280   0.145E+00    0.290E-01
DAV:  37    -0.159857411134E+02   -0.26012E-02   -0.32727E-03 38792   0.560E-01    0.333E-01
DAV:  38    -0.159936008587E+02   -0.78597E-02   -0.24037E-02 48112   0.173E+00    0.324E-01
DAV:  39    -0.160052071663E+02   -0.11606E-01   -0.66882E-02 46576   0.257E+00    0.420E-01
DAV:  40    -0.159881528592E+02    0.17054E-01   -0.14729E-01 44736   0.397E+00    0.308E-01
DAV:  41    -0.159723749757E+02    0.15778E-01   -0.95347E-02 44832   0.324E+00    0.307E-01
DAV:  42    -0.159531145547E+02    0.19260E-01   -0.17572E-01 47320   0.412E+00    0.458E-01
DAV:  43    -0.159401546759E+02    0.12960E-01   -0.67367E-02 45448   0.247E+00    0.527E-01
DAV:  44    -0.159516899445E+02   -0.11535E-01   -0.50456E-02 42544   0.253E+00    0.431E-01
DAV:  45    -0.159458086181E+02    0.58813E-02   -0.47718E-02 46320   0.205E+00    0.561E-01
DAV:  46    -0.159458617771E+02   -0.53159E-04   -0.69464E-04 25936   0.262E-01    0.559E-01
DAV:  47    -0.159471394098E+02   -0.12776E-02   -0.82892E-04 45760   0.315E-01    0.540E-01
DAV:  48    -0.159485820336E+02   -0.14426E-02   -0.33439E-03 46368   0.527E-01    0.495E-01
DAV:  49    -0.159497291224E+02   -0.11471E-02   -0.77128E-04 43952   0.264E-01    0.482E-01
DAV:  50    -0.159490512064E+02    0.67792E-03   -0.30633E-04 39104   0.184E-01    0.489E-01
DAV:  51    -0.159506423356E+02   -0.15911E-02   -0.40997E-03 46496   0.651E-01    0.434E-01
DAV:  52    -0.159502326982E+02    0.40964E-03   -0.13802E-04 30176   0.132E-01    0.434E-01
DAV:  53    -0.159496950370E+02    0.53766E-03   -0.27470E-03 46744   0.432E-01    0.395E-01
DAV:  54    -0.159505784120E+02   -0.88338E-03   -0.76801E-04 42216   0.217E-01    0.415E-01
DAV:  55    -0.159509918386E+02   -0.41343E-03   -0.19616E-03 46480   0.350E-01    0.445E-01
DAV:  56    -0.159635909326E+02   -0.12599E-01   -0.76490E-02 46720   0.289E+00    0.343E-01
DAV:  57    -0.159639313677E+02   -0.34044E-03   -0.33424E-03 26000   0.572E-01    0.369E-01
DAV:  58    -0.159644385677E+02   -0.50720E-03   -0.13108E-04 36352   0.131E-01    0.371E-01
DAV:  59    -0.159611740789E+02    0.32645E-02   -0.15887E-02 45440   0.121E+00    0.435E-01
DAV:  60    -0.159576080658E+02    0.35660E-02   -0.36990E-03 40560   0.643E-01    0.429E-01
DAV:  61    -0.159805822376E+02   -0.22974E-01   -0.19087E-01 46112   0.461E+00    0.357E-01
DAV:  62    -0.159812375705E+02   -0.65533E-03   -0.59156E-03 25920   0.749E-01    0.356E-01
DAV:  63    -0.159819502438E+02   -0.71267E-03   -0.24108E-04 45424   0.126E-01    0.363E-01
DAV:  64    -0.159763877918E+02    0.55625E-02   -0.87805E-03 46816   0.921E-01    0.349E-01
DAV:  65    -0.159810277383E+02   -0.46399E-02   -0.10792E-02 46432   0.110E+00    0.300E-01
DAV:  66    -0.159831840982E+02   -0.21564E-02   -0.21523E-03 40448   0.473E-01    0.281E-01
DAV:  67    -0.159826856243E+02    0.49847E-03   -0.52633E-03 45088   0.645E-01    0.315E-01
DAV:  68    -0.159716906730E+02    0.10995E-01   -0.38225E-02 46880   0.192E+00    0.298E-01
DAV:  69    -0.159753279160E+02   -0.36372E-02   -0.63474E-03 40952   0.892E-01    0.265E-01
DAV:  70    -0.159728070644E+02    0.25209E-02   -0.20815E-03 43864   0.465E-01    0.265E-01
DAV:  71    -0.159712281713E+02    0.15789E-02   -0.28605E-03 45264   0.494E-01    0.286E-01
DAV:  72    -0.159616288667E+02    0.95993E-02   -0.30662E-02 47080   0.180E+00    0.287E-01
DAV:  73    -0.159564736257E+02    0.51552E-02   -0.95800E-03 41328   0.888E-01    0.271E-01
DAV:  74    -0.159532505601E+02    0.32231E-02   -0.31344E-03 43872   0.533E-01    0.267E-01
DAV:  75    -0.159489289741E+02    0.43216E-02   -0.50760E-03 47520   0.740E-01    0.288E-01
DAV:  76    -0.159449660291E+02    0.39629E-02   -0.44806E-03 45336   0.605E-01    0.293E-01
DAV:  77    -0.159516264736E+02   -0.66604E-02   -0.10424E-02 46064   0.116E+00    0.272E-01
DAV:  78    -0.159566314872E+02   -0.50050E-02   -0.68537E-03 45312   0.857E-01    0.265E-01
DAV:  79    -0.159564389380E+02    0.19255E-03   -0.24671E-04 26016   0.176E-01    0.265E-01
DAV:  80    -0.159567198478E+02   -0.28091E-03   -0.22606E-05 46664   0.604E-02    0.265E-01
DAV:  81    -0.159723807443E+02   -0.15661E-01   -0.88768E-02 45856   0.317E+00    0.228E-01
DAV:  82    -0.159693856302E+02    0.29951E-02   -0.50670E-03 36912   0.837E-01    0.228E-01
DAV:  83    -0.159692098867E+02    0.17574E-03   -0.15206E-04 26464   0.132E-01    0.227E-01
DAV:  84    -0.159689543492E+02    0.25554E-03   -0.40346E-05 46840   0.577E-02    0.228E-01
DAV:  85    -0.159693114983E+02   -0.35715E-03   -0.40621E-04 46208   0.194E-01    0.238E-01
DAV:  86    -0.159508461954E+02    0.18465E-01   -0.10541E-01 46848   0.338E+00    0.290E-01
DAV:  87    -0.159485028056E+02    0.23434E-02   -0.61973E-03 34576   0.707E-01    0.290E-01
DAV:  88    -0.159467865641E+02    0.17162E-02   -0.12509E-03 39280   0.286E-01    0.292E-01
DAV:  89    -0.159492335355E+02   -0.24470E-02   -0.16818E-03 42408   0.468E-01    0.281E-01
DAV:  90    -0.159494149530E+02   -0.18142E-03   -0.61661E-05 28464   0.718E-02    0.281E-01
DAV:  91    -0.159235878486E+02    0.25827E-01   -0.12970E-01 46256   0.386E+00    0.360E-01
DAV:  92    -0.159280397144E+02   -0.44519E-02   -0.55037E-03 35648   0.896E-01    0.328E-01
DAV:  93    -0.159345774791E+02   -0.65378E-02   -0.94232E-03 47056   0.104E+00    0.293E-01
DAV:  94    -0.159315611689E+02    0.30163E-02   -0.19682E-03 41760   0.540E-01    0.307E-01
DAV:  95    -0.159343139797E+02   -0.27528E-02   -0.15319E-03 44392   0.473E-01    0.305E-01
DAV:  96    -0.159290410109E+02    0.52730E-02   -0.43426E-03 45664   0.805E-01    0.349E-01
DAV:  97    -0.159500422752E+02   -0.21001E-01   -0.10233E-01 46608   0.345E+00    0.279E-01
DAV:  98    -0.159701975486E+02   -0.20155E-01   -0.12980E-01 46448   0.371E+00    0.269E-01
DAV:  99    -0.159782658267E+02   -0.80683E-02   -0.22005E-02 40040   0.138E+00    0.278E-01
DAV: 100    -0.159840281825E+02   -0.57624E-02   -0.10958E-02 43968   0.970E-01    0.285E-01
DAV: 101    -0.160004765599E+02   -0.16448E-01   -0.92986E-02 47632   0.310E+00    0.353E-01
DAV: 102    -0.160269281201E+02   -0.26452E-01   -0.11841E-01 46944   0.313E+00    0.649E-01
DAV: 103    -0.159949137809E+02    0.32014E-01   -0.22224E-01 46120   0.436E+00    0.303E-01
DAV: 104    -0.159844989889E+02    0.10415E-01   -0.50948E-02 43040   0.209E+00    0.236E-01
DAV: 105    -0.159894782329E+02   -0.49792E-02   -0.78516E-03 40480   0.108E+00    0.234E-01
DAV: 106    -0.160314294779E+02   -0.41951E-01   -0.34987E-01 46752   0.561E+00    0.643E-01
DAV: 107    -0.160097099561E+02    0.21720E-01   -0.66345E-02 42744   0.251E+00    0.408E-01
DAV: 108    -0.160083357326E+02    0.13742E-02   -0.16627E-03 31440   0.377E-01    0.380E-01
DAV: 109    -0.160095804789E+02   -0.12447E-02   -0.35268E-04 35656   0.253E-01    0.399E-01
DAV: 110    -0.160106075973E+02   -0.10271E-02   -0.24764E-04 45200   0.149E-01    0.415E-01
DAV: 111    -0.160375299226E+02   -0.26922E-01   -0.88529E-02 46320   0.267E+00    0.713E-01
DAV: 112    -0.160271544273E+02    0.10375E-01   -0.89044E-03 41072   0.110E+00    0.642E-01
DAV: 113    -0.160206238202E+02    0.65306E-02   -0.37984E-03 45696   0.584E-01    0.580E-01
DAV: 114    -0.160187899164E+02    0.18339E-02   -0.87005E-04 37944   0.229E-01    0.556E-01
DAV: 115    -0.160364224307E+02   -0.17633E-01   -0.26163E-02 46288   0.161E+00    0.689E-01
DAV: 116    -0.160202258525E+02    0.16197E-01   -0.20446E-02 46960   0.140E+00    0.553E-01
DAV: 117    -0.160300579998E+02   -0.98321E-02   -0.70708E-03 46064   0.925E-01    0.632E-01
DAV: 118    -0.160301075148E+02   -0.49515E-04   -0.33511E-04 29600   0.193E-01    0.638E-01
DAV: 119    -0.160262510993E+02    0.38564E-02   -0.14272E-03 45888   0.424E-01    0.610E-01
DAV: 120    -0.160364659965E+02   -0.10215E-01   -0.10613E-02 45312   0.836E-01
   1 F= -.16036466E+02 E0= -.16036466E+02  d E =0.000000E+00  mag=    -0.0000
