       N       E                     dE             d eps       ncg     rms          rms(c)
DAV:   1     0.194923197026E+03    0.19492E+03   -0.11907E+04  3784   0.135E+03
DAV:   2    -0.913011416691E+01   -0.20405E+03   -0.19337E+03  3416   0.351E+02
DAV:   3    -0.176711016866E+02   -0.85410E+01   -0.85110E+01  3640   0.802E+01
DAV:   4    -0.177362546984E+02   -0.65153E-01   -0.65151E-01  3648   0.673E+00
DAV:   5    -0.177372182551E+02   -0.96356E-03   -0.96355E-03  3704   0.757E-01
DAV:   6    -0.177372398519E+02   -0.21597E-04   -0.21597E-04  3656   0.104E-01
DAV:   7    -0.177372404310E+02   -0.57905E-06   -0.57879E-06  2968   0.164E-02
   1 F= -.17737240E+02 E0= -.17717217E+02  d E =-.400464E-01  mag=     4.4316
