=========================================
SLURM_JOB_ID = 63457034
SLURM_JOB_NODELIST = lnode53
SLURM_GPUS = 
SLURM_CPUS_ON_NODE = 8
SLURM_JOB_PARTITION = lenovo
SLURM_TASK_PID = 898278
CUDA_VISIBLE_DEVICES = 
==========================================
 running on    8 total cores
 distrk:  each k-point on    8 cores,    1 groups
 distr:  one band on    4 cores,    2 groups
 using from now: INCAR     
 vasp.5.4.4.18Apr17-6-g9f103f2a35 (build Apr 28 2018 00:24:27) complex          
  
 POSCAR found type information on POSCAR  Eu S 
 POSCAR found :  2 types and       2 ions
 scaLAPACK will be used

 ----------------------------------------------------------------------------- 
|                                                                             |
|  ADVICE TO THIS USER RUNNING 'VASP/VAMP'   (HEAR YOUR MASTER'S VOICE ...):  |
|                                                                             |
|      You have a (more or less) 'small supercell' and for smaller cells      |
|      it is recommended  to use the reciprocal-space projection scheme!      |
|      The real space optimization is not  efficient for small cells and it   |
|      is also less accurate ...                                              |
|      Therefore set LREAL=.FALSE. in the  INCAR file                         |
|                                                                             |
 ----------------------------------------------------------------------------- 

 LDA part: xc-table for Pade appr. of Perdew
 POSCAR, INCAR and KPOINTS ok, starting setup
 FFT: planning ...
 WAVECAR not read
 entering main loop
       N       E                     dE             d eps       ncg     rms          rms(c)
DAV:   1     0.175356489561E+03    0.17536E+03   -0.11189E+04  1792   0.273E+03
DAV:   2     0.683884292054E+01   -0.16852E+03   -0.14808E+03  1816   0.286E+02
DAV:   3    -0.147872984598E+02   -0.21626E+02   -0.20914E+02  1796   0.115E+02
DAV:   4    -0.159587638118E+02   -0.11715E+01   -0.11428E+01  2600   0.237E+01
DAV:   5    -0.160338596518E+02   -0.75096E-01   -0.74564E-01  2400   0.472E+00    0.132E+01
DAV:   6    -0.202068566552E+02   -0.41730E+01   -0.46510E+01  2332   0.681E+01    0.177E+01
DAV:   7    -0.190866094854E+02    0.11202E+01   -0.28768E+00  1936   0.389E+01    0.656E+00
DAV:   8    -0.187625775247E+02    0.32403E+00   -0.14321E+00  2736   0.143E+01    0.253E+00
DAV:   9    -0.188334668396E+02   -0.70889E-01   -0.13591E+00  2164   0.986E+00    0.332E+00
DAV:  10    -0.187503597298E+02    0.83107E-01   -0.81192E-01  2084   0.743E+00    0.105E+00
DAV:  11    -0.187624885361E+02   -0.12129E-01   -0.19250E-02  2552   0.978E-01    0.551E-01
DAV:  12    -0.187608846239E+02    0.16039E-02   -0.56180E-03  2496   0.710E-01    0.514E-01
DAV:  13    -0.187591601594E+02    0.17245E-02   -0.45724E-03  2396   0.567E-01    0.270E-01
DAV:  14    -0.187588923556E+02    0.26780E-03   -0.14408E-03  2692   0.311E-01    0.156E-01
DAV:  15    -0.187589641054E+02   -0.71750E-04   -0.20350E-03  2060   0.378E-01    0.113E-02
DAV:  16    -0.187589636457E+02    0.45967E-06   -0.91191E-05  2528   0.496E-02    0.988E-03
DAV:  17    -0.187589628604E+02    0.78531E-06   -0.34003E-06  2432   0.861E-03    0.846E-03
DAV:  18    -0.187589638535E+02   -0.99314E-06   -0.64022E-07  2196   0.596E-03    0.665E-03
DAV:  19    -0.187589553104E+02    0.85431E-05   -0.86743E-07  1828   0.817E-03    0.262E-03
DAV:  20    -0.187589515480E+02    0.37624E-05   -0.26685E-07  1472   0.438E-03    0.129E-03
DAV:  21    -0.187589511299E+02    0.41808E-06   -0.39466E-08   988   0.158E-03    0.108E-03
DAV:  22    -0.187589525857E+02   -0.14558E-05   -0.47188E-08   940   0.224E-03    0.429E-04
DAV:  23    -0.187589530634E+02   -0.47764E-06   -0.11003E-08   920   0.911E-04    0.181E-04
DAV:  24    -0.187589533293E+02   -0.26598E-06   -0.39240E-09   916   0.576E-04    0.733E-05
DAV:  25    -0.187589536366E+02   -0.30724E-06   -0.28086E-09   912   0.502E-04    0.124E-04
DAV:  26    -0.187589534379E+02    0.19866E-06   -0.16305E-09   900   0.469E-04    0.533E-05
DAV:  27    -0.187589533765E+02    0.61418E-07   -0.79162E-10   908   0.221E-04
   1 F= -.18758953E+02 E0= -.18758953E+02  d E =0.000000E+00  mag=     6.9956
