=========================================
SLURM_JOB_ID = 51752960
SLURM_JOB_NODELIST = lnode35
SLURM_GPUS = 
SLURM_CPUS_ON_NODE = 24
SLURM_JOB_PARTITION = lenovo
SLURM_TASK_PID = 4012390
CUDA_VISIBLE_DEVICES = 
==========================================
 running on   24 total cores
 distrk:  each k-point on   24 cores,    1 groups
 distr:  one band on    4 cores,    6 groups
 using from now: INCAR     
 vasp.5.4.4.18Apr17-6-g9f103f2a35 (build Apr 28 2018 00:24:27) complex          
  
 POSCAR found type information on POSCAR  Fe
 POSCAR found :  1 types and       2 ions
 scaLAPACK will be used

 ----------------------------------------------------------------------------- 
|                                                                             |
|  ADVICE TO THIS USER RUNNING 'VASP/VAMP'   (HEAR YOUR MASTER'S VOICE ...):  |
|                                                                             |
|      You have a (more or less) 'small supercell' and for smaller cells      |
|      it is recommended  to use the reciprocal-space projection scheme!      |
|      The real space optimization is not  efficient for small cells and it   |
|      is also less accurate ...                                              |
|      Therefore set LREAL=.FALSE. in the  INCAR file                         |
|                                                                             |
 ----------------------------------------------------------------------------- 

 LDA part: xc-table for Pade appr. of Perdew
 POSCAR, INCAR and KPOINTS ok, starting setup
 FFT: planning ...
 WAVECAR not read
 entering main loop
       N       E                     dE             d eps       ncg     rms          rms(c)
DAV:   1     0.217200796001E+03    0.21720E+03   -0.18880E+04  3480   0.200E+03
DAV:   2    -0.999272756242E+01   -0.22719E+03   -0.21823E+03  3468   0.406E+02
DAV:   3    -0.162235538168E+02   -0.62308E+01   -0.62216E+01  3684   0.753E+01
DAV:   4    -0.162744058438E+02   -0.50852E-01   -0.50856E-01  3900   0.640E+00
DAV:   5    -0.162753547879E+02   -0.94894E-03   -0.94896E-03  3708   0.817E-01    0.250E+01
DAV:   6    -0.164571428428E+02   -0.18179E+00   -0.74928E+00  3420   0.397E+01    0.691E+00
DAV:   7    -0.165136072316E+02   -0.56464E-01   -0.61481E-01  3408   0.972E+00    0.431E+00
DAV:   8    -0.165236552993E+02   -0.10048E-01   -0.15061E-02  3720   0.147E+00    0.137E+00
DAV:   9    -0.165154813238E+02    0.81740E-02   -0.51650E-03  3672   0.875E-01    0.337E-01
DAV:  10    -0.165153100503E+02    0.17127E-03   -0.22498E-03  3444   0.613E-01    0.442E-02
DAV:  11    -0.165153692604E+02   -0.59210E-04   -0.48585E-05  3600   0.651E-02    0.243E-02
DAV:  12    -0.165153774864E+02   -0.82260E-05   -0.49298E-06  3864   0.224E-02    0.958E-03
DAV:  13    -0.165153707031E+02    0.67832E-05   -0.13430E-06  3444   0.115E-02    0.250E-03
DAV:  14    -0.165153691133E+02    0.15898E-05   -0.15723E-07  2772   0.333E-03    0.620E-04
DAV:  15    -0.165153691043E+02    0.89858E-08   -0.11622E-08  1680   0.112E-03
   1 F= -.16515369E+02 E0= -.16515369E+02  d E =0.000000E+00  mag=     4.4053
