 vasp.5.4.4.18Apr17-6-g9f103f2a35 (build Apr 28 2018 00:24:27) complex          
  
 executed on             LinuxIFC date 2021.09.07  01:10:15
 running on   24 total cores
 distrk:  each k-point on   24 cores,    1 groups
 distr:  one band on NCORES_PER_BAND=   4 cores,    6 groups


--------------------------------------------------------------------------------------------------------


 INCAR:
 POTCAR:    PAW_PBE Fe_pv 02Aug2007               
 POTCAR:    PAW_PBE Fe_pv 02Aug2007               
   VRHFIN =Fe:  3pd7s1                                                          
   LEXCH  = PE                                                                  
   EATOM  =  2457.4239 eV,  180.6156 Ry                                         
                                                                                
   TITEL  = PAW_PBE Fe_pv 02Aug2007                                             
   LULTRA =        F    use ultrasoft PP ?                                      
   IUNSCR =        1    unscreen: 0-lin 1-nonlin 2-no                           
   RPACOR =    1.750    partial core radius                                     
   POMASS =   55.847; ZVAL   =   14.000    mass and valenz                      
   RCORE  =    2.200    outmost cutoff radius                                   
   RWIGS  =    2.200; RWIGS  =    1.164    wigner-seitz radius (au A)           
   ENMAX  =  293.238; ENMIN  =  219.928 eV                                      
   ICORE  =        3    local potential                                         
   LCOR   =        T    correct aug charges                                     
   LPAW   =        T    paw PP                                                  
   EAUG   =  578.342                                                            
   DEXC   =    0.000                                                            
   RMAX   =    2.249    core radius for proj-oper                               
   RAUG   =    1.300    factor for augmentation sphere                          
   RDEP   =    2.296    radius for radial grids                                 
   RDEPT  =    1.766    core radius for aug-charge                              
                                                                                
   Atomic configuration                                                         
    8 entries                                                                   
     n  l   j            E        occ.                                          
     1  0  0.50     -6993.8440   2.0000                                         
     2  0  0.50      -814.6047   2.0000                                         
     2  1  1.50      -693.3689   6.0000                                         
     3  0  0.50       -89.4732   2.0000                                         
     3  1  1.50       -55.6373   6.0000                                         
     3  2  2.50        -3.8151   7.0000                                         
     4  0  0.50        -4.2551   1.0000                                         
     4  3  2.50        -1.3606   0.0000                                         
   Description                                                                  
     l       E           TYP  RCUT    TYP  RCUT                                 
     1    -55.6372668     23  2.000                                             
     1     -5.4423304     23  2.000                                             
     2     -3.8151096     23  2.200                                             
     2     -5.1756922     23  2.200                                             
     0     -4.2550951     23  2.200                                             
     0     27.2116520     23  2.200                                             
     3     -1.3605826     23  2.200                                             
  local pseudopotential read in
  partial core-charges read in
  partial kinetic energy density read in
  atomic valenz-charges read in
  non local Contribution for L=           1  read in
    real space projection operators read in
  non local Contribution for L=           1  read in
    real space projection operators read in
  non local Contribution for L=           2  read in
    real space projection operators read in
  non local Contribution for L=           2  read in
    real space projection operators read in
  non local Contribution for L=           0  read in
    real space projection operators read in
  non local Contribution for L=           0  read in
    real space projection operators read in
    PAW grid and wavefunctions read in
 
   number of l-projection  operators is LMAX  =           6
   number of lm-projection operators is LMMAX =          18
 

 ----------------------------------------------------------------------------- 
|                                                                             |
|  ADVICE TO THIS USER RUNNING 'VASP/VAMP'   (HEAR YOUR MASTER'S VOICE ...):  |
|                                                                             |
|      You have a (more or less) 'small supercell' and for smaller cells      |
|      it is recommended  to use the reciprocal-space projection scheme!      |
|      The real space optimization is not  efficient for small cells and it   |
|      is also less accurate ...                                              |
|      Therefore set LREAL=.FALSE. in the  INCAR file                         |
|                                                                             |
 ----------------------------------------------------------------------------- 

 Optimization of the real space projectors (new method)

 maximal supplied QI-value         = 17.01
 optimisation between [QCUT,QGAM] = [ 12.25, 24.66] = [ 41.99,170.30] Ry 
 Optimized for a Real-space Cutoff    1.29 Angstroem

   l    n(q)    QCUT    max X(q) W(low)/X(q) W(high)/X(q)  e(spline) 
   1      9    12.245     4.267    0.57E-04    0.27E-03    0.24E-06
   1      9    12.245     5.750    0.98E-04    0.42E-03    0.38E-06
   2      9    12.245    53.656    0.12E-03    0.28E-03    0.25E-06
   2      9    12.245    49.521    0.12E-03    0.29E-03    0.26E-06
   0     10    12.245    31.246    0.34E-04    0.11E-03    0.12E-06
   0     10    12.245    12.201    0.27E-04    0.87E-04    0.10E-06
  PAW_PBE Fe_pv 02Aug2007               :
 energy of atom  1       EATOM=-2457.4239
 kinetic energy error for atom=    0.0058 (will be added to EATOM!!)
 
 
 POSCAR: Fe2                                     
  positions in direct lattice
  No initial velocities read in
 exchange correlation table for  LEXCH =        8
   RHO(1)=    0.500       N(1)  =     2000
   RHO(2)=  100.500       N(2)  =     4000
 


--------------------------------------------------------------------------------------------------------


 ion  position               nearest neighbor table
   1  0.000  0.000  0.000-   2 2.46   2 2.46   2 2.46   2 2.46   2 2.46   2 2.46   2 2.46   2 2.46

   2  0.500  0.500  0.500-   1 2.46   1 2.46   1 2.46   1 2.46   1 2.46   1 2.46   1 2.46   1 2.46

 
  LATTYP: Found a simple cubic cell.
 ALAT       =     2.8400520000
  
  Lattice vectors:
  
 A1 = (   2.8400520000,   0.0000000000,   0.0000000000)
 A2 = (   0.0000000000,   2.8400520000,   0.0000000000)
 A3 = (   0.0000000000,   0.0000000000,   2.8400520000)


Analysis of symmetry for initial positions (statically):
=====================================================================
 Subroutine PRICEL returns following result:
 
  LATTYP: Found a body centered cubic cell.
 ALAT       =     2.8400520000
  
  Lattice vectors:
  
 A1 = (   1.4200260000,   1.4200260000,   1.4200260000)
 A2 = (   1.4200260000,  -1.4200260000,  -1.4200260000)
 A3 = (  -1.4200260000,   1.4200260000,  -1.4200260000)
 
   2 primitive cells build up your supercell.
 

 Routine SETGRP: Setting up the symmetry group for a 
 simple cubic supercell.


 Subroutine GETGRP returns: Found 48 space group operations
 (whereof 48 operations were pure point group operations)
 out of a pool of 48 trial point group operations.


The static configuration has the point symmetry O_h .


Analysis of symmetry for dynamics (positions and initial velocities):
=====================================================================
 Subroutine PRICEL returns following result:
 
  LATTYP: Found a body centered cubic cell.
 ALAT       =     2.8400520000
  
  Lattice vectors:
  
 A1 = (   1.4200260000,   1.4200260000,   1.4200260000)
 A2 = (   1.4200260000,  -1.4200260000,  -1.4200260000)
 A3 = (  -1.4200260000,   1.4200260000,  -1.4200260000)
 
   2 primitive cells build up your supercell.
 

 Routine SETGRP: Setting up the symmetry group for a 
 simple cubic supercell.


 Subroutine GETGRP returns: Found 48 space group operations
 (whereof 48 operations were pure point group operations)
 out of a pool of 48 trial point group operations.


The dynamic configuration has the point symmetry O_h .


Analysis of structural, dynamic, and magnetic symmetry:
=====================================================================
 Subroutine PRICEL returns following result:
 
  LATTYP: Found a body centered cubic cell.
 ALAT       =     2.8400520000
  
  Lattice vectors:
  
 A1 = (   1.4200260000,   1.4200260000,   1.4200260000)
 A2 = (   1.4200260000,  -1.4200260000,  -1.4200260000)
 A3 = (  -1.4200260000,   1.4200260000,  -1.4200260000)
 
   2 primitive cells build up your supercell.
 

 Routine SETGRP: Setting up the symmetry group for a 
 simple cubic supercell.


 Subroutine GETGRP returns: Found 48 space group operations
 (whereof 48 operations were pure point group operations)
 out of a pool of 48 trial point group operations.


The magnetic configuration has the point symmetry O_h .


 Subroutine INISYM returns: Found 48 space group operations
 (whereof 48 operations are pure point group operations),
 and found     2 'primitive' translations

 
 
 KPOINTS: pymatgen with grid density = 2166 / numb

Automatic generation of k-mesh.
Space group operators:
 irot       det(A)        alpha          n_x          n_y          n_z        tau_x        tau_y        tau_z
    1     1.000000     0.000000     1.000000     0.000000     0.000000     0.000000     0.000000     0.000000
    2    -1.000000     0.000000     1.000000     0.000000     0.000000     0.000000     0.000000     0.000000
    3     1.000000   120.000000    -0.577350    -0.577350    -0.577350     0.000000     0.000000     0.000000
    4    -1.000000   120.000000    -0.577350    -0.577350    -0.577350     0.000000     0.000000     0.000000
    5     1.000000   120.000000     0.577350     0.577350     0.577350     0.000000     0.000000     0.000000
    6    -1.000000   120.000000     0.577350     0.577350     0.577350     0.000000     0.000000     0.000000
    7     1.000000    90.000000     0.000000     0.000000    -1.000000     0.000000     0.000000     0.000000
    8    -1.000000    90.000000     0.000000     0.000000    -1.000000     0.000000     0.000000     0.000000
    9     1.000000   180.000000     0.000000     0.707107     0.707107     0.000000     0.000000     0.000000
   10    -1.000000   180.000000     0.000000     0.707107     0.707107     0.000000     0.000000     0.000000
   11     1.000000    90.000000     0.000000     1.000000     0.000000     0.000000     0.000000     0.000000
   12    -1.000000    90.000000     0.000000     1.000000     0.000000     0.000000     0.000000     0.000000
   13     1.000000   180.000000     0.000000     0.000000     1.000000     0.000000     0.000000     0.000000
   14    -1.000000   180.000000     0.000000     0.000000     1.000000     0.000000     0.000000     0.000000
   15     1.000000   120.000000    -0.577350     0.577350     0.577350     0.000000     0.000000     0.000000
   16    -1.000000   120.000000    -0.577350     0.577350     0.577350     0.000000     0.000000     0.000000
   17     1.000000   120.000000    -0.577350     0.577350    -0.577350     0.000000     0.000000     0.000000
   18    -1.000000   120.000000    -0.577350     0.577350    -0.577350     0.000000     0.000000     0.000000
   19     1.000000    90.000000     0.000000     0.000000     1.000000     0.000000     0.000000     0.000000
   20    -1.000000    90.000000     0.000000     0.000000     1.000000     0.000000     0.000000     0.000000
   21     1.000000    90.000000    -1.000000     0.000000     0.000000     0.000000     0.000000     0.000000
   22    -1.000000    90.000000    -1.000000     0.000000     0.000000     0.000000     0.000000     0.000000
   23     1.000000   180.000000     0.707107     0.000000     0.707107     0.000000     0.000000     0.000000
   24    -1.000000   180.000000     0.707107     0.000000     0.707107     0.000000     0.000000     0.000000
   25     1.000000   120.000000     0.577350    -0.577350     0.577350     0.000000     0.000000     0.000000
   26    -1.000000   120.000000     0.577350    -0.577350     0.577350     0.000000     0.000000     0.000000
   27     1.000000   120.000000    -0.577350    -0.577350     0.577350     0.000000     0.000000     0.000000
   28    -1.000000   120.000000    -0.577350    -0.577350     0.577350     0.000000     0.000000     0.000000
   29     1.000000   180.000000     1.000000     0.000000     0.000000     0.000000     0.000000     0.000000
   30    -1.000000   180.000000     1.000000     0.000000     0.000000     0.000000     0.000000     0.000000
   31     1.000000    90.000000     0.000000    -1.000000     0.000000     0.000000     0.000000     0.000000
   32    -1.000000    90.000000     0.000000    -1.000000     0.000000     0.000000     0.000000     0.000000
   33     1.000000   180.000000     0.707107     0.707107     0.000000     0.000000     0.000000     0.000000
   34    -1.000000   180.000000     0.707107     0.707107     0.000000     0.000000     0.000000     0.000000
   35     1.000000    90.000000     1.000000     0.000000     0.000000     0.000000     0.000000     0.000000
   36    -1.000000    90.000000     1.000000     0.000000     0.000000     0.000000     0.000000     0.000000
   37     1.000000   120.000000     0.577350    -0.577350    -0.577350     0.000000     0.000000     0.000000
   38    -1.000000   120.000000     0.577350    -0.577350    -0.577350     0.000000     0.000000     0.000000
   39     1.000000   180.000000     0.000000     1.000000     0.000000     0.000000     0.000000     0.000000
   40    -1.000000   180.000000     0.000000     1.000000     0.000000     0.000000     0.000000     0.000000
   41     1.000000   120.000000     0.577350     0.577350    -0.577350     0.000000     0.000000     0.000000
   42    -1.000000   120.000000     0.577350     0.577350    -0.577350     0.000000     0.000000     0.000000
   43     1.000000   180.000000     0.000000    -0.707107     0.707107     0.000000     0.000000     0.000000
   44    -1.000000   180.000000     0.000000    -0.707107     0.707107     0.000000     0.000000     0.000000
   45     1.000000   180.000000     0.707107    -0.707107     0.000000     0.000000     0.000000     0.000000
   46    -1.000000   180.000000     0.707107    -0.707107     0.000000     0.000000     0.000000     0.000000
   47     1.000000   180.000000     0.707107     0.000000    -0.707107     0.000000     0.000000     0.000000
   48    -1.000000   180.000000     0.707107     0.000000    -0.707107     0.000000     0.000000     0.000000
 
 Subroutine IBZKPT returns following result:
 ===========================================
 
 Found     35 irreducible k-points:
 
 Following reciprocal coordinates:
            Coordinates               Weight
  0.050000  0.050000  0.050000      8.000000
  0.150000  0.050000  0.050000     24.000000
  0.250000  0.050000  0.050000     24.000000
  0.350000  0.050000  0.050000     24.000000
  0.450000  0.050000  0.050000     24.000000
  0.150000  0.150000  0.050000     24.000000
  0.250000  0.150000  0.050000     48.000000
  0.350000  0.150000  0.050000     48.000000
  0.450000  0.150000  0.050000     48.000000
  0.250000  0.250000  0.050000     24.000000
  0.350000  0.250000  0.050000     48.000000
  0.450000  0.250000  0.050000     48.000000
  0.350000  0.350000  0.050000     24.000000
  0.450000  0.350000  0.050000     48.000000
  0.450000  0.450000  0.050000     24.000000
  0.150000  0.150000  0.150000      8.000000
  0.250000  0.150000  0.150000     24.000000
  0.350000  0.150000  0.150000     24.000000
  0.450000  0.150000  0.150000     24.000000
  0.250000  0.250000  0.150000     24.000000
  0.350000  0.250000  0.150000     48.000000
  0.450000  0.250000  0.150000     48.000000
  0.350000  0.350000  0.150000     24.000000
  0.450000  0.350000  0.150000     48.000000
  0.450000  0.450000  0.150000     24.000000
  0.250000  0.250000  0.250000      8.000000
  0.350000  0.250000  0.250000     24.000000
  0.450000  0.250000  0.250000     24.000000
  0.350000  0.350000  0.250000     24.000000
  0.450000  0.350000  0.250000     48.000000
  0.450000  0.450000  0.250000     24.000000
  0.350000  0.350000  0.350000      8.000000
  0.450000  0.350000  0.350000     24.000000
  0.450000  0.450000  0.350000     24.000000
  0.450000  0.450000  0.450000      8.000000
 
 Following cartesian coordinates:
            Coordinates               Weight
  0.017605  0.017605  0.017605      8.000000
  0.052816  0.017605  0.017605     24.000000
  0.088027  0.017605  0.017605     24.000000
  0.123237  0.017605  0.017605     24.000000
  0.158448  0.017605  0.017605     24.000000
  0.052816  0.052816  0.017605     24.000000
  0.088027  0.052816  0.017605     48.000000
  0.123237  0.052816  0.017605     48.000000
  0.158448  0.052816  0.017605     48.000000
  0.088027  0.088027  0.017605     24.000000
  0.123237  0.088027  0.017605     48.000000
  0.158448  0.088027  0.017605     48.000000
  0.123237  0.123237  0.017605     24.000000
  0.158448  0.123237  0.017605     48.000000
  0.158448  0.158448  0.017605     24.000000
  0.052816  0.052816  0.052816      8.000000
  0.088027  0.052816  0.052816     24.000000
  0.123237  0.052816  0.052816     24.000000
  0.158448  0.052816  0.052816     24.000000
  0.088027  0.088027  0.052816     24.000000
  0.123237  0.088027  0.052816     48.000000
  0.158448  0.088027  0.052816     48.000000
  0.123237  0.123237  0.052816     24.000000
  0.158448  0.123237  0.052816     48.000000
  0.158448  0.158448  0.052816     24.000000
  0.088027  0.088027  0.088027      8.000000
  0.123237  0.088027  0.088027     24.000000
  0.158448  0.088027  0.088027     24.000000
  0.123237  0.123237  0.088027     24.000000
  0.158448  0.123237  0.088027     48.000000
  0.158448  0.158448  0.088027     24.000000
  0.123237  0.123237  0.123237      8.000000
  0.158448  0.123237  0.123237     24.000000
  0.158448  0.158448  0.123237     24.000000
  0.158448  0.158448  0.158448      8.000000
 
 TETIRR: Found    466 inequivalent tetrahedra from     6000


--------------------------------------------------------------------------------------------------------




 Dimension of arrays:
   k-points           NKPTS =     35   k-points in BZ     NKDIM =     35   number of bands    NBANDS=     24
   number of dos      NEDOS =    301   number of ions     NIONS =      2
   non local maximal  LDIM  =      6   non local SUM 2l+1 LMDIM =     18
   total plane-waves  NPLWV =  13824
   max r-space proj   IRMAX =   5480   max aug-charges    IRDMAX=  18070
   dimension x,y,z NGX =    24 NGY =   24 NGZ =   24
   dimension x,y,z NGXF=    48 NGYF=   48 NGZF=   48
   support grid    NGXF=    48 NGYF=   48 NGZF=   48
   ions per type =               2
   NGX,Y,Z   is equivalent  to a cutoff of  14.05, 14.05, 14.05 a.u.
   NGXF,Y,Z  is equivalent  to a cutoff of  28.10, 28.10, 28.10 a.u.

 SYSTEM =  unknown system                          
 POSCAR =  Fe2                                     

 Startparameter for this run:
   NWRITE =      2    write-flag & timer
   PREC   = accura    normal or accurate (medium, high low for compatibility)
   ISTART =      0    job   : 0-new  1-cont  2-samecut
   ICHARG =      2    charge: 1-file 2-atom 10-const
   ISPIN  =      2    spin polarized calculation?
   LNONCOLLINEAR =      F non collinear calculations
   LSORBIT =      F    spin-orbit coupling
   INIWAV =      1    electr: 0-lowe 1-rand  2-diag
   LASPH  =      F    aspherical Exc in radial PAW
   METAGGA=      F    non-selfconsistent MetaGGA calc.

 Electronic Relaxation 1
   ENCUT  =  580.0 eV  42.63 Ry    6.53 a.u.   5.58  5.58  5.58*2*pi/ulx,y,z
   ENINI  =  580.0     initial cutoff
   ENAUG  =  578.3 eV  augmentation charge cutoff
   NELM   =    100;   NELMIN=  2; NELMDL= -5     # of ELM steps 
   EDIFF  = 0.1E-06   stopping-criterion for ELM
   LREAL  =      T    real-space projection
   NLSPLINE    = F    spline interpolate recip. space projectors
   LCOMPAT=      F    compatible to vasp.4.4
   GGA_COMPAT  = T    GGA compatible to vasp.4.4-vasp.4.6
   LMAXPAW     = -100 max onsite density
   LMAXMIX     =    2 max onsite mixed and CHGCAR
   VOSKOWN=      0    Vosko Wilk Nusair interpolation
   ROPT   =   -0.00025
 Ionic relaxation
   EDIFFG = 0.1E-05   stopping-criterion for IOM
   NSW    =      0    number of steps for IOM
   NBLOCK =      1;   KBLOCK =      1    inner block; outer block 
   IBRION =     -1    ionic relax: 0-MD 1-quasi-New 2-CG
   NFREE  =      0    steps in history (QN), initial steepest desc. (CG)
   ISIF   =      3    stress and relaxation
   IWAVPR =     10    prediction:  0-non 1-charg 2-wave 3-comb
   ISYM   =      2    0-nonsym 1-usesym 2-fastsym
   LCORR  =      T    Harris-Foulkes like correction to forces

   POTIM  = 0.5000    time-step for ionic-motion
   TEIN   =    0.0    initial temperature
   TEBEG  =    0.0;   TEEND  =   0.0 temperature during run
   SMASS  =  -3.00    Nose mass-parameter (am)
   estimated Nose-frequenzy (Omega)   =  0.10E-29 period in steps =****** mass=  -0.184E-27a.u.
   SCALEE = 1.0000    scale energy and forces
   NPACO  =    256;   APACO  = 16.0  distance and # of slots for P.C.
   PSTRESS=    0.0 pullay stress

  Mass of Ions in am
   POMASS =  55.85
  Ionic Valenz
   ZVAL   =  14.00
  Atomic Wigner-Seitz radii
   RWIGS  =  -1.00
  virtual crystal weights 
   VCA    =   1.00
   NELECT =      28.0000    total number of electrons
   NUPDOWN=      -1.0000    fix difference up-down

 DOS related values:
   EMIN   =  10.00;   EMAX   =-10.00  energy-range for DOS
   EFERMI =   0.00
   ISMEAR =    -5;   SIGMA  =   0.05  broadening in eV -4-tet -1-fermi 0-gaus

 Electronic relaxation 2 (details)
   IALGO  =     38    algorithm
   LDIAG  =      T    sub-space diagonalisation (order eigenvalues)
   LSUBROT=      F    optimize rotation matrix (better conditioning)
   TURBO    =      0    0=normal 1=particle mesh
   IRESTART =      0    0=no restart 2=restart with 2 vectors
   NREBOOT  =      0    no. of reboots
   NMIN     =      0    reboot dimension
   EREF     =   0.00    reference energy to select bands
   IMIX   =      4    mixing-type and parameters
     AMIX     =   0.40;   BMIX     =  1.00
     AMIX_MAG =   1.60;   BMIX_MAG =  1.00
     AMIN     =   0.10
     WC   =   100.;   INIMIX=   1;  MIXPRE=   1;  MAXMIX= -45

 Intra band minimization:
   WEIMIN = 0.0000     energy-eigenvalue tresh-hold
   EBREAK =  0.10E-08  absolut break condition
   DEPER  =   0.30     relativ break condition  

   TIME   =   0.40     timestep for ELM

  volume/ion in A,a.u.               =      11.45        77.29
  Fermi-wavevector in a.u.,A,eV,Ry     =   1.750389  3.307755 41.686364  3.063861
  Thomas-Fermi vector in A             =   2.821117
 
 Write flags
   LWAVE        =      F    write WAVECAR
   LDOWNSAMPLE  =      F    k-point downsampling of WAVECAR
   LCHARG       =      F    write CHGCAR
   LVTOT        =      F    write LOCPOT, total local potential
   LVHAR        =      F    write LOCPOT, Hartree potential only
   LELF         =      F    write electronic localiz. function (ELF)
   LORBIT       =     11    0 simple, 1 ext, 2 COOP (PROOUT), +10 PAW based schemes


 Dipole corrections
   LMONO  =      F    monopole corrections only (constant potential shift)
   LDIPOL =      F    correct potential (dipole corrections)
   IDIPOL =      0    1-x, 2-y, 3-z, 4-all directions 
   EPSILON=  1.0000000 bulk dielectric constant

 Exchange correlation treatment:
   GGA     =    --    GGA type
   LEXCH   =     8    internal setting for exchange type
   VOSKOWN=      0    Vosko Wilk Nusair interpolation
   LHFCALC =     F    Hartree Fock is set to
   LHFONE  =     F    Hartree Fock one center treatment
   AEXX    =    0.0000 exact exchange contribution

 Linear response parameters
   LEPSILON=     F    determine dielectric tensor
   LRPA    =     F    only Hartree local field effects (RPA)
   LNABLA  =     F    use nabla operator in PAW spheres
   LVEL    =     F    velocity operator in full k-point grid
   LINTERFAST=   F  fast interpolation
   KINTER  =     0    interpolate to denser k-point grid
   CSHIFT  =0.1000    complex shift for real part using Kramers Kronig
   OMEGAMAX=  -1.0    maximum frequency
   DEG_THRESHOLD= 0.2000000E-02 threshold for treating states as degnerate
   RTIME   =   -0.100 relaxation time in fs
  (WPLASMAI=    0.000 imaginary part of plasma frequency in eV, 0.658/RTIME)
   DFIELD  = 0.0000000 0.0000000 0.0000000 field for delta impulse in time
 
 Orbital magnetization related:
   ORBITALMAG=     F  switch on orbital magnetization
   LCHIMAG   =     F  perturbation theory with respect to B field
   DQ        =  0.001000  dq finite difference perturbation B field
   LLRAUG    =     F  two centre corrections for induced B field



--------------------------------------------------------------------------------------------------------


 Static calculation
 charge density and potential will be updated during run
 spin polarized calculation
 Variant of blocked Davidson
 Davidson routine will perform the subspace rotation
 perform sub-space diagonalisation
    after iterative eigenvector-optimisation
 modified Broyden-mixing scheme, WC =      100.0
 initial mixing is a Kerker type mixing with AMIX =  0.4000 and BMIX =      1.0000
 Hartree-type preconditioning will be used
 using additional bands           10
 real space projection scheme for non local part
 use partial core corrections
 calculate Harris-corrections to forces 
   (improved forces if not selfconsistent)
 use gradient corrections 
 use of overlap-Matrix (Vanderbilt PP)
 Fermi weights with tetrahedron method with Bloechl corrections


--------------------------------------------------------------------------------------------------------


  energy-cutoff  :      580.00
  volume of cell :       22.91
      direct lattice vectors                 reciprocal lattice vectors
     2.840052000  0.000000000  0.000000000     0.352106229  0.000000000  0.000000000
     0.000000000  2.840052000  0.000000000     0.000000000  0.352106229  0.000000000
     0.000000000  0.000000000  2.840052000     0.000000000  0.000000000  0.352106229

  length of vectors
     2.840052000  2.840052000  2.840052000     0.352106229  0.352106229  0.352106229


 
 k-points in units of 2pi/SCALE and weight: pymatgen with grid density = 2166 / numb
   0.01760531  0.01760531  0.01760531       0.008
   0.05281593  0.01760531  0.01760531       0.024
   0.08802656  0.01760531  0.01760531       0.024
   0.12323718  0.01760531  0.01760531       0.024
   0.15844780  0.01760531  0.01760531       0.024
   0.05281593  0.05281593  0.01760531       0.024
   0.08802656  0.05281593  0.01760531       0.048
   0.12323718  0.05281593  0.01760531       0.048
   0.15844780  0.05281593  0.01760531       0.048
   0.08802656  0.08802656  0.01760531       0.024
   0.12323718  0.08802656  0.01760531       0.048
   0.15844780  0.08802656  0.01760531       0.048
   0.12323718  0.12323718  0.01760531       0.024
   0.15844780  0.12323718  0.01760531       0.048
   0.15844780  0.15844780  0.01760531       0.024
   0.05281593  0.05281593  0.05281593       0.008
   0.08802656  0.05281593  0.05281593       0.024
   0.12323718  0.05281593  0.05281593       0.024
   0.15844780  0.05281593  0.05281593       0.024
   0.08802656  0.08802656  0.05281593       0.024
   0.12323718  0.08802656  0.05281593       0.048
   0.15844780  0.08802656  0.05281593       0.048
   0.12323718  0.12323718  0.05281593       0.024
   0.15844780  0.12323718  0.05281593       0.048
   0.15844780  0.15844780  0.05281593       0.024
   0.08802656  0.08802656  0.08802656       0.008
   0.12323718  0.08802656  0.08802656       0.024
   0.15844780  0.08802656  0.08802656       0.024
   0.12323718  0.12323718  0.08802656       0.024
   0.15844780  0.12323718  0.08802656       0.048
   0.15844780  0.15844780  0.08802656       0.024
   0.12323718  0.12323718  0.12323718       0.008
   0.15844780  0.12323718  0.12323718       0.024
   0.15844780  0.15844780  0.12323718       0.024
   0.15844780  0.15844780  0.15844780       0.008
 
 k-points in reciprocal lattice and weights: pymatgen with grid density = 2166 / numb
   0.05000000  0.05000000  0.05000000       0.008
   0.15000000  0.05000000  0.05000000       0.024
   0.25000000  0.05000000  0.05000000       0.024
   0.35000000  0.05000000  0.05000000       0.024
   0.45000000  0.05000000  0.05000000       0.024
   0.15000000  0.15000000  0.05000000       0.024
   0.25000000  0.15000000  0.05000000       0.048
   0.35000000  0.15000000  0.05000000       0.048
   0.45000000  0.15000000  0.05000000       0.048
   0.25000000  0.25000000  0.05000000       0.024
   0.35000000  0.25000000  0.05000000       0.048
   0.45000000  0.25000000  0.05000000       0.048
   0.35000000  0.35000000  0.05000000       0.024
   0.45000000  0.35000000  0.05000000       0.048
   0.45000000  0.45000000  0.05000000       0.024
   0.15000000  0.15000000  0.15000000       0.008
   0.25000000  0.15000000  0.15000000       0.024
   0.35000000  0.15000000  0.15000000       0.024
   0.45000000  0.15000000  0.15000000       0.024
   0.25000000  0.25000000  0.15000000       0.024
   0.35000000  0.25000000  0.15000000       0.048
   0.45000000  0.25000000  0.15000000       0.048
   0.35000000  0.35000000  0.15000000       0.024
   0.45000000  0.35000000  0.15000000       0.048
   0.45000000  0.45000000  0.15000000       0.024
   0.25000000  0.25000000  0.25000000       0.008
   0.35000000  0.25000000  0.25000000       0.024
   0.45000000  0.25000000  0.25000000       0.024
   0.35000000  0.35000000  0.25000000       0.024
   0.45000000  0.35000000  0.25000000       0.048
   0.45000000  0.45000000  0.25000000       0.024
   0.35000000  0.35000000  0.35000000       0.008
   0.45000000  0.35000000  0.35000000       0.024
   0.45000000  0.45000000  0.35000000       0.024
   0.45000000  0.45000000  0.45000000       0.008
 
 position of ions in fractional coordinates (direct lattice) 
   0.00000000  0.00000000  0.00000000
   0.50000000  0.50000000  0.50000000
 
 position of ions in cartesian coordinates  (Angst):
   0.00000000  0.00000000  0.00000000
   1.42002600  1.42002600  1.42002600
 


--------------------------------------------------------------------------------------------------------


 k-point  1 :   0.0500 0.0500 0.0500  plane waves:     739
 k-point  2 :   0.1500 0.0500 0.0500  plane waves:     731
 k-point  3 :   0.2500 0.0500 0.0500  plane waves:     727
 k-point  4 :   0.3500 0.0500 0.0500  plane waves:     726
 k-point  5 :   0.4500 0.0500 0.0500  plane waves:     725
 k-point  6 :   0.1500 0.1500 0.0500  plane waves:     728
 k-point  7 :   0.2500 0.1500 0.0500  plane waves:     729
 k-point  8 :   0.3500 0.1500 0.0500  plane waves:     734
 k-point  9 :   0.4500 0.1500 0.0500  plane waves:     733
 k-point 10 :   0.2500 0.2500 0.0500  plane waves:     724
 k-point 11 :   0.3500 0.2500 0.0500  plane waves:     731
 k-point 12 :   0.4500 0.2500 0.0500  plane waves:     729
 k-point 13 :   0.3500 0.3500 0.0500  plane waves:     728
 k-point 14 :   0.4500 0.3500 0.0500  plane waves:     726
 k-point 15 :   0.4500 0.4500 0.0500  plane waves:     726
 k-point 16 :   0.1500 0.1500 0.1500  plane waves:     724
 k-point 17 :   0.2500 0.1500 0.1500  plane waves:     723
 k-point 18 :   0.3500 0.1500 0.1500  plane waves:     729
 k-point 19 :   0.4500 0.1500 0.1500  plane waves:     730
 k-point 20 :   0.2500 0.2500 0.1500  plane waves:     726
 k-point 21 :   0.3500 0.2500 0.1500  plane waves:     726
 k-point 22 :   0.4500 0.2500 0.1500  plane waves:     729
 k-point 23 :   0.3500 0.3500 0.1500  plane waves:     728
 k-point 24 :   0.4500 0.3500 0.1500  plane waves:     726
 k-point 25 :   0.4500 0.4500 0.1500  plane waves:     723
 k-point 26 :   0.2500 0.2500 0.2500  plane waves:     729
 k-point 27 :   0.3500 0.2500 0.2500  plane waves:     729
 k-point 28 :   0.4500 0.2500 0.2500  plane waves:     729
 k-point 29 :   0.3500 0.3500 0.2500  plane waves:     725
 k-point 30 :   0.4500 0.3500 0.2500  plane waves:     721
 k-point 31 :   0.4500 0.4500 0.2500  plane waves:     720
 k-point 32 :   0.3500 0.3500 0.3500  plane waves:     717
 k-point 33 :   0.4500 0.3500 0.3500  plane waves:     718
 k-point 34 :   0.4500 0.4500 0.3500  plane waves:     704
 k-point 35 :   0.4500 0.4500 0.4500  plane waves:     702

 maximum and minimum number of plane-waves per node :       198      172

 maximum number of plane-waves:       739
 maximum index in each direction: 
   IXMAX=    5   IYMAX=    5   IZMAX=    5
   IXMIN=   -6   IYMIN=   -6   IZMIN=   -5


 real space projection operators:
  total allocation   :       1478.53 KBytes
  max/ min on nodes  :        376.03        363.94


 parallel 3D FFT for wavefunctions:
    minimum data exchange during FFTs selected (reduces bandwidth)
 parallel 3D FFT for charge:
    minimum data exchange during FFTs selected (reduces bandwidth)


 total amount of memory used by VASP MPI-rank0    32475. kBytes
=======================================================================

   base      :      30000. kBytes
   nonlr-proj:        647. kBytes
   fftplans  :        261. kBytes
   grid      :        623. kBytes
   one-center:         31. kBytes
   wavefun   :        913. kBytes
 
     INWAV:  cpu time    0.0000: real time    0.0001
 Broyden mixing: mesh for mixing (old mesh)
   NGX = 11   NGY = 11   NGZ = 11
  (NGX  = 48   NGY  = 48   NGZ  = 48)
  gives a total of   1331 points

 initial charge density was supplied:
 charge density of overlapping atoms calculated
 number of electron      28.0000000 magnetization      10.0000000
 keeping initial charge density in first step


--------------------------------------------------------------------------------------------------------


 Maximum index for non-local projection operator         1337
 Maximum index for augmentation-charges          805 (set IRDMAX)


--------------------------------------------------------------------------------------------------------


 First call to EWALD:  gamma=   0.624
 Maximum number of real-space cells 3x 3x 3
 Maximum number of reciprocal cells 3x 3x 3

    FEWALD:  cpu time    0.0012: real time    0.0013


--------------------------------------- Iteration      1(   1)  ---------------------------------------


    POTLOK:  cpu time    0.0078: real time    0.0078
    SETDIJ:  cpu time    0.0058: real time    0.0059
     EDDAV:  cpu time    0.4362: real time    0.4430
 BZINTS: Fermi energy: 20.416428; 28.000000 electrons
         Band energy:-105.218036;  BLOECHL correction: -0.266236
       DOS:  cpu time    0.0351: real time    0.0351
    --------------------------------------------
      LOOP:  cpu time    0.4849: real time    0.4918

 eigenvalue-minimisations  :  3480
 total energy-change (2. order) : 0.2172008E+03  (-0.1888041E+04)
 number of electron      28.0000000 magnetization      10.0000000
 augmentation part       28.0000000 magnetization      10.0000000

 Free energy of the ion-electron system (eV)
  ---------------------------------------------------
  alpha Z        PSCENC =       218.87048721
  Ewald energy   TEWEN  =     -3616.56080017
  -Hartree energ DENC   =     -1162.86386254
  -exchange      EXHF   =         0.00000000
  -V(xc)+E(xc)   XCENC  =       147.54621923
  PAW double counting   =      3997.93860218    -4177.34792201
  entropy T*S    EENTRO =         0.00000000
  eigenvalues    EBANDS =      -105.21803627
  atomic energy  EATOM  =      4914.83610837
  Solvation  Ediel_sol  =         0.00000000
  ---------------------------------------------------
  free energy    TOTEN  =       217.20079600 eV

  energy without entropy =      217.20079600  energy(sigma->0) =      217.20079600


--------------------------------------------------------------------------------------------------------




--------------------------------------- Iteration      1(   2)  ---------------------------------------


     EDDAV:  cpu time    0.4236: real time    0.4250
 BZINTS: Fermi energy: 12.178542; 28.000000 electrons
         Band energy:-332.411560;  BLOECHL correction: -0.072868
       DOS:  cpu time    0.0342: real time    0.0343
    --------------------------------------------
      LOOP:  cpu time    0.4578: real time    0.4593

 eigenvalue-minimisations  :  3468
 total energy-change (2. order) :-0.2271935E+03  (-0.2182265E+03)
 number of electron      28.0000000 magnetization      10.0000000
 augmentation part       28.0000000 magnetization      10.0000000

 Free energy of the ion-electron system (eV)
  ---------------------------------------------------
  alpha Z        PSCENC =       218.87048721
  Ewald energy   TEWEN  =     -3616.56080017
  -Hartree energ DENC   =     -1162.86386254
  -exchange      EXHF   =         0.00000000
  -V(xc)+E(xc)   XCENC  =       147.54621923
  PAW double counting   =      3997.93860218    -4177.34792201
  entropy T*S    EENTRO =         0.00000000
  eigenvalues    EBANDS =      -332.41155983
  atomic energy  EATOM  =      4914.83610837
  Solvation  Ediel_sol  =         0.00000000
  ---------------------------------------------------
  free energy    TOTEN  =        -9.99272756 eV

  energy without entropy =       -9.99272756  energy(sigma->0) =       -9.99272756


--------------------------------------------------------------------------------------------------------




--------------------------------------- Iteration      1(   3)  ---------------------------------------


     EDDAV:  cpu time    0.4469: real time    0.4480
 BZINTS: Fermi energy: 12.037272; 28.000000 electrons
         Band energy:-338.642386;  BLOECHL correction: -0.071291
       DOS:  cpu time    0.0335: real time    0.0335
    --------------------------------------------
      LOOP:  cpu time    0.4804: real time    0.4816

 eigenvalue-minimisations  :  3684
 total energy-change (2. order) :-0.6230826E+01  (-0.6221563E+01)
 number of electron      28.0000000 magnetization      10.0000000
 augmentation part       28.0000000 magnetization      10.0000000

 Free energy of the ion-electron system (eV)
  ---------------------------------------------------
  alpha Z        PSCENC =       218.87048721
  Ewald energy   TEWEN  =     -3616.56080017
  -Hartree energ DENC   =     -1162.86386254
  -exchange      EXHF   =         0.00000000
  -V(xc)+E(xc)   XCENC  =       147.54621923
  PAW double counting   =      3997.93860218    -4177.34792201
  entropy T*S    EENTRO =         0.00000000
  eigenvalues    EBANDS =      -338.64238609
  atomic energy  EATOM  =      4914.83610837
  Solvation  Ediel_sol  =         0.00000000
  ---------------------------------------------------
  free energy    TOTEN  =       -16.22355382 eV

  energy without entropy =      -16.22355382  energy(sigma->0) =      -16.22355382


--------------------------------------------------------------------------------------------------------




--------------------------------------- Iteration      1(   4)  ---------------------------------------


     EDDAV:  cpu time    0.4750: real time    0.4767
 BZINTS: Fermi energy: 12.036893; 28.000000 electrons
         Band energy:-338.693238;  BLOECHL correction: -0.071280
       DOS:  cpu time    0.0333: real time    0.0334
    --------------------------------------------
      LOOP:  cpu time    0.5083: real time    0.5100

 eigenvalue-minimisations  :  3900
 total energy-change (2. order) :-0.5085203E-01  (-0.5085557E-01)
 number of electron      28.0000000 magnetization      10.0000000
 augmentation part       28.0000000 magnetization      10.0000000

 Free energy of the ion-electron system (eV)
  ---------------------------------------------------
  alpha Z        PSCENC =       218.87048721
  Ewald energy   TEWEN  =     -3616.56080017
  -Hartree energ DENC   =     -1162.86386254
  -exchange      EXHF   =         0.00000000
  -V(xc)+E(xc)   XCENC  =       147.54621923
  PAW double counting   =      3997.93860218    -4177.34792201
  entropy T*S    EENTRO =         0.00000000
  eigenvalues    EBANDS =      -338.69323811
  atomic energy  EATOM  =      4914.83610837
  Solvation  Ediel_sol  =         0.00000000
  ---------------------------------------------------
  free energy    TOTEN  =       -16.27440584 eV

  energy without entropy =      -16.27440584  energy(sigma->0) =      -16.27440584


--------------------------------------------------------------------------------------------------------




--------------------------------------- Iteration      1(   5)  ---------------------------------------


     EDDAV:  cpu time    0.4491: real time    0.4503
 BZINTS: Fermi energy: 12.036892; 28.000000 electrons
         Band energy:-338.694187;  BLOECHL correction: -0.071280
       DOS:  cpu time    0.0342: real time    0.0342
    CHARGE:  cpu time    0.0152: real time    0.0152
    MIXING:  cpu time    0.0006: real time    0.0007
    --------------------------------------------
      LOOP:  cpu time    0.4990: real time    0.5004

 eigenvalue-minimisations  :  3708
 total energy-change (2. order) :-0.9489441E-03  (-0.9489564E-03)
 number of electron      28.0000000 magnetization       4.3575857
 augmentation part       15.9047079 magnetization       2.8338421

 Broyden mixing:
  rms(total) = 0.24989E+01    rms(broyden)= 0.24989E+01
  rms(prec ) = 0.39512E+01
  weight for this iteration     100.00

 Free energy of the ion-electron system (eV)
  ---------------------------------------------------
  alpha Z        PSCENC =       218.87048721
  Ewald energy   TEWEN  =     -3616.56080017
  -Hartree energ DENC   =     -1162.86386254
  -exchange      EXHF   =         0.00000000
  -V(xc)+E(xc)   XCENC  =       147.54621923
  PAW double counting   =      3997.93860218    -4177.34792201
  entropy T*S    EENTRO =         0.00000000
  eigenvalues    EBANDS =      -338.69418706
  atomic energy  EATOM  =      4914.83610837
  Solvation  Ediel_sol  =         0.00000000
  ---------------------------------------------------
  free energy    TOTEN  =       -16.27535479 eV

  energy without entropy =      -16.27535479  energy(sigma->0) =      -16.27535479


--------------------------------------------------------------------------------------------------------




--------------------------------------- Iteration      1(   6)  ---------------------------------------


    POTLOK:  cpu time    0.0059: real time    0.0060
    SETDIJ:  cpu time    0.0051: real time    0.0052
     EDDAV:  cpu time    0.4141: real time    0.4152
 BZINTS: Fermi energy:  9.266152; 28.000000 electrons
         Band energy:-409.576386;  BLOECHL correction: -0.036189
       DOS:  cpu time    0.0347: real time    0.0348
    CHARGE:  cpu time    0.0147: real time    0.0147
    MIXING:  cpu time    0.0004: real time    0.0005
    --------------------------------------------
      LOOP:  cpu time    0.4750: real time    0.4764

 eigenvalue-minimisations  :  3420
 total energy-change (2. order) :-0.1817881E+00  (-0.7492836E+00)
 number of electron      27.9999999 magnetization       4.5318029
 augmentation part       17.0681124 magnetization       3.5499869

 Broyden mixing:
  rms(total) = 0.69064E+00    rms(broyden)= 0.69053E+00
  rms(prec ) = 0.86584E+00
  weight for this iteration     100.00

 eigenvalues of (default mixing * dielectric matrix)
  average eigenvalue GAMMA=   0.8373
  0.8373

 Free energy of the ion-electron system (eV)
  ---------------------------------------------------
  alpha Z        PSCENC =       218.87048721
  Ewald energy   TEWEN  =     -3616.56080017
  -Hartree energ DENC   =     -1089.08518024
  -exchange      EXHF   =         0.00000000
  -V(xc)+E(xc)   XCENC  =       140.63898172
  PAW double counting   =      4113.78943356    -4289.36978751
  entropy T*S    EENTRO =         0.00000000
  eigenvalues    EBANDS =      -409.57638579
  atomic energy  EATOM  =      4914.83610837
  Solvation  Ediel_sol  =         0.00000000
  ---------------------------------------------------
  free energy    TOTEN  =       -16.45714284 eV

  energy without entropy =      -16.45714284  energy(sigma->0) =      -16.45714284


--------------------------------------------------------------------------------------------------------




--------------------------------------- Iteration      1(   7)  ---------------------------------------


    POTLOK:  cpu time    0.0059: real time    0.0060
    SETDIJ:  cpu time    0.0048: real time    0.0048
     EDDAV:  cpu time    0.4127: real time    0.4139
 BZINTS: Fermi energy:  9.762808; 28.000000 electrons
         Band energy:-395.187427;  BLOECHL correction: -0.033716
       DOS:  cpu time    0.0339: real time    0.0340
    CHARGE:  cpu time    0.0146: real time    0.0146
    MIXING:  cpu time    0.0003: real time    0.0003
    --------------------------------------------
      LOOP:  cpu time    0.4722: real time    0.4737

 eigenvalue-minimisations  :  3408
 total energy-change (2. order) :-0.5646439E-01  (-0.6148057E-01)
 number of electron      27.9999999 magnetization       4.4435661
 augmentation part       16.7743834 magnetization       3.5267579

 Broyden mixing:
  rms(total) = 0.43056E+00    rms(broyden)= 0.43053E+00
  rms(prec ) = 0.52590E+00
  weight for this iteration     100.00

 eigenvalues of (default mixing * dielectric matrix)
  average eigenvalue GAMMA=   0.7674
  0.9882  0.5466

 Free energy of the ion-electron system (eV)
  ---------------------------------------------------
  alpha Z        PSCENC =       218.87048721
  Ewald energy   TEWEN  =     -3616.56080017
  -Hartree energ DENC   =     -1099.07872429
  -exchange      EXHF   =         0.00000000
  -V(xc)+E(xc)   XCENC  =       141.33133429
  PAW double counting   =      4219.81991174    -4400.54449779
  entropy T*S    EENTRO =         0.00000000
  eigenvalues    EBANDS =      -395.18742659
  atomic energy  EATOM  =      4914.83610837
  Solvation  Ediel_sol  =         0.00000000
  ---------------------------------------------------
  free energy    TOTEN  =       -16.51360723 eV

  energy without entropy =      -16.51360723  energy(sigma->0) =      -16.51360723


--------------------------------------------------------------------------------------------------------




--------------------------------------- Iteration      1(   8)  ---------------------------------------


    POTLOK:  cpu time    0.0059: real time    0.0060
    SETDIJ:  cpu time    0.0048: real time    0.0048
     EDDAV:  cpu time    0.4527: real time    0.4539
 BZINTS: Fermi energy:  9.688986; 28.000000 electrons
         Band energy:-397.459800;  BLOECHL correction: -0.033974
       DOS:  cpu time    0.0329: real time    0.0330
    CHARGE:  cpu time    0.0146: real time    0.0146
    MIXING:  cpu time    0.0003: real time    0.0003
    --------------------------------------------
      LOOP:  cpu time    0.5112: real time    0.5127

 eigenvalue-minimisations  :  3720
 total energy-change (2. order) :-0.1004807E-01  (-0.1506098E-02)
 number of electron      27.9999999 magnetization       4.3699102
 augmentation part       16.8105606 magnetization       3.4532854

 Broyden mixing:
  rms(total) = 0.13700E+00    rms(broyden)= 0.13699E+00
  rms(prec ) = 0.21434E+00
  weight for this iteration     100.00

 eigenvalues of (default mixing * dielectric matrix)
  average eigenvalue GAMMA=   1.0474
  1.6987  0.8569  0.5867

 Free energy of the ion-electron system (eV)
  ---------------------------------------------------
  alpha Z        PSCENC =       218.87048721
  Ewald energy   TEWEN  =     -3616.56080017
  -Hartree energ DENC   =     -1095.15385921
  -exchange      EXHF   =         0.00000000
  -V(xc)+E(xc)   XCENC  =       141.10710013
  PAW double counting   =      4267.86974981    -4450.03264172
  entropy T*S    EENTRO =         0.00000000
  eigenvalues    EBANDS =      -397.45979972
  atomic energy  EATOM  =      4914.83610837
  Solvation  Ediel_sol  =         0.00000000
  ---------------------------------------------------
  free energy    TOTEN  =       -16.52365530 eV

  energy without entropy =      -16.52365530  energy(sigma->0) =      -16.52365530


--------------------------------------------------------------------------------------------------------




--------------------------------------- Iteration      1(   9)  ---------------------------------------


    POTLOK:  cpu time    0.0059: real time    0.0063
    SETDIJ:  cpu time    0.0050: real time    0.0050
     EDDAV:  cpu time    0.4427: real time    0.4438
 BZINTS: Fermi energy:  9.610617; 28.000000 electrons
         Band energy:-399.755863;  BLOECHL correction: -0.034526
       DOS:  cpu time    0.0329: real time    0.0330
    CHARGE:  cpu time    0.0145: real time    0.0146
    MIXING:  cpu time    0.0003: real time    0.0003
    --------------------------------------------
      LOOP:  cpu time    0.5014: real time    0.5030

 eigenvalue-minimisations  :  3672
 total energy-change (2. order) : 0.8173976E-02  (-0.5164975E-03)
 number of electron      27.9999999 magnetization       4.4016176
 augmentation part       16.8467733 magnetization       3.4830389

 Broyden mixing:
  rms(total) = 0.33721E-01    rms(broyden)= 0.33716E-01
  rms(prec ) = 0.45939E-01
  weight for this iteration     100.00

 eigenvalues of (default mixing * dielectric matrix)
  average eigenvalue GAMMA=   1.1853
  2.3395  1.0616  0.6987  0.6416

 Free energy of the ion-electron system (eV)
  ---------------------------------------------------
  alpha Z        PSCENC =       218.87048721
  Ewald energy   TEWEN  =     -3616.56080017
  -Hartree energ DENC   =     -1090.24030081
  -exchange      EXHF   =         0.00000000
  -V(xc)+E(xc)   XCENC  =       140.86446325
  PAW double counting   =      4344.29209483    -4528.82167122
  entropy T*S    EENTRO =         0.00000000
  eigenvalues    EBANDS =      -399.75586279
  atomic energy  EATOM  =      4914.83610837
  Solvation  Ediel_sol  =         0.00000000
  ---------------------------------------------------
  free energy    TOTEN  =       -16.51548132 eV

  energy without entropy =      -16.51548132  energy(sigma->0) =      -16.51548132


--------------------------------------------------------------------------------------------------------




--------------------------------------- Iteration      1(  10)  ---------------------------------------


    POTLOK:  cpu time    0.0059: real time    0.0060
    SETDIJ:  cpu time    0.0048: real time    0.0048
     EDDAV:  cpu time    0.4161: real time    0.4172
 BZINTS: Fermi energy:  9.624937; 28.000000 electrons
         Band energy:-399.217425;  BLOECHL correction: -0.034684
       DOS:  cpu time    0.0320: real time    0.0321
    CHARGE:  cpu time    0.0144: real time    0.0144
    MIXING:  cpu time    0.0004: real time    0.0004
    --------------------------------------------
      LOOP:  cpu time    0.4736: real time    0.4750

 eigenvalue-minimisations  :  3444
 total energy-change (2. order) : 0.1712735E-03  (-0.2249836E-03)
 number of electron      27.9999999 magnetization       4.4064321
 augmentation part       16.8347980 magnetization       3.4850994

 Broyden mixing:
  rms(total) = 0.44200E-02    rms(broyden)= 0.44199E-02
  rms(prec ) = 0.54562E-02
  weight for this iteration     100.00

 eigenvalues of (default mixing * dielectric matrix)
  average eigenvalue GAMMA=   1.1291
  2.4320  1.0998  0.7826  0.6972  0.6338

 Free energy of the ion-electron system (eV)
  ---------------------------------------------------
  alpha Z        PSCENC =       218.87048721
  Ewald energy   TEWEN  =     -3616.56080017
  -Hartree energ DENC   =     -1089.85017808
  -exchange      EXHF   =         0.00000000
  -V(xc)+E(xc)   XCENC  =       140.87175525
  PAW double counting   =      4373.14807411    -4558.61333212
  entropy T*S    EENTRO =         0.00000000
  eigenvalues    EBANDS =      -399.21742462
  atomic energy  EATOM  =      4914.83610837
  Solvation  Ediel_sol  =         0.00000000
  ---------------------------------------------------
  free energy    TOTEN  =       -16.51531005 eV

  energy without entropy =      -16.51531005  energy(sigma->0) =      -16.51531005


--------------------------------------------------------------------------------------------------------




--------------------------------------- Iteration      1(  11)  ---------------------------------------


    POTLOK:  cpu time    0.0059: real time    0.0061
    SETDIJ:  cpu time    0.0048: real time    0.0048
     EDDAV:  cpu time    0.4358: real time    0.4369
 BZINTS: Fermi energy:  9.623379; 28.000000 electrons
         Band energy:-399.249451;  BLOECHL correction: -0.034701
       DOS:  cpu time    0.0329: real time    0.0330
    CHARGE:  cpu time    0.0189: real time    0.0189
    MIXING:  cpu time    0.0004: real time    0.0004
    --------------------------------------------
      LOOP:  cpu time    0.4987: real time    0.5001

 eigenvalue-minimisations  :  3600
 total energy-change (2. order) :-0.5921011E-04  (-0.4858502E-05)
 number of electron      27.9999999 magnetization       4.4058316
 augmentation part       16.8353436 magnetization       3.4847647

 Broyden mixing:
  rms(total) = 0.24285E-02    rms(broyden)= 0.24283E-02
  rms(prec ) = 0.32713E-02
  weight for this iteration     100.00

 eigenvalues of (default mixing * dielectric matrix)
  average eigenvalue GAMMA=   1.2932
  2.2994  2.2994  1.0746  0.6331  0.7546  0.6977

 Free energy of the ion-electron system (eV)
  ---------------------------------------------------
  alpha Z        PSCENC =       218.87048721
  Ewald energy   TEWEN  =     -3616.56080017
  -Hartree energ DENC   =     -1089.84266093
  -exchange      EXHF   =         0.00000000
  -V(xc)+E(xc)   XCENC  =       140.87417504
  PAW double counting   =      4374.36799302    -4559.81122115
  entropy T*S    EENTRO =         0.00000000
  eigenvalues    EBANDS =      -399.24945066
  atomic energy  EATOM  =      4914.83610837
  Solvation  Ediel_sol  =         0.00000000
  ---------------------------------------------------
  free energy    TOTEN  =       -16.51536926 eV

  energy without entropy =      -16.51536926  energy(sigma->0) =      -16.51536926


--------------------------------------------------------------------------------------------------------




--------------------------------------- Iteration      1(  12)  ---------------------------------------


    POTLOK:  cpu time    0.0059: real time    0.0060
    SETDIJ:  cpu time    0.0048: real time    0.0048
     EDDAV:  cpu time    0.4655: real time    0.4668
 BZINTS: Fermi energy:  9.621848; 28.000000 electrons
         Band energy:-399.283797;  BLOECHL correction: -0.034714
       DOS:  cpu time    0.0329: real time    0.0330
    CHARGE:  cpu time    0.0145: real time    0.0146
    MIXING:  cpu time    0.0004: real time    0.0004
    --------------------------------------------
      LOOP:  cpu time    0.5240: real time    0.5255

 eigenvalue-minimisations  :  3864
 total energy-change (2. order) :-0.8226021E-05  (-0.4929762E-06)
 number of electron      27.9999999 magnetization       4.4055562
 augmentation part       16.8360555 magnetization       3.4847525

 Broyden mixing:
  rms(total) = 0.95841E-03    rms(broyden)= 0.95837E-03
  rms(prec ) = 0.13580E-02
  weight for this iteration     100.00

 eigenvalues of (default mixing * dielectric matrix)
  average eigenvalue GAMMA=   1.2307
  2.3869  2.3869  1.0833  0.7887  0.7171  0.6260  0.6260

 Free energy of the ion-electron system (eV)
  ---------------------------------------------------
  alpha Z        PSCENC =       218.87048721
  Ewald energy   TEWEN  =     -3616.56080017
  -Hartree energ DENC   =     -1089.89411903
  -exchange      EXHF   =         0.00000000
  -V(xc)+E(xc)   XCENC  =       140.87684320
  PAW double counting   =      4375.42615673    -4560.78625729
  entropy T*S    EENTRO =         0.00000000
  eigenvalues    EBANDS =      -399.28379651
  atomic energy  EATOM  =      4914.83610837
  Solvation  Ediel_sol  =         0.00000000
  ---------------------------------------------------
  free energy    TOTEN  =       -16.51537749 eV

  energy without entropy =      -16.51537749  energy(sigma->0) =      -16.51537749


--------------------------------------------------------------------------------------------------------




--------------------------------------- Iteration      1(  13)  ---------------------------------------


    POTLOK:  cpu time    0.0059: real time    0.0060
    SETDIJ:  cpu time    0.0048: real time    0.0048
     EDDAV:  cpu time    0.4154: real time    0.4163
 BZINTS: Fermi energy:  9.622450; 28.000000 electrons
         Band energy:-399.271421;  BLOECHL correction: -0.034706
       DOS:  cpu time    0.0338: real time    0.0339
    CHARGE:  cpu time    0.0145: real time    0.0145
    MIXING:  cpu time    0.0004: real time    0.0004
    --------------------------------------------
      LOOP:  cpu time    0.4747: real time    0.4759

 eigenvalue-minimisations  :  3444
 total energy-change (2. order) : 0.6783249E-05  (-0.1342950E-06)
 number of electron      27.9999999 magnetization       4.4053536
 augmentation part       16.8357538 magnetization       3.4844401

 Broyden mixing:
  rms(total) = 0.25047E-03    rms(broyden)= 0.25043E-03
  rms(prec ) = 0.34228E-03
  weight for this iteration     100.00

 eigenvalues of (default mixing * dielectric matrix)
  average eigenvalue GAMMA=   1.2908
  2.5209  2.4556  1.4758  1.0637  0.8088  0.6260  0.6879  0.6879

 Free energy of the ion-electron system (eV)
  ---------------------------------------------------
  alpha Z        PSCENC =       218.87048721
  Ewald energy   TEWEN  =     -3616.56080017
  -Hartree energ DENC   =     -1089.90122067
  -exchange      EXHF   =         0.00000000
  -V(xc)+E(xc)   XCENC  =       140.87674353
  PAW double counting   =      4375.54893720    -4560.91420554
  entropy T*S    EENTRO =         0.00000000
  eigenvalues    EBANDS =      -399.27142065
  atomic energy  EATOM  =      4914.83610837
  Solvation  Ediel_sol  =         0.00000000
  ---------------------------------------------------
  free energy    TOTEN  =       -16.51537070 eV

  energy without entropy =      -16.51537070  energy(sigma->0) =      -16.51537070


--------------------------------------------------------------------------------------------------------




--------------------------------------- Iteration      1(  14)  ---------------------------------------


    POTLOK:  cpu time    0.0059: real time    0.0060
    SETDIJ:  cpu time    0.0048: real time    0.0048
     EDDAV:  cpu time    0.3708: real time    0.3719
 BZINTS: Fermi energy:  9.622692; 28.000000 electrons
         Band energy:-399.266550;  BLOECHL correction: -0.034704
       DOS:  cpu time    0.0338: real time    0.0339
    CHARGE:  cpu time    0.0148: real time    0.0148
    MIXING:  cpu time    0.0005: real time    0.0005
    --------------------------------------------
      LOOP:  cpu time    0.4306: real time    0.4319

 eigenvalue-minimisations  :  2772
 total energy-change (2. order) : 0.1589829E-05  (-0.1572273E-07)
 number of electron      27.9999999 magnetization       4.4053712
 augmentation part       16.8356391 magnetization       3.4844238

 Broyden mixing:
  rms(total) = 0.62035E-04    rms(broyden)= 0.61817E-04
  rms(prec ) = 0.81421E-04
  weight for this iteration     100.00

 eigenvalues of (default mixing * dielectric matrix)
  average eigenvalue GAMMA=   1.2119
  2.6071  2.4667  1.2874  1.0499  0.8269  0.6319  0.6665  0.6854  0.6854

 Free energy of the ion-electron system (eV)
  ---------------------------------------------------
  alpha Z        PSCENC =       218.87048721
  Ewald energy   TEWEN  =     -3616.56080017
  -Hartree energ DENC   =     -1089.90369077
  -exchange      EXHF   =         0.00000000
  -V(xc)+E(xc)   XCENC  =       140.87657709
  PAW double counting   =      4375.55049899    -4560.91799948
  entropy T*S    EENTRO =         0.00000000
  eigenvalues    EBANDS =      -399.26655037
  atomic energy  EATOM  =      4914.83610837
  Solvation  Ediel_sol  =         0.00000000
  ---------------------------------------------------
  free energy    TOTEN  =       -16.51536911 eV

  energy without entropy =      -16.51536911  energy(sigma->0) =      -16.51536911


--------------------------------------------------------------------------------------------------------




--------------------------------------- Iteration      1(  15)  ---------------------------------------


    POTLOK:  cpu time    0.0059: real time    0.0067
    SETDIJ:  cpu time    0.0050: real time    0.0050
     EDDAV:  cpu time    0.2676: real time    0.2682
 BZINTS: Fermi energy:  9.622660; 28.000000 electrons
         Band energy:-399.267417;  BLOECHL correction: -0.034704
       DOS:  cpu time    0.0321: real time    0.0321
    --------------------------------------------
      LOOP:  cpu time    0.3106: real time    0.3120

 eigenvalue-minimisations  :  1680
 total energy-change (2. order) : 0.8985808E-08  (-0.1162239E-08)
 number of electron      27.9999999 magnetization       4.4053712
 augmentation part       16.8356391 magnetization       3.4844238

 Free energy of the ion-electron system (eV)
  ---------------------------------------------------
  alpha Z        PSCENC =       218.87048721
  Ewald energy   TEWEN  =     -3616.56080017
  -Hartree energ DENC   =     -1089.90329999
  -exchange      EXHF   =         0.00000000
  -V(xc)+E(xc)   XCENC  =       140.87660767
  PAW double counting   =      4375.54619574    -4560.91325141
  entropy T*S    EENTRO =         0.00000000
  eigenvalues    EBANDS =      -399.26741653
  atomic energy  EATOM  =      4914.83610837
  Solvation  Ediel_sol  =         0.00000000
  ---------------------------------------------------
  free energy    TOTEN  =       -16.51536910 eV

  energy without entropy =      -16.51536910  energy(sigma->0) =      -16.51536910


--------------------------------------------------------------------------------------------------------




 average (electrostatic) potential at core
  the test charge radii are     0.9500
  (the norm of the test charge is              1.0000)
       1 -73.6654       2 -73.6654
 
 
 
 E-fermi :   9.6227     XC(G=0): -13.6245     alpha+bet :-17.4163


 spin component 1

 k-point     1 :       0.0500    0.0500    0.0500
  band No.  band energies     occupation 
      1     -44.5601      1.00000
      2     -44.5601      1.00000
      3     -44.5458      1.00000
      4     -44.2891      1.00000
      5     -44.2743      1.00000
      6     -44.2743      1.00000
      7       1.3980      1.00000
      8       4.9383      1.00000
      9       4.9383      1.00000
     10       7.3048      1.00000
     11       7.3048      1.00000
     12       7.4309      1.00000
     13       8.5805      1.00000
     14       8.5805      1.00000
     15       9.4948      1.00000
     16       9.6872      0.60065
     17       9.6872      0.00978
     18      19.1992      0.00000
     19      19.1992      0.00000
     20      19.4412      0.00000
     21      25.8101      0.00000
     22      25.8101      0.00000
     23      30.6976      0.00000
     24      33.3488      0.00000

 k-point     2 :       0.1500    0.0500    0.0500
  band No.  band energies     occupation 
      1     -44.5661      1.00000
      2     -44.5453      1.00000
      3     -44.5237      1.00000
      4     -44.3208      1.00000
      5     -44.2875      1.00000
      6     -44.2798      1.00000
      7       1.8017      1.00000
      8       5.1062      1.00000
      9       5.1084      1.00000
     10       7.2463      1.00000
     11       7.2946      1.00000
     12       7.5991      1.00000
     13       8.4143      1.00000
     14       8.6555      1.00000
     15       9.1041      1.00000
     16       9.3725      1.02104
     17       9.6657      0.13598
     18      17.0985      0.00000
     19      19.9182      0.00000
     20      20.0953      0.00000
     21      25.9617      0.00000
     22      27.1438      0.00000
     23      31.5525      0.00000
     24      32.1501      0.00000

 k-point     3 :       0.2500    0.0500    0.0500
  band No.  band energies     occupation 
      1     -44.5633      1.00000
      2     -44.5175      1.00000
      3     -44.4930      1.00000
      4     -44.3685      1.00000
      5     -44.3129      1.00000
      6     -44.2999      1.00000
      7       2.5671      1.00000
      8       5.3675      1.00000
      9       5.4275      1.00000
     10       7.2424      1.00000
     11       7.2874      1.00000
     12       7.8416      1.00000
     13       8.1079      1.00000
     14       8.6066      1.00000
     15       8.7948      1.00000
     16       8.8889      1.00000
     17       9.4859      1.03907
     18      14.5754      0.00000
     19      21.1874      0.00000
     20      21.3582      0.00000
     21      26.2944      0.00000
     22      27.9718      0.00000
     23      29.6287      0.00000
     24      31.2959      0.00000

 k-point     4 :       0.3500    0.0500    0.0500
  band No.  band energies     occupation 
      1     -44.5489      1.00000
      2     -44.4797      1.00000
      3     -44.4550      1.00000
      4     -44.4238      1.00000
      5     -44.3483      1.00000
      6     -44.3312      1.00000
      7       3.5892      1.00000
      8       5.5401      1.00000
      9       5.8725      1.00000
     10       7.2458      1.00000
     11       7.3213      1.00000
     12       7.7680      1.00000
     13       8.1303      1.00000
     14       8.1503      1.00000
     15       8.3929      1.00000
     16       9.0193      1.00000
     17       9.2003      1.03868
     18      12.2831      0.00000
     19      22.7942      0.00000
     20      23.0070      0.00000
     21      26.8753      0.00000
     22      27.8747      0.00000
     23      28.6105      0.00000
     24      29.1473      0.00000

 k-point     5 :       0.4500    0.0500    0.0500
  band No.  band energies     occupation 
      1     -44.5200      1.00000
      2     -44.4770      1.00000
      3     -44.4358      1.00000
      4     -44.4128      1.00000
      5     -44.3906      1.00000
      6     -44.3702      1.00000
      7       4.6409      1.00000
      8       5.3580      1.00000
      9       6.3947      1.00000
     10       6.9175      1.00000
     11       7.4991      1.00000
     12       7.7311      1.00000
     13       7.7625      1.00000
     14       7.9855      1.00000
     15       8.4991      1.00000
     16       8.8574      1.00000
     17       9.4833      0.98551
     18      10.5196      0.00000
     19      24.5321      0.00000
     20      24.9043      0.00000
     21      26.2265      0.00000
     22      26.9670      0.00000
     23      27.8210      0.00000
     24      29.2506      0.00000

 k-point     6 :       0.1500    0.1500    0.0500
  band No.  band energies     occupation 
      1     -44.5802      1.00000
      2     -44.5366      1.00000
      3     -44.4914      1.00000
      4     -44.3623      1.00000
      5     -44.2978      1.00000
      6     -44.2744      1.00000
      7       2.1895      1.00000
      8       5.2391      1.00000
      9       5.2979      1.00000
     10       7.0937      1.00000
     11       7.2374      1.00000
     12       7.8700      1.00000
     13       8.4387      1.00000
     14       8.6107      1.00000
     15       8.6246      1.00000
     16       9.1496      1.00691
     17       9.7348      0.03131
     18      17.1956      0.00000
     19      18.2807      0.00000
     20      20.6505      0.00000
     21      26.6282      0.00000
     22      28.5392      0.00000
     23      29.9219      0.00000
     24      31.9694      0.00000

 k-point     7 :       0.2500    0.1500    0.0500
  band No.  band energies     occupation 
      1     -44.5894      1.00000
      2     -44.5110      1.00000
      3     -44.4536      1.00000
      4     -44.4170      1.00000
      5     -44.3207      1.00000
      6     -44.2818      1.00000
      7       2.9158      1.00000
      8       5.4554      1.00000
      9       5.6206      1.00000
     10       6.9882      1.00000
     11       7.1824      1.00000
     12       8.1057      1.00000
     13       8.2002      1.00000
     14       8.2826      1.00000
     15       8.7216      1.00000
     16       8.7245      1.00000
     17       9.6886      0.28901
     18      14.9836      0.00000
     19      19.0118      0.00000
     20      21.7953      0.00000
     21      27.0198      0.00000
     22      27.7476      0.00000
     23      29.9238      0.00000
     24      30.6412      0.00000

 k-point     8 :       0.3500    0.1500    0.0500
  band No.  band energies     occupation 
      1     -44.5853      1.00000
      2     -44.4755      1.00000
      3     -44.4748      1.00000
      4     -44.4129      1.00000
      5     -44.3532      1.00000
      6     -44.3028      1.00000
      7       3.8579      1.00000
      8       5.5954      1.00000
      9       6.0116      1.00000
     10       6.9645      1.00000
     11       7.1189      1.00000
     12       7.6670      1.00000
     13       8.0932      1.00000
     14       8.3377      1.00000
     15       8.5643      1.00000
     16       8.9633      1.00000
     17       9.4968      0.92384
     18      12.6531      0.00000
     19      20.3759      0.00000
     20      23.3118      0.00000
     21      25.6602      0.00000
     22      27.5889      0.00000
     23      28.7790      0.00000
     24      30.9263      0.00000

 k-point     9 :       0.4500    0.1500    0.0500
  band No.  band energies     occupation 
      1     -44.5644      1.00000
      2     -44.5263      1.00000
      3     -44.4345      1.00000
      4     -44.3923      1.00000
      5     -44.3719      1.00000
      6     -44.3340      1.00000
      7       4.7816      1.00000
      8       5.4044      1.00000
      9       6.4367      1.00000
     10       6.8150      1.00000
     11       7.1497      1.00000
     12       7.3556      1.00000
     13       8.0550      1.00000
     14       8.1285      1.00000
     15       8.8894      1.00000
     16       9.2082      1.00000
     17       9.5412      0.77847
     18      10.7643      0.00000
     19      21.9647      0.00000
     20      23.7290      0.00000
     21      25.0471      0.00000
     22      26.8829      0.00000
     23      28.4945      0.00000
     24      29.8472      0.00000

 k-point    10 :       0.2500    0.2500    0.0500
  band No.  band energies     occupation 
      1     -44.6126      1.00000
      2     -44.4903      1.00000
      3     -44.4767      1.00000
      4     -44.4107      1.00000
      5     -44.3385      1.00000
      6     -44.2744      1.00000
      7       3.5387      1.00000
      8       5.5104      1.00000
      9       6.0141      1.00000
     10       6.7714      1.00000
     11       7.1537      1.00000
     12       7.5987      1.00000
     13       8.4264      1.00000
     14       8.4288      1.00000
     15       8.6230      1.00000
     16       8.6649      1.00000
     17       9.8080     -0.03398
     18      14.8627      0.00000
     19      17.4657      0.00000
     20      22.7545      0.00000
     21      25.3832      0.00000
     22      27.3661      0.00000
     23      30.0595      0.00000
     24      32.3850      0.00000

 k-point    11 :       0.3500    0.2500    0.0500
  band No.  band energies     occupation 
      1     -44.6218      1.00000
      2     -44.5349      1.00000
      3     -44.4615      1.00000
      4     -44.3691      1.00000
      5     -44.3639      1.00000
      6     -44.2817      1.00000
      7       4.2634      1.00000
      8       5.4677      1.00000
      9       6.4672      1.00000
     10       6.6639      1.00000
     11       7.1893      1.00000
     12       7.2435      1.00000
     13       8.2728      1.00000
     14       8.4047      1.00000
     15       8.8098      1.00000
     16       9.0698      1.02188
     17       9.7580      0.00391
     18      13.0480      0.00000
     19      18.1034      0.00000
     20      23.1677      0.00000
     21      24.0659      0.00000
     22      27.8479      0.00000
     23      28.7850      0.00000
     24      31.4417      0.00000

 k-point    12 :       0.4500    0.2500    0.0500
  band No.  band energies     occupation 
      1     -44.6121      1.00000
      2     -44.5822      1.00000
      3     -44.4284      1.00000
      4     -44.3948      1.00000
      5     -44.3319      1.00000
      6     -44.3017      1.00000
      7       4.8665      1.00000
      8       5.2596      1.00000
      9       6.6822      1.00000
     10       6.7708      1.00000
     11       7.0121      1.00000
     12       7.2242      1.00000
     13       8.3125      1.00000
     14       8.3954      1.00000
     15       9.1812      1.00000
     16       9.5469      0.95169
     17       9.7287      0.02977
     18      11.1092      0.00000
     19      19.4887      0.00000
     20      21.1930      0.00000
     21      25.5956      0.00000
     22      27.2066      0.00000
     23      28.6468      0.00000
     24      29.8689      0.00000

 k-point    13 :       0.3500    0.3500    0.0500
  band No.  band energies     occupation 
      1     -44.6449      1.00000
      2     -44.5894      1.00000
      3     -44.4422      1.00000
      4     -44.3794      1.00000
      5     -44.3308      1.00000
      6     -44.2746      1.00000
      7       4.6031      1.00000
      8       5.2500      1.00000
      9       6.4672      1.00000
     10       6.7900      1.00000
     11       7.0688      1.00000
     12       7.8003      1.00000
     13       8.3289      1.00000
     14       8.5820      1.00000
     15       8.7314      1.00000
     16       9.5046      0.96282
     17       9.8585     -0.00496
     18      12.6723      0.00000
     19      17.0753      0.00000
     20      20.9324      0.00000
     21      25.1099      0.00000
     22      28.2077      0.00000
     23      28.4079      0.00000
     24      30.7487      0.00000

 k-point    14 :       0.4500    0.3500    0.0500
  band No.  band energies     occupation 
      1     -44.6482      1.00000
      2     -44.6291      1.00000
      3     -44.4204      1.00000
      4     -44.3987      1.00000
      5     -44.3008      1.00000
      6     -44.2814      1.00000
      7       4.8276      1.00000
      8       5.0273      1.00000
      9       6.4159      1.00000
     10       6.5252      1.00000
     11       7.6335      1.00000
     12       8.0155      1.00000
     13       8.4771      1.00000
     14       8.6083      1.00000
     15       9.2344      1.00000
     16       9.7475      0.31689
     17      10.0490      0.00000
     18      11.2872      0.00000
     19      17.6522      0.00000
     20      19.0564      0.00000
     21      26.3159      0.00000
     22      27.4990      0.00000
     23      28.8182      0.00000
     24      29.7270      0.00000

 k-point    15 :       0.4500    0.4500    0.0500
  band No.  band energies     occupation 
      1     -44.6649      1.00000
      2     -44.6583      1.00000
      3     -44.4120      1.00000
      4     -44.4046      1.00000
      5     -44.2813      1.00000
      6     -44.2746      1.00000
      7       4.7954      1.00000
      8       4.8569      1.00000
      9       6.2865      1.00000
     10       6.3241      1.00000
     11       8.3605      1.00000
     12       8.5984      1.00000
     13       8.6194      1.00000
     14       8.7803      1.00000
     15       9.2761      1.00000
     16       9.7025      0.28332
     17      10.4350      0.00000
     18      10.9855      0.00000
     19      16.9430      0.00000
     20      17.5290      0.00000
     21      27.0343      0.00000
     22      27.4878      0.00000
     23      29.0846      0.00000
     24      29.4297      0.00000

 k-point    16 :       0.1500    0.1500    0.1500
  band No.  band energies     occupation 
      1     -44.5644      1.00000
      2     -44.5644      1.00000
      3     -44.4556      1.00000
      4     -44.3998      1.00000
      5     -44.2885      1.00000
      6     -44.2885      1.00000
      7       2.5667      1.00000
      8       5.4264      1.00000
      9       5.4264      1.00000
     10       7.0362      1.00000
     11       7.0362      1.00000
     12       8.0860      1.00000
     13       8.1861      1.00000
     14       8.5282      1.00000
     15       8.5282      1.00000
     16       9.4249      0.99979
     17       9.4249      1.11222
     18      17.8409      0.00000
     19      17.8409      0.00000
     20      19.2368      0.00000
     21      28.7873      0.00000
     22      28.7873      0.00000
     23      29.7385      0.00000
     24      29.7385      0.00000

 k-point    17 :       0.2500    0.1500    0.1500
  band No.  band energies     occupation 
      1     -44.5847      1.00000
      2     -44.5347      1.00000
      3     -44.4512      1.00000
      4     -44.4175      1.00000
      5     -44.3157      1.00000
      6     -44.2880      1.00000
      7       3.2654      1.00000
      8       5.6656      1.00000
      9       5.6997      1.00000
     10       6.9036      1.00000
     11       6.9349      1.00000
     12       7.5732      1.00000
     13       8.3825      1.00000
     14       8.5850      1.00000
     15       8.6828      1.00000
     16       8.9720      1.00000
     17       9.5063      0.95257
     18      15.4699      0.00000
     19      18.9548      0.00000
     20      19.8766      0.00000
     21      27.5255      0.00000
     22      28.5414      0.00000
     23      29.3029      0.00000
     24      30.5091      0.00000

 k-point    18 :       0.3500    0.1500    0.1500
  band No.  band energies     occupation 
      1     -44.5908      1.00000
      2     -44.5041      1.00000
      3     -44.4943      1.00000
      4     -44.3807      1.00000
      5     -44.3537      1.00000
      6     -44.2986      1.00000
      7       4.1486      1.00000
      8       5.8192      1.00000
      9       5.9788      1.00000
     10       6.7953      1.00000
     11       6.9294      1.00000
     12       7.2680      1.00000
     13       8.2262      1.00000
     14       8.5459      1.00000
     15       8.8083      1.00000
     16       9.1280      1.00000
     17       9.4068      0.92701
     18      13.1242      0.00000
     19      20.3545      0.00000
     20      21.0649      0.00000
     21      25.4922      0.00000
     22      26.4576      0.00000
     23      30.1152      0.00000
     24      31.4556      0.00000

 k-point    19 :       0.4500    0.1500    0.1500
  band No.  band energies     occupation 
      1     -44.5792      1.00000
      2     -44.5492      1.00000
      3     -44.4474      1.00000
      4     -44.3990      1.00000
      5     -44.3471      1.00000
      6     -44.3191      1.00000
      7       4.9802      1.00000
      8       5.5622      1.00000
[...]
     19      18.3220      0.00000
     20      20.7968      0.00000
     21      22.3834      0.00000
     22      24.8362      0.00000
     23      26.2502      0.00000
     24      30.1358      0.00000

 k-point    30 :       0.4500    0.3500    0.2500
  band No.  band energies     occupation 
      1     -42.0274      1.00000
      2     -42.0271      1.00000
      3     -41.8759      1.00000
      4     -41.8246      1.00000
      5     -41.7184      1.00000
      6     -41.7141      1.00000
      7       6.7326      1.00000
      8       7.0449      1.00000
      9       7.9674      1.00000
     10       7.9782      1.00000
     11       8.3643      1.00000
     12       8.4911      1.00000
     13      11.1842      0.00000
     14      11.2348      0.00000
     15      11.5151      0.00000
     16      11.5334      0.00000
     17      13.8173      0.00000
     18      14.8897      0.00000
     19      19.1260      0.00000
     20      20.5766      0.00000
     21      21.9126      0.00000
     22      23.4379      0.00000
     23      26.7657      0.00000
     24      28.2361      0.00000

 k-point    31 :       0.4500    0.4500    0.2500
  band No.  band energies     occupation 
      1     -42.0352      1.00000
      2     -42.0346      1.00000
      3     -41.8565      1.00000
      4     -41.8357      1.00000
      5     -41.7248      1.00000
      6     -41.7210      1.00000
      7       6.8528      1.00000
      8       6.9333      1.00000
      9       7.8846      1.00000
     10       7.8995      1.00000
     11       8.6610      1.00000
     12       8.7302      1.00000
     13      11.3010      0.00000
     14      11.3257      0.00000
     15      11.5265      0.00000
     16      11.5391      0.00000
     17      14.4940      0.00000
     18      15.0168      0.00000
     19      18.3895      0.00000
     20      19.0492      0.00000
     21      23.0059      0.00000
     22      24.1212      0.00000
     23      25.2325      0.00000
     24      26.3289      0.00000

 k-point    32 :       0.3500    0.3500    0.3500
  band No.  band energies     occupation 
      1     -42.0114      1.00000
      2     -41.9611      1.00000
      3     -41.9611      1.00000
      4     -41.7724      1.00000
      5     -41.7724      1.00000
      6     -41.7223      1.00000
      7       6.9261      1.00000
      8       7.5003      1.00000
      9       7.9276      1.00000
     10       7.9276      1.00000
     11       8.0740      1.00000
     12       8.0740      1.00000
     13      11.3765      0.00000
     14      11.3765      0.00000
     15      11.4153      0.00000
     16      11.4153      0.00000
     17      13.8656      0.00000
     18      17.4972      0.00000
     19      17.4972      0.00000
     20      19.8862      0.00000
     21      22.8235      0.00000
     22      22.8235      0.00000
     23      24.1455      0.00000
     24      28.0394      0.00000

 k-point    33 :       0.4500    0.3500    0.3500
  band No.  band energies     occupation 
      1     -42.0060      1.00000
      2     -41.9902      1.00000
      3     -41.8983      1.00000
      4     -41.8333      1.00000
      5     -41.7561      1.00000
      6     -41.7373      1.00000
      7       7.2797      1.00000
      8       7.3820      1.00000
      9       7.8721      1.00000
     10       7.9205      1.00000
     11       8.0466      1.00000
     12       8.2169      1.00000
     13      11.3598      0.00000
     14      11.3850      0.00000
     15      11.5029      0.00000
     16      11.5141      0.00000
     17      14.8064      0.00000
     18      16.0277      0.00000
     19      19.1307      0.00000
     20      20.4295      0.00000
     21      20.9114      0.00000
     22      21.6692      0.00000
     23      24.5505      0.00000
     24      26.0865      0.00000

 k-point    34 :       0.4500    0.4500    0.3500
  band No.  band energies     occupation 
      1     -41.9888      1.00000
      2     -41.9776      1.00000
      3     -41.8846      1.00000
      4     -41.8483      1.00000
      5     -41.7787      1.00000
      6     -41.7641      1.00000
      7       7.4282      1.00000
      8       7.4419      1.00000
      9       7.8023      1.00000
     10       7.8453      1.00000
     11       8.1728      1.00000
     12       8.2611      1.00000
     13      11.4437      0.00000
     14      11.4545      0.00000
     15      11.5334      0.00000
     16      11.5377      0.00000
     17      15.8061      0.00000
     18      16.5885      0.00000
     19      18.5408      0.00000
     20      19.5005      0.00000
     21      21.0123      0.00000
     22      22.1184      0.00000
     23      22.9689      0.00000
     24      24.1590      0.00000

 k-point    35 :       0.4500    0.4500    0.4500
  band No.  band energies     occupation 
      1     -41.9440      1.00000
      2     -41.9115      1.00000
      3     -41.9115      1.00000
      4     -41.8430      1.00000
      5     -41.8430      1.00000
      6     -41.8104      1.00000
      7       7.6624      1.00000
      8       7.8090      1.00000
      9       7.8090      1.00000
     10       7.9079      1.00000
     11       7.9531      1.00000
     12       7.9531      1.00000
     13      11.5394      0.00000
     14      11.5394      0.00000
     15      11.5424      0.00000
     16      11.5424      0.00000
     17      17.1204      0.00000
     18      18.3146      0.00000
     19      18.3146      0.00000
     20      20.0016      0.00000
     21      20.1675      0.00000
     22      20.1675      0.00000
     23      21.5175      0.00000
     24      22.3093      0.00000


--------------------------------------------------------------------------------------------------------


 soft charge-density along one line, spin component           1
         0         1         2         3         4         5         6         7         8         9
 total charge-density along one line
 
 soft charge-density along one line, spin component           2
         0         1         2         3         4         5         6         7         8         9
 total charge-density along one line
 
 pseudopotential strength for first ion, spin component:           1
-44.858  -0.000  -0.000   7.570   0.000   0.000   0.000   0.000
 -0.000 -44.858   0.000   0.000   7.570  -0.000   0.000   0.000
 -0.000   0.000 -44.858   0.000  -0.000   7.570   0.000   0.000
  7.570   0.000   0.000   5.638  -0.000  -0.000  -0.000  -0.000
  0.000   7.570  -0.000  -0.000   5.638  -0.000  -0.000  -0.000
  0.000  -0.000   7.570  -0.000  -0.000   5.638  -0.000  -0.000
  0.000   0.000   0.000  -0.000  -0.000  -0.000  -1.981   0.000
  0.000   0.000   0.000  -0.000  -0.000  -0.000   0.000  -1.981
 -0.000   0.000  -0.000   0.000  -0.000  -0.000   0.000  -0.000
  0.000   0.000   0.000  -0.000   0.000  -0.000   0.000  -0.000
 -0.000   0.000  -0.000   0.000  -0.000   0.000   0.000   0.000
  0.000   0.000   0.000  -0.000  -0.000  -0.000  -2.496   0.000
  0.000   0.000   0.000  -0.000  -0.000  -0.000   0.000  -2.496
 -0.000   0.000   0.000   0.000  -0.000  -0.000   0.000  -0.000
  0.000  -0.000   0.000  -0.000  -0.000  -0.000   0.000  -0.000
 -0.000   0.000   0.000   0.000  -0.000   0.000   0.000   0.000
 -0.000  -0.000   0.000  -0.000  -0.000   0.000   0.000   0.000
 -0.000  -0.000   0.000  -0.000  -0.000  -0.000   0.000   0.000
 pseudopotential strength for first ion, spin component:           2
-42.886  -0.000  -0.000   6.737  -0.000   0.000   0.000   0.000
 -0.000 -42.886   0.000  -0.000   6.737  -0.000   0.000   0.000
 -0.000   0.000 -42.886   0.000  -0.000   6.737   0.000   0.000
  6.737  -0.000   0.000   5.866   0.000   0.000  -0.000  -0.000
 -0.000   6.737  -0.000   0.000   5.866  -0.000  -0.000  -0.000
  0.000  -0.000   6.737   0.000  -0.000   5.866  -0.000  -0.000
  0.000   0.000   0.000  -0.000  -0.000  -0.000  -0.455   0.000
  0.000   0.000   0.000  -0.000  -0.000  -0.000   0.000  -0.455
 -0.000   0.000  -0.000   0.000  -0.000   0.000   0.000  -0.000
  0.000   0.000   0.000  -0.000   0.000  -0.000   0.000  -0.000
 -0.000   0.000   0.000   0.000  -0.000  -0.000   0.000   0.000
  0.000   0.000   0.000  -0.000  -0.000  -0.000  -0.995   0.000
  0.000   0.000   0.000  -0.000  -0.000  -0.000   0.000  -0.995
 -0.000   0.000  -0.000   0.000  -0.000   0.000   0.000  -0.000
  0.000   0.000   0.000  -0.000  -0.000  -0.000   0.000  -0.000
 -0.000   0.000   0.000   0.000  -0.000   0.000   0.000   0.000
 -0.000  -0.000   0.000  -0.000  -0.000  -0.000   0.000  -0.000
 -0.000  -0.000  -0.000  -0.000  -0.000  -0.000   0.000  -0.000
 total augmentation occupancy for first ion, spin component:           1
  1.992   0.000   0.000  -0.027  -0.000  -0.000   0.000   0.000   0.000  -0.000   0.000   0.000   0.000   0.000   0.000  -0.000
  0.000   1.992   0.000   0.000  -0.027   0.000  -0.000   0.000   0.000   0.000   0.000   0.000   0.000   0.000   0.000   0.000
  0.000   0.000   1.992   0.000  -0.000  -0.027   0.000  -0.000   0.000   0.000   0.000   0.000  -0.000  -0.000   0.000   0.000
 -0.027  -0.000  -0.000   0.201   0.000   0.000   0.000   0.000  -0.000   0.000   0.000   0.000   0.000   0.000   0.000   0.000
 -0.000  -0.027  -0.000  -0.000   0.201  -0.000   0.000  -0.000   0.000   0.000   0.000   0.000   0.000   0.000   0.000   0.000
  0.000  -0.000  -0.027   0.000   0.000   0.201   0.000   0.000   0.000   0.000   0.000   0.000   0.000   0.000   0.000  -0.000
  0.000  -0.000   0.000   0.000   0.000  -0.000   2.170   0.000  -0.000  -0.000  -0.000  -1.222   0.000  -0.000  -0.000  -0.000
  0.000   0.000  -0.000   0.000   0.000   0.000   0.000   2.170  -0.000  -0.000   0.000  -0.000  -1.222   0.000   0.000   0.000
 -0.000   0.000  -0.000  -0.000   0.000  -0.000  -0.000   0.000   3.410   0.000  -0.000   0.000   0.000  -2.185  -0.000  -0.000
 -0.000   0.000   0.000   0.000   0.000   0.000  -0.000   0.000   0.000   2.170  -0.000  -0.000   0.000   0.000  -1.222   0.000
  0.000   0.000   0.000  -0.000   0.000   0.000  -0.000  -0.000  -0.000  -0.000   3.410   0.000  -0.000   0.000   0.000  -2.185
  0.000  -0.000   0.000   0.000   0.000   0.000  -1.222   0.000  -0.000   0.000   0.000   1.649   0.000  -0.000   0.000   0.000
  0.000   0.000   0.000   0.000   0.000   0.000  -0.000  -1.222   0.000  -0.000   0.000   0.000   1.649  -0.000  -0.000  -0.000
  0.000   0.000  -0.000  -0.000   0.000  -0.000   0.000   0.000  -2.185   0.000   0.000  -0.000   0.000   2.224   0.000   0.000
 -0.000   0.000   0.000   0.000   0.000   0.000   0.000  -0.000  -0.000  -1.222   0.000  -0.000   0.000  -0.000   1.649   0.000
  0.000   0.000   0.000   0.000   0.000   0.000   0.000  -0.000   0.000   0.000  -2.185   0.000  -0.000   0.000  -0.000   2.224
  0.000   0.000   0.000   0.000   0.000   0.000   0.000  -0.000  -0.000  -0.000   0.000  -0.000  -0.000   0.000  -0.000   0.000
 -0.000  -0.000  -0.000  -0.000  -0.000  -0.000  -0.000  -0.000  -0.000  -0.000  -0.000   0.000   0.000  -0.000   0.000  -0.000
 total augmentation occupancy for first ion, spin component:           2
 -0.002   0.000   0.000  -0.009  -0.000   0.000   0.000   0.000   0.000  -0.000   0.000   0.000   0.000  -0.000  -0.000   0.000
  0.000  -0.002   0.000   0.000  -0.009   0.000   0.000   0.000   0.000   0.000   0.000   0.000   0.000   0.000   0.000   0.000
  0.000   0.000  -0.002   0.000  -0.000  -0.009   0.000   0.000   0.000   0.000   0.000   0.000  -0.000  -0.000   0.000  -0.000
 -0.009   0.000  -0.000  -0.020   0.000   0.000  -0.000  -0.000   0.000  -0.000  -0.000   0.000   0.000   0.000   0.000  -0.000
  0.000  -0.009  -0.000   0.000  -0.020  -0.000   0.000   0.000   0.000  -0.000  -0.000   0.000   0.000   0.000   0.000  -0.000
  0.000   0.000  -0.009   0.000  -0.000  -0.020  -0.000  -0.000   0.000  -0.000  -0.000   0.000   0.000   0.000   0.000  -0.000
  0.000   0.000   0.000  -0.000   0.000   0.000   1.761   0.000   0.000  -0.000   0.000  -0.663  -0.000   0.000  -0.000   0.000
  0.000   0.000   0.000  -0.000   0.000  -0.000   0.000   1.761   0.000  -0.000  -0.000   0.000  -0.663   0.000   0.000   0.000
  0.000   0.000   0.000  -0.000   0.000  -0.000   0.000   0.000   2.825   0.000   0.000   0.000  -0.000  -1.166   0.000  -0.000
 -0.000   0.000   0.000   0.000  -0.000  -0.000   0.000  -0.000   0.000   1.761   0.000   0.000   0.000  -0.000  -0.663  -0.000
  0.000   0.000   0.000   0.000   0.000   0.000  -0.000  -0.000   0.000   0.000   2.825   0.000  -0.000   0.000  -0.000  -1.166
  0.000  -0.000   0.000   0.000   0.000   0.000  -0.663  -0.000  -0.000   0.000   0.000  -0.005  -0.000  -0.000  -0.000  -0.000
  0.000   0.000   0.000   0.000   0.000   0.000  -0.000  -0.663  -0.000   0.000  -0.000   0.000  -0.005  -0.000  -0.000   0.000
  0.000   0.000  -0.000   0.000   0.000   0.000  -0.000  -0.000  -1.166  -0.000   0.000   0.000  -0.000   0.241   0.000  -0.000
 -0.000   0.000   0.000   0.000   0.000   0.000   0.000   0.000   0.000  -0.663  -0.000   0.000  -0.000   0.000  -0.005   0.000
 -0.000   0.000   0.000   0.000  -0.000   0.000  -0.000   0.000   0.000  -0.000  -1.166  -0.000  -0.000  -0.000   0.000   0.241
 -0.000  -0.000   0.000   0.000   0.000   0.000  -0.000   0.000  -0.000   0.000  -0.000  -0.000   0.000   0.000   0.000  -0.000
  0.000   0.000   0.000   0.000   0.000   0.000   0.000  -0.000  -0.000   0.000  -0.000   0.000   0.000   0.000  -0.000   0.000


------------------------ aborting loop because EDIFF is reached ----------------------------------------


 


 total charge     
 
# of ion       s       p       d       tot
------------------------------------------
    1        0.385   6.378   6.074  12.837
    2        0.385   6.378   6.074  12.837
--------------------------------------------------
tot          0.770  12.755  12.149  25.674
 


 magnetization (x)
 
# of ion       s       p       d       tot
------------------------------------------
    1       -0.008  -0.042   2.292   2.242
    2       -0.008  -0.042   2.292   2.242
--------------------------------------------------
tot         -0.016  -0.083   4.583   4.485
 
    CHARGE:  cpu time    0.0134: real time    0.0135
    FORLOC:  cpu time    0.0001: real time    0.0001
    FORNL :  cpu time    0.0712: real time    0.0714
    STRESS:  cpu time    0.2119: real time    0.2125
    FORCOR:  cpu time    0.0055: real time    0.0055
    FORHAR:  cpu time    0.0008: real time    0.0008
    MIXING:  cpu time    0.0005: real time    0.0005
    OFIELD:  cpu time    0.0000: real time    0.0001

  FORCE on cell =-STRESS in cart. coord.  units (eV):
  Direction    XX          YY          ZZ          XY          YZ          ZX
  --------------------------------------------------------------------------------------
  Alpha Z   218.87049   218.87049   218.87049
  Ewald   -1205.52018 -1205.52018 -1205.52018    -0.00000    -0.00000    -0.00000
  Hartree   363.30113   363.30113   363.30113    -0.00000    -0.00000    -0.00000
  E(xc)    -179.77973  -179.77973  -179.77973     0.00000    -0.00000    -0.00000
  Local     289.63841   289.63841   289.63841    -0.00000     0.00000    -0.00000
  n-local   -60.13715   -54.12786   -50.52936     2.76517    -1.55494     0.58466
  augment   285.44905   285.44905   285.44905    -0.00000     0.00000     0.00000
  Kinetic   283.95513   282.50702   281.78241     2.93274    -0.74319    -0.06518
  Fock        0.00000     0.00000     0.00000     0.00000     0.00000     0.00000
  -------------------------------------------------------------------------------------
  Total      -0.22410    -0.22410    -0.22410     0.00000    -0.00000     0.00000
  in kB     -15.67346   -15.67346   -15.67346     0.00000    -0.00000     0.00000
  external pressure =      -15.67 kB  Pullay stress =        0.00 kB


 VOLUME and BASIS-vectors are now :
 -----------------------------------------------------------------------------
  energy-cutoff  :      580.00
  volume of cell :       22.91
      direct lattice vectors                 reciprocal lattice vectors
     2.840052000  0.000000000  0.000000000     0.352106229  0.000000000  0.000000000
     0.000000000  2.840052000  0.000000000     0.000000000  0.352106229  0.000000000
     0.000000000  0.000000000  2.840052000     0.000000000  0.000000000  0.352106229

  length of vectors
     2.840052000  2.840052000  2.840052000     0.352106229  0.352106229  0.352106229


 FORCES acting on ions
    electron-ion (+dipol)            ewald-force                    non-local-force                 convergence-correction
 -----------------------------------------------------------------------------------------------
   0.136E-13 -.285E-13 -.506E-13   -.529E-15 -.103E-14 -.897E-14   0.000E+00 0.000E+00 0.000E+00   -.169E-13 0.941E-14 -.198E-13
   0.840E-12 0.136E-11 -.580E-11   0.472E-14 0.447E-14 0.926E-14   0.000E+00 0.000E+00 0.000E+00   -.246E-13 0.164E-13 0.137E-13
 -----------------------------------------------------------------------------------------------
   0.854E-12 0.133E-11 -.585E-11   0.419E-14 0.343E-14 0.284E-15   0.000E+00 0.000E+00 0.000E+00   -.415E-13 0.258E-13 -.617E-14
 
 
 POSITION                                       TOTAL-FORCE (eV/Angst)
 -----------------------------------------------------------------------------------
      0.00000      0.00000      0.00000         0.000000      0.000000      0.000000
      1.42003      1.42003      1.42003        -0.000000     -0.000000     -0.000000
 -----------------------------------------------------------------------------------
    total drift:                                0.000000      0.000000     -0.000000


--------------------------------------------------------------------------------------------------------



  FREE ENERGIE OF THE ION-ELECTRON SYSTEM (eV)
  ---------------------------------------------------
  free  energy   TOTEN  =       -16.51536910 eV

  energy  without entropy=      -16.51536910  energy(sigma->0) =      -16.51536910
 


--------------------------------------------------------------------------------------------------------


    POTLOK:  cpu time    0.0105: real time    0.0105


--------------------------------------------------------------------------------------------------------


     LOOP+:  cpu time    7.4301: real time    7.4580
    4ORBIT:  cpu time    0.0000: real time    0.0000
 


 total charge     
 
# of ion       s       p       d       tot
------------------------------------------
    1        0.385   6.378   6.074  12.837
    2        0.385   6.378   6.074  12.837
--------------------------------------------------
tot          0.770  12.755  12.149  25.674
 


 magnetization (x)
 
# of ion       s       p       d       tot
------------------------------------------
    1       -0.008  -0.042   2.292   2.242
    2       -0.008  -0.042   2.292   2.242
--------------------------------------------------
tot         -0.016  -0.083   4.583   4.485
 
 BZINTS: Fermi energy:  9.622660; 28.000000 electrons
         Band energy:-399.267417;  BLOECHL correction: -0.034704

 total amount of memory used by VASP MPI-rank0    32475. kBytes
=======================================================================

   base      :      30000. kBytes
   nonlr-proj:        647. kBytes
   fftplans  :        261. kBytes
   grid      :        623. kBytes
   one-center:         31. kBytes
   wavefun   :        913. kBytes
 
  
  
 General timing and accounting informations for this job:
 ========================================================
  
                  Total CPU time used (sec):        8.160
                            User time (sec):        7.998
                          System time (sec):        0.163
                         Elapsed time (sec):        8.207
  
                   Maximum memory used (kb):       57320.
                   Average memory used (kb):           0.
  
                          Minor page faults:        13174
                          Major page faults:            0
                 Voluntary context switches:          160
