=========================================
SLURM_JOB_ID = 51752959
SLURM_JOB_NODELIST = lnode20
SLURM_GPUS = 
SLURM_CPUS_ON_NODE = 24
SLURM_JOB_PARTITION = lenovo
SLURM_TASK_PID = 616663
CUDA_VISIBLE_DEVICES = 
==========================================
 running on   24 total cores
 distrk:  each k-point on   24 cores,    1 groups
 distr:  one band on    4 cores,    6 groups
 using from now: INCAR     
 vasp.5.4.4.18Apr17-6-g9f103f2a35 (build Apr 28 2018 00:24:27) complex          
  
 POSCAR found type information on POSCAR  Fe
 POSCAR found :  1 types and       2 ions
 scaLAPACK will be used

 ----------------------------------------------------------------------------- 
|                                                                             |
|  ADVICE TO THIS USER RUNNING 'VASP/VAMP'   (HEAR YOUR MASTER'S VOICE ...):  |
|                                                                             |
|      You have a (more or less) 'small supercell' and for smaller cells      |
|      it is recommended  to use the reciprocal-space projection scheme!      |
|      The real space optimization is not  efficient for small cells and it   |
|      is also less accurate ...                                              |
|      Therefore set LREAL=.FALSE. in the  INCAR file                         |
|                                                                             |
 ----------------------------------------------------------------------------- 

 LDA part: xc-table for Pade appr. of Perdew
 POSCAR, INCAR and KPOINTS ok, starting setup
 FFT: planning ...
 WAVECAR not read
 entering main loop
       N       E                     dE             d eps       ncg     rms          rms(c)
DAV:   1     0.239461229745E+03    0.23946E+03   -0.20989E+04  3432   0.228E+03
DAV:   2    -0.923105346502E+01   -0.24869E+03   -0.23880E+03  3456   0.442E+02
DAV:   3    -0.162154656472E+02   -0.69844E+01   -0.69607E+01  3612   0.809E+01
DAV:   4    -0.162742479376E+02   -0.58782E-01   -0.58784E-01  3972   0.710E+00
DAV:   5    -0.162753315173E+02   -0.10836E-02   -0.10836E-02  3600   0.898E-01    0.250E+01
DAV:   6    -0.164591986858E+02   -0.18387E+00   -0.74926E+00  3444   0.398E+01    0.691E+00
DAV:   7    -0.165137927062E+02   -0.54594E-01   -0.61461E-01  3420   0.975E+00    0.431E+00
DAV:   8    -0.165235073085E+02   -0.97146E-02   -0.15123E-02  3792   0.148E+00    0.137E+00
DAV:   9    -0.165152235439E+02    0.82838E-02   -0.52413E-03  3648   0.885E-01    0.337E-01
DAV:  10    -0.165150249447E+02    0.19860E-03   -0.22392E-03  3480   0.614E-01    0.441E-02
DAV:  11    -0.165150848764E+02   -0.59932E-04   -0.49560E-05  3588   0.662E-02    0.242E-02
DAV:  12    -0.165150930178E+02   -0.81414E-05   -0.50034E-06  3972   0.227E-02    0.954E-03
DAV:  13    -0.165150862633E+02    0.67545E-05   -0.12999E-06  3540   0.113E-02    0.248E-03
DAV:  14    -0.165150847106E+02    0.15527E-05   -0.15466E-07  2748   0.328E-03    0.655E-04
DAV:  15    -0.165150847272E+02   -0.16666E-07   -0.11172E-08  1740   0.109E-03
   1 F= -.16515085E+02 E0= -.16515085E+02  d E =0.000000E+00  mag=     4.4053
