 vasp.5.4.4.18Apr17-6-g9f103f2a35 (build Apr 28 2018 00:24:27) complex          
  
 executed on             LinuxIFC date 2021.09.06  23:54:46
 running on   24 total cores
 distrk:  each k-point on   24 cores,    1 groups
 distr:  one band on NCORES_PER_BAND=   4 cores,    6 groups


--------------------------------------------------------------------------------------------------------


 INCAR:
 POTCAR:    PAW_PBE Fe_pv 02Aug2007               
 POTCAR:    PAW_PBE Fe_pv 02Aug2007               
   VRHFIN =Fe:  3pd7s1                                                          
   LEXCH  = PE                                                                  
   EATOM  =  2457.4239 eV,  180.6156 Ry                                         
                                                                                
   TITEL  = PAW_PBE Fe_pv 02Aug2007                                             
   LULTRA =        F    use ultrasoft PP ?                                      
   IUNSCR =        1    unscreen: 0-lin 1-nonlin 2-no                           
   RPACOR =    1.750    partial core radius                                     
   POMASS =   55.847; ZVAL   =   14.000    mass and valenz                      
   RCORE  =    2.200    outmost cutoff radius                                   
   RWIGS  =    2.200; RWIGS  =    1.164    wigner-seitz radius (au A)           
   ENMAX  =  293.238; ENMIN  =  219.928 eV                                      
   ICORE  =        3    local potential                                         
   LCOR   =        T    correct aug charges                                     
   LPAW   =        T    paw PP                                                  
   EAUG   =  578.342                                                            
   DEXC   =    0.000                                                            
   RMAX   =    2.249    core radius for proj-oper                               
   RAUG   =    1.300    factor for augmentation sphere                          
   RDEP   =    2.296    radius for radial grids                                 
   RDEPT  =    1.766    core radius for aug-charge                              
                                                                                
   Atomic configuration                                                         
    8 entries                                                                   
     n  l   j            E        occ.                                          
     1  0  0.50     -6993.8440   2.0000                                         
     2  0  0.50      -814.6047   2.0000                                         
     2  1  1.50      -693.3689   6.0000                                         
     3  0  0.50       -89.4732   2.0000                                         
     3  1  1.50       -55.6373   6.0000                                         
     3  2  2.50        -3.8151   7.0000                                         
     4  0  0.50        -4.2551   1.0000                                         
     4  3  2.50        -1.3606   0.0000                                         
   Description                                                                  
     l       E           TYP  RCUT    TYP  RCUT                                 
     1    -55.6372668     23  2.000                                             
     1     -5.4423304     23  2.000                                             
     2     -3.8151096     23  2.200                                             
     2     -5.1756922     23  2.200                                             
     0     -4.2550951     23  2.200                                             
     0     27.2116520     23  2.200                                             
     3     -1.3605826     23  2.200                                             
  local pseudopotential read in
  partial core-charges read in
  partial kinetic energy density read in
  atomic valenz-charges read in
  non local Contribution for L=           1  read in
    real space projection operators read in
  non local Contribution for L=           1  read in
    real space projection operators read in
  non local Contribution for L=           2  read in
    real space projection operators read in
  non local Contribution for L=           2  read in
    real space projection operators read in
  non local Contribution for L=           0  read in
    real space projection operators read in
  non local Contribution for L=           0  read in
    real space projection operators read in
    PAW grid and wavefunctions read in
 
   number of l-projection  operators is LMAX  =           6
   number of lm-projection operators is LMMAX =          18
 

 ----------------------------------------------------------------------------- 
|                                                                             |
|  ADVICE TO THIS USER RUNNING 'VASP/VAMP'   (HEAR YOUR MASTER'S VOICE ...):  |
|                                                                             |
|      You have a (more or less) 'small supercell' and for smaller cells      |
|      it is recommended  to use the reciprocal-space projection scheme!      |
|      The real space optimization is not  efficient for small cells and it   |
|      is also less accurate ...                                              |
|      Therefore set LREAL=.FALSE. in the  INCAR file                         |
|                                                                             |
 ----------------------------------------------------------------------------- 

 Optimization of the real space projectors (new method)

 maximal supplied QI-value         = 17.01
 optimisation between [QCUT,QGAM] = [ 13.61, 27.38] = [ 51.84,209.96] Ry 
 Optimized for a Real-space Cutoff    1.27 Angstroem

   l    n(q)    QCUT    max X(q) W(low)/X(q) W(high)/X(q)  e(spline) 
   1     10    13.606     4.267    0.13E-03    0.32E-03    0.19E-06
   1     10    13.606     5.750    0.20E-03    0.47E-03    0.28E-06
   2      9    13.606    53.656    0.20E-03    0.15E-03    0.21E-06
   2      9    13.606    49.521    0.21E-03    0.15E-03    0.22E-06
   0     10    13.606    31.246    0.74E-04    0.56E-04    0.14E-06
   0     10    13.606    12.201    0.61E-04    0.47E-04    0.12E-06
  PAW_PBE Fe_pv 02Aug2007               :
 energy of atom  1       EATOM=-2457.4239
 kinetic energy error for atom=    0.0020 (will be added to EATOM!!)
 
 
 POSCAR: Fe2                                     
  positions in direct lattice
  No initial velocities read in
 exchange correlation table for  LEXCH =        8
   RHO(1)=    0.500       N(1)  =     2000
   RHO(2)=  100.500       N(2)  =     4000
 


--------------------------------------------------------------------------------------------------------


 ion  position               nearest neighbor table
   1  0.000  0.000  0.000-   2 2.46   2 2.46   2 2.46   2 2.46   2 2.46   2 2.46   2 2.46   2 2.46

   2  0.500  0.500  0.500-   1 2.46   1 2.46   1 2.46   1 2.46   1 2.46   1 2.46   1 2.46   1 2.46

 
  LATTYP: Found a simple cubic cell.
 ALAT       =     2.8400520000
  
  Lattice vectors:
  
 A1 = (   2.8400520000,   0.0000000000,   0.0000000000)
 A2 = (   0.0000000000,   2.8400520000,   0.0000000000)
 A3 = (   0.0000000000,   0.0000000000,   2.8400520000)


Analysis of symmetry for initial positions (statically):
=====================================================================
 Subroutine PRICEL returns following result:
 
  LATTYP: Found a body centered cubic cell.
 ALAT       =     2.8400520000
  
  Lattice vectors:
  
 A1 = (   1.4200260000,   1.4200260000,   1.4200260000)
 A2 = (   1.4200260000,  -1.4200260000,  -1.4200260000)
 A3 = (  -1.4200260000,   1.4200260000,  -1.4200260000)
 
   2 primitive cells build up your supercell.
 

 Routine SETGRP: Setting up the symmetry group for a 
 simple cubic supercell.


 Subroutine GETGRP returns: Found 48 space group operations
 (whereof 48 operations were pure point group operations)
 out of a pool of 48 trial point group operations.


The static configuration has the point symmetry O_h .


Analysis of symmetry for dynamics (positions and initial velocities):
=====================================================================
 Subroutine PRICEL returns following result:
 
  LATTYP: Found a body centered cubic cell.
 ALAT       =     2.8400520000
  
  Lattice vectors:
  
 A1 = (   1.4200260000,   1.4200260000,   1.4200260000)
 A2 = (   1.4200260000,  -1.4200260000,  -1.4200260000)
 A3 = (  -1.4200260000,   1.4200260000,  -1.4200260000)
 
   2 primitive cells build up your supercell.
 

 Routine SETGRP: Setting up the symmetry group for a 
 simple cubic supercell.


 Subroutine GETGRP returns: Found 48 space group operations
 (whereof 48 operations were pure point group operations)
 out of a pool of 48 trial point group operations.


The dynamic configuration has the point symmetry O_h .


Analysis of structural, dynamic, and magnetic symmetry:
=====================================================================
 Subroutine PRICEL returns following result:
 
  LATTYP: Found a body centered cubic cell.
 ALAT       =     2.8400520000
  
  Lattice vectors:
  
 A1 = (   1.4200260000,   1.4200260000,   1.4200260000)
 A2 = (   1.4200260000,  -1.4200260000,  -1.4200260000)
 A3 = (  -1.4200260000,   1.4200260000,  -1.4200260000)
 
   2 primitive cells build up your supercell.
 

 Routine SETGRP: Setting up the symmetry group for a 
 simple cubic supercell.


 Subroutine GETGRP returns: Found 48 space group operations
 (whereof 48 operations were pure point group operations)
 out of a pool of 48 trial point group operations.


The magnetic configuration has the point symmetry O_h .


 Subroutine INISYM returns: Found 48 space group operations
 (whereof 48 operations are pure point group operations),
 and found     2 'primitive' translations

 
 
 KPOINTS: pymatgen with grid density = 2166 / numb

Automatic generation of k-mesh.
Space group operators:
 irot       det(A)        alpha          n_x          n_y          n_z        tau_x        tau_y        tau_z
    1     1.000000     0.000000     1.000000     0.000000     0.000000     0.000000     0.000000     0.000000
    2    -1.000000     0.000000     1.000000     0.000000     0.000000     0.000000     0.000000     0.000000
    3     1.000000   120.000000    -0.577350    -0.577350    -0.577350     0.000000     0.000000     0.000000
    4    -1.000000   120.000000    -0.577350    -0.577350    -0.577350     0.000000     0.000000     0.000000
    5     1.000000   120.000000     0.577350     0.577350     0.577350     0.000000     0.000000     0.000000
    6    -1.000000   120.000000     0.577350     0.577350     0.577350     0.000000     0.000000     0.000000
    7     1.000000    90.000000     0.000000     0.000000    -1.000000     0.000000     0.000000     0.000000
    8    -1.000000    90.000000     0.000000     0.000000    -1.000000     0.000000     0.000000     0.000000
    9     1.000000   180.000000     0.000000     0.707107     0.707107     0.000000     0.000000     0.000000
   10    -1.000000   180.000000     0.000000     0.707107     0.707107     0.000000     0.000000     0.000000
   11     1.000000    90.000000     0.000000     1.000000     0.000000     0.000000     0.000000     0.000000
   12    -1.000000    90.000000     0.000000     1.000000     0.000000     0.000000     0.000000     0.000000
   13     1.000000   180.000000     0.000000     0.000000     1.000000     0.000000     0.000000     0.000000
   14    -1.000000   180.000000     0.000000     0.000000     1.000000     0.000000     0.000000     0.000000
   15     1.000000   120.000000    -0.577350     0.577350     0.577350     0.000000     0.000000     0.000000
   16    -1.000000   120.000000    -0.577350     0.577350     0.577350     0.000000     0.000000     0.000000
   17     1.000000   120.000000    -0.577350     0.577350    -0.577350     0.000000     0.000000     0.000000
   18    -1.000000   120.000000    -0.577350     0.577350    -0.577350     0.000000     0.000000     0.000000
   19     1.000000    90.000000     0.000000     0.000000     1.000000     0.000000     0.000000     0.000000
   20    -1.000000    90.000000     0.000000     0.000000     1.000000     0.000000     0.000000     0.000000
   21     1.000000    90.000000    -1.000000     0.000000     0.000000     0.000000     0.000000     0.000000
   22    -1.000000    90.000000    -1.000000     0.000000     0.000000     0.000000     0.000000     0.000000
   23     1.000000   180.000000     0.707107     0.000000     0.707107     0.000000     0.000000     0.000000
   24    -1.000000   180.000000     0.707107     0.000000     0.707107     0.000000     0.000000     0.000000
   25     1.000000   120.000000     0.577350    -0.577350     0.577350     0.000000     0.000000     0.000000
   26    -1.000000   120.000000     0.577350    -0.577350     0.577350     0.000000     0.000000     0.000000
   27     1.000000   120.000000    -0.577350    -0.577350     0.577350     0.000000     0.000000     0.000000
   28    -1.000000   120.000000    -0.577350    -0.577350     0.577350     0.000000     0.000000     0.000000
   29     1.000000   180.000000     1.000000     0.000000     0.000000     0.000000     0.000000     0.000000
   30    -1.000000   180.000000     1.000000     0.000000     0.000000     0.000000     0.000000     0.000000
   31     1.000000    90.000000     0.000000    -1.000000     0.000000     0.000000     0.000000     0.000000
   32    -1.000000    90.000000     0.000000    -1.000000     0.000000     0.000000     0.000000     0.000000
   33     1.000000   180.000000     0.707107     0.707107     0.000000     0.000000     0.000000     0.000000
   34    -1.000000   180.000000     0.707107     0.707107     0.000000     0.000000     0.000000     0.000000
   35     1.000000    90.000000     1.000000     0.000000     0.000000     0.000000     0.000000     0.000000
   36    -1.000000    90.000000     1.000000     0.000000     0.000000     0.000000     0.000000     0.000000
   37     1.000000   120.000000     0.577350    -0.577350    -0.577350     0.000000     0.000000     0.000000
   38    -1.000000   120.000000     0.577350    -0.577350    -0.577350     0.000000     0.000000     0.000000
   39     1.000000   180.000000     0.000000     1.000000     0.000000     0.000000     0.000000     0.000000
   40    -1.000000   180.000000     0.000000     1.000000     0.000000     0.000000     0.000000     0.000000
   41     1.000000   120.000000     0.577350     0.577350    -0.577350     0.000000     0.000000     0.000000
   42    -1.000000   120.000000     0.577350     0.577350    -0.577350     0.000000     0.000000     0.000000
   43     1.000000   180.000000     0.000000    -0.707107     0.707107     0.000000     0.000000     0.000000
   44    -1.000000   180.000000     0.000000    -0.707107     0.707107     0.000000     0.000000     0.000000
   45     1.000000   180.000000     0.707107    -0.707107     0.000000     0.000000     0.000000     0.000000
   46    -1.000000   180.000000     0.707107    -0.707107     0.000000     0.000000     0.000000     0.000000
   47     1.000000   180.000000     0.707107     0.000000    -0.707107     0.000000     0.000000     0.000000
   48    -1.000000   180.000000     0.707107     0.000000    -0.707107     0.000000     0.000000     0.000000
 
 Subroutine IBZKPT returns following result:
 ===========================================
 
 Found     35 irreducible k-points:
 
 Following reciprocal coordinates:
            Coordinates               Weight
  0.050000  0.050000  0.050000      8.000000
  0.150000  0.050000  0.050000     24.000000
  0.250000  0.050000  0.050000     24.000000
  0.350000  0.050000  0.050000     24.000000
  0.450000  0.050000  0.050000     24.000000
  0.150000  0.150000  0.050000     24.000000
  0.250000  0.150000  0.050000     48.000000
  0.350000  0.150000  0.050000     48.000000
  0.450000  0.150000  0.050000     48.000000
  0.250000  0.250000  0.050000     24.000000
  0.350000  0.250000  0.050000     48.000000
  0.450000  0.250000  0.050000     48.000000
  0.350000  0.350000  0.050000     24.000000
  0.450000  0.350000  0.050000     48.000000
  0.450000  0.450000  0.050000     24.000000
  0.150000  0.150000  0.150000      8.000000
  0.250000  0.150000  0.150000     24.000000
  0.350000  0.150000  0.150000     24.000000
  0.450000  0.150000  0.150000     24.000000
  0.250000  0.250000  0.150000     24.000000
  0.350000  0.250000  0.150000     48.000000
  0.450000  0.250000  0.150000     48.000000
  0.350000  0.350000  0.150000     24.000000
  0.450000  0.350000  0.150000     48.000000
  0.450000  0.450000  0.150000     24.000000
  0.250000  0.250000  0.250000      8.000000
  0.350000  0.250000  0.250000     24.000000
  0.450000  0.250000  0.250000     24.000000
  0.350000  0.350000  0.250000     24.000000
  0.450000  0.350000  0.250000     48.000000
  0.450000  0.450000  0.250000     24.000000
  0.350000  0.350000  0.350000      8.000000
  0.450000  0.350000  0.350000     24.000000
  0.450000  0.450000  0.350000     24.000000
  0.450000  0.450000  0.450000      8.000000
 
 Following cartesian coordinates:
            Coordinates               Weight
  0.017605  0.017605  0.017605      8.000000
  0.052816  0.017605  0.017605     24.000000
  0.088027  0.017605  0.017605     24.000000
  0.123237  0.017605  0.017605     24.000000
  0.158448  0.017605  0.017605     24.000000
  0.052816  0.052816  0.017605     24.000000
  0.088027  0.052816  0.017605     48.000000
  0.123237  0.052816  0.017605     48.000000
  0.158448  0.052816  0.017605     48.000000
  0.088027  0.088027  0.017605     24.000000
  0.123237  0.088027  0.017605     48.000000
  0.158448  0.088027  0.017605     48.000000
  0.123237  0.123237  0.017605     24.000000
  0.158448  0.123237  0.017605     48.000000
  0.158448  0.158448  0.017605     24.000000
  0.052816  0.052816  0.052816      8.000000
  0.088027  0.052816  0.052816     24.000000
  0.123237  0.052816  0.052816     24.000000
  0.158448  0.052816  0.052816     24.000000
  0.088027  0.088027  0.052816     24.000000
  0.123237  0.088027  0.052816     48.000000
  0.158448  0.088027  0.052816     48.000000
  0.123237  0.123237  0.052816     24.000000
  0.158448  0.123237  0.052816     48.000000
  0.158448  0.158448  0.052816     24.000000
  0.088027  0.088027  0.088027      8.000000
  0.123237  0.088027  0.088027     24.000000
  0.158448  0.088027  0.088027     24.000000
  0.123237  0.123237  0.088027     24.000000
  0.158448  0.123237  0.088027     48.000000
  0.158448  0.158448  0.088027     24.000000
  0.123237  0.123237  0.123237      8.000000
  0.158448  0.123237  0.123237     24.000000
  0.158448  0.158448  0.123237     24.000000
  0.158448  0.158448  0.158448      8.000000
 
 TETIRR: Found    466 inequivalent tetrahedra from     6000


--------------------------------------------------------------------------------------------------------




 Dimension of arrays:
   k-points           NKPTS =     35   k-points in BZ     NKDIM =     35   number of bands    NBANDS=     24
   number of dos      NEDOS =    301   number of ions     NIONS =      2
   non local maximal  LDIM  =      6   non local SUM 2l+1 LMDIM =     18
   total plane-waves  NPLWV =  21952
   max r-space proj   IRMAX =   8185   max aug-charges    IRDMAX=  28578
   dimension x,y,z NGX =    28 NGY =   28 NGZ =   28
   dimension x,y,z NGXF=    56 NGYF=   56 NGZF=   56
   support grid    NGXF=    56 NGYF=   56 NGZF=   56
   ions per type =               2
   NGX,Y,Z   is equivalent  to a cutoff of  16.39, 16.39, 16.39 a.u.
   NGXF,Y,Z  is equivalent  to a cutoff of  32.78, 32.78, 32.78 a.u.

 SYSTEM =  unknown system                          
 POSCAR =  Fe2                                     

 Startparameter for this run:
   NWRITE =      2    write-flag & timer
   PREC   = accura    normal or accurate (medium, high low for compatibility)
   ISTART =      0    job   : 0-new  1-cont  2-samecut
   ICHARG =      2    charge: 1-file 2-atom 10-const
   ISPIN  =      2    spin polarized calculation?
   LNONCOLLINEAR =      F non collinear calculations
   LSORBIT =      F    spin-orbit coupling
   INIWAV =      1    electr: 0-lowe 1-rand  2-diag
   LASPH  =      F    aspherical Exc in radial PAW
   METAGGA=      F    non-selfconsistent MetaGGA calc.

 Electronic Relaxation 1
   ENCUT  =  720.0 eV  52.92 Ry    7.27 a.u.   6.21  6.21  6.21*2*pi/ulx,y,z
   ENINI  =  720.0     initial cutoff
   ENAUG  =  578.3 eV  augmentation charge cutoff
   NELM   =    100;   NELMIN=  2; NELMDL= -5     # of ELM steps 
   EDIFF  = 0.1E-06   stopping-criterion for ELM
   LREAL  =      T    real-space projection
   NLSPLINE    = F    spline interpolate recip. space projectors
   LCOMPAT=      F    compatible to vasp.4.4
   GGA_COMPAT  = T    GGA compatible to vasp.4.4-vasp.4.6
   LMAXPAW     = -100 max onsite density
   LMAXMIX     =    2 max onsite mixed and CHGCAR
   VOSKOWN=      0    Vosko Wilk Nusair interpolation
   ROPT   =   -0.00025
 Ionic relaxation
   EDIFFG = 0.1E-05   stopping-criterion for IOM
   NSW    =      0    number of steps for IOM
   NBLOCK =      1;   KBLOCK =      1    inner block; outer block 
   IBRION =     -1    ionic relax: 0-MD 1-quasi-New 2-CG
   NFREE  =      0    steps in history (QN), initial steepest desc. (CG)
   ISIF   =      3    stress and relaxation
   IWAVPR =     10    prediction:  0-non 1-charg 2-wave 3-comb
   ISYM   =      2    0-nonsym 1-usesym 2-fastsym
   LCORR  =      T    Harris-Foulkes like correction to forces

   POTIM  = 0.5000    time-step for ionic-motion
   TEIN   =    0.0    initial temperature
   TEBEG  =    0.0;   TEEND  =   0.0 temperature during run
   SMASS  =  -3.00    Nose mass-parameter (am)
   estimated Nose-frequenzy (Omega)   =  0.10E-29 period in steps =****** mass=  -0.184E-27a.u.
   SCALEE = 1.0000    scale energy and forces
   NPACO  =    256;   APACO  = 16.0  distance and # of slots for P.C.
   PSTRESS=    0.0 pullay stress

  Mass of Ions in am
   POMASS =  55.85
  Ionic Valenz
   ZVAL   =  14.00
  Atomic Wigner-Seitz radii
   RWIGS  =  -1.00
  virtual crystal weights 
   VCA    =   1.00
   NELECT =      28.0000    total number of electrons
   NUPDOWN=      -1.0000    fix difference up-down

 DOS related values:
   EMIN   =  10.00;   EMAX   =-10.00  energy-range for DOS
   EFERMI =   0.00
   ISMEAR =    -5;   SIGMA  =   0.05  broadening in eV -4-tet -1-fermi 0-gaus

 Electronic relaxation 2 (details)
   IALGO  =     38    algorithm
   LDIAG  =      T    sub-space diagonalisation (order eigenvalues)
   LSUBROT=      F    optimize rotation matrix (better conditioning)
   TURBO    =      0    0=normal 1=particle mesh
   IRESTART =      0    0=no restart 2=restart with 2 vectors
   NREBOOT  =      0    no. of reboots
   NMIN     =      0    reboot dimension
   EREF     =   0.00    reference energy to select bands
   IMIX   =      4    mixing-type and parameters
     AMIX     =   0.40;   BMIX     =  1.00
     AMIX_MAG =   1.60;   BMIX_MAG =  1.00
     AMIN     =   0.10
     WC   =   100.;   INIMIX=   1;  MIXPRE=   1;  MAXMIX= -45

 Intra band minimization:
   WEIMIN = 0.0000     energy-eigenvalue tresh-hold
   EBREAK =  0.10E-08  absolut break condition
   DEPER  =   0.30     relativ break condition  

   TIME   =   0.40     timestep for ELM

  volume/ion in A,a.u.               =      11.45        77.29
  Fermi-wavevector in a.u.,A,eV,Ry     =   1.750389  3.307755 41.686364  3.063861
  Thomas-Fermi vector in A             =   2.821117
 
 Write flags
   LWAVE        =      F    write WAVECAR
   LDOWNSAMPLE  =      F    k-point downsampling of WAVECAR
   LCHARG       =      F    write CHGCAR
   LVTOT        =      F    write LOCPOT, total local potential
   LVHAR        =      F    write LOCPOT, Hartree potential only
   LELF         =      F    write electronic localiz. function (ELF)
   LORBIT       =     11    0 simple, 1 ext, 2 COOP (PROOUT), +10 PAW based schemes


 Dipole corrections
   LMONO  =      F    monopole corrections only (constant potential shift)
   LDIPOL =      F    correct potential (dipole corrections)
   IDIPOL =      0    1-x, 2-y, 3-z, 4-all directions 
   EPSILON=  1.0000000 bulk dielectric constant

 Exchange correlation treatment:
   GGA     =    --    GGA type
   LEXCH   =     8    internal setting for exchange type
   VOSKOWN=      0    Vosko Wilk Nusair interpolation
   LHFCALC =     F    Hartree Fock is set to
   LHFONE  =     F    Hartree Fock one center treatment
   AEXX    =    0.0000 exact exchange contribution

 Linear response parameters
   LEPSILON=     F    determine dielectric tensor
   LRPA    =     F    only Hartree local field effects (RPA)
   LNABLA  =     F    use nabla operator in PAW spheres
   LVEL    =     F    velocity operator in full k-point grid
   LINTERFAST=   F  fast interpolation
   KINTER  =     0    interpolate to denser k-point grid
   CSHIFT  =0.1000    complex shift for real part using Kramers Kronig
   OMEGAMAX=  -1.0    maximum frequency
   DEG_THRESHOLD= 0.2000000E-02 threshold for treating states as degnerate
   RTIME   =   -0.100 relaxation time in fs
  (WPLASMAI=    0.000 imaginary part of plasma frequency in eV, 0.658/RTIME)
   DFIELD  = 0.0000000 0.0000000 0.0000000 field for delta impulse in time
 
 Orbital magnetization related:
   ORBITALMAG=     F  switch on orbital magnetization
   LCHIMAG   =     F  perturbation theory with respect to B field
   DQ        =  0.001000  dq finite difference perturbation B field
   LLRAUG    =     F  two centre corrections for induced B field



--------------------------------------------------------------------------------------------------------


 Static calculation
 charge density and potential will be updated during run
 spin polarized calculation
 Variant of blocked Davidson
 Davidson routine will perform the subspace rotation
 perform sub-space diagonalisation
    after iterative eigenvector-optimisation
 modified Broyden-mixing scheme, WC =      100.0
 initial mixing is a Kerker type mixing with AMIX =  0.4000 and BMIX =      1.0000
 Hartree-type preconditioning will be used
 using additional bands           10
 real space projection scheme for non local part
 use partial core corrections
 calculate Harris-corrections to forces 
   (improved forces if not selfconsistent)
 use gradient corrections 
 use of overlap-Matrix (Vanderbilt PP)
 Fermi weights with tetrahedron method with Bloechl corrections


--------------------------------------------------------------------------------------------------------


  energy-cutoff  :      720.00
  volume of cell :       22.91
      direct lattice vectors                 reciprocal lattice vectors
     2.840052000  0.000000000  0.000000000     0.352106229  0.000000000  0.000000000
     0.000000000  2.840052000  0.000000000     0.000000000  0.352106229  0.000000000
     0.000000000  0.000000000  2.840052000     0.000000000  0.000000000  0.352106229

  length of vectors
     2.840052000  2.840052000  2.840052000     0.352106229  0.352106229  0.352106229


 
 k-points in units of 2pi/SCALE and weight: pymatgen with grid density = 2166 / numb
   0.01760531  0.01760531  0.01760531       0.008
   0.05281593  0.01760531  0.01760531       0.024
   0.08802656  0.01760531  0.01760531       0.024
   0.12323718  0.01760531  0.01760531       0.024
   0.15844780  0.01760531  0.01760531       0.024
   0.05281593  0.05281593  0.01760531       0.024
   0.08802656  0.05281593  0.01760531       0.048
   0.12323718  0.05281593  0.01760531       0.048
   0.15844780  0.05281593  0.01760531       0.048
   0.08802656  0.08802656  0.01760531       0.024
   0.12323718  0.08802656  0.01760531       0.048
   0.15844780  0.08802656  0.01760531       0.048
   0.12323718  0.12323718  0.01760531       0.024
   0.15844780  0.12323718  0.01760531       0.048
   0.15844780  0.15844780  0.01760531       0.024
   0.05281593  0.05281593  0.05281593       0.008
   0.08802656  0.05281593  0.05281593       0.024
   0.12323718  0.05281593  0.05281593       0.024
   0.15844780  0.05281593  0.05281593       0.024
   0.08802656  0.08802656  0.05281593       0.024
   0.12323718  0.08802656  0.05281593       0.048
   0.15844780  0.08802656  0.05281593       0.048
   0.12323718  0.12323718  0.05281593       0.024
   0.15844780  0.12323718  0.05281593       0.048
   0.15844780  0.15844780  0.05281593       0.024
   0.08802656  0.08802656  0.08802656       0.008
   0.12323718  0.08802656  0.08802656       0.024
   0.15844780  0.08802656  0.08802656       0.024
   0.12323718  0.12323718  0.08802656       0.024
   0.15844780  0.12323718  0.08802656       0.048
   0.15844780  0.15844780  0.08802656       0.024
   0.12323718  0.12323718  0.12323718       0.008
   0.15844780  0.12323718  0.12323718       0.024
   0.15844780  0.15844780  0.12323718       0.024
   0.15844780  0.15844780  0.15844780       0.008
 
 k-points in reciprocal lattice and weights: pymatgen with grid density = 2166 / numb
   0.05000000  0.05000000  0.05000000       0.008
   0.15000000  0.05000000  0.05000000       0.024
   0.25000000  0.05000000  0.05000000       0.024
   0.35000000  0.05000000  0.05000000       0.024
   0.45000000  0.05000000  0.05000000       0.024
   0.15000000  0.15000000  0.05000000       0.024
   0.25000000  0.15000000  0.05000000       0.048
   0.35000000  0.15000000  0.05000000       0.048
   0.45000000  0.15000000  0.05000000       0.048
   0.25000000  0.25000000  0.05000000       0.024
   0.35000000  0.25000000  0.05000000       0.048
   0.45000000  0.25000000  0.05000000       0.048
   0.35000000  0.35000000  0.05000000       0.024
   0.45000000  0.35000000  0.05000000       0.048
   0.45000000  0.45000000  0.05000000       0.024
   0.15000000  0.15000000  0.15000000       0.008
   0.25000000  0.15000000  0.15000000       0.024
   0.35000000  0.15000000  0.15000000       0.024
   0.45000000  0.15000000  0.15000000       0.024
   0.25000000  0.25000000  0.15000000       0.024
   0.35000000  0.25000000  0.15000000       0.048
   0.45000000  0.25000000  0.15000000       0.048
   0.35000000  0.35000000  0.15000000       0.024
   0.45000000  0.35000000  0.15000000       0.048
   0.45000000  0.45000000  0.15000000       0.024
   0.25000000  0.25000000  0.25000000       0.008
   0.35000000  0.25000000  0.25000000       0.024
   0.45000000  0.25000000  0.25000000       0.024
   0.35000000  0.35000000  0.25000000       0.024
   0.45000000  0.35000000  0.25000000       0.048
   0.45000000  0.45000000  0.25000000       0.024
   0.35000000  0.35000000  0.35000000       0.008
   0.45000000  0.35000000  0.35000000       0.024
   0.45000000  0.45000000  0.35000000       0.024
   0.45000000  0.45000000  0.45000000       0.008
 
 position of ions in fractional coordinates (direct lattice) 
   0.00000000  0.00000000  0.00000000
   0.50000000  0.50000000  0.50000000
 
 position of ions in cartesian coordinates  (Angst):
   0.00000000  0.00000000  0.00000000
   1.42002600  1.42002600  1.42002600
 


--------------------------------------------------------------------------------------------------------


 k-point  1 :   0.0500 0.0500 0.0500  plane waves:    1012
 k-point  2 :   0.1500 0.0500 0.0500  plane waves:     995
 k-point  3 :   0.2500 0.0500 0.0500  plane waves:    1004
 k-point  4 :   0.3500 0.0500 0.0500  plane waves:    1005
 k-point  5 :   0.4500 0.0500 0.0500  plane waves:    1010
 k-point  6 :   0.1500 0.1500 0.0500  plane waves:     996
 k-point  7 :   0.2500 0.1500 0.0500  plane waves:    1010
 k-point  8 :   0.3500 0.1500 0.0500  plane waves:    1008
 k-point  9 :   0.4500 0.1500 0.0500  plane waves:    1003
 k-point 10 :   0.2500 0.2500 0.0500  plane waves:    1002
 k-point 11 :   0.3500 0.2500 0.0500  plane waves:    1007
 k-point 12 :   0.4500 0.2500 0.0500  plane waves:    1001
 k-point 13 :   0.3500 0.3500 0.0500  plane waves:    1013
 k-point 14 :   0.4500 0.3500 0.0500  plane waves:    1008
 k-point 15 :   0.4500 0.4500 0.0500  plane waves:    1014
 k-point 16 :   0.1500 0.1500 0.1500  plane waves:    1003
 k-point 17 :   0.2500 0.1500 0.1500  plane waves:    1004
 k-point 18 :   0.3500 0.1500 0.1500  plane waves:    1006
 k-point 19 :   0.4500 0.1500 0.1500  plane waves:    1002
 k-point 20 :   0.2500 0.2500 0.1500  plane waves:    1005
 k-point 21 :   0.3500 0.2500 0.1500  plane waves:    1008
 k-point 22 :   0.4500 0.2500 0.1500  plane waves:    1009
 k-point 23 :   0.3500 0.3500 0.1500  plane waves:    1002
 k-point 24 :   0.4500 0.3500 0.1500  plane waves:    1005
 k-point 25 :   0.4500 0.4500 0.1500  plane waves:    1008
 k-point 26 :   0.2500 0.2500 0.2500  plane waves:    1003
 k-point 27 :   0.3500 0.2500 0.2500  plane waves:    1001
 k-point 28 :   0.4500 0.2500 0.2500  plane waves:    1002
 k-point 29 :   0.3500 0.3500 0.2500  plane waves:    1002
 k-point 30 :   0.4500 0.3500 0.2500  plane waves:    1005
 k-point 31 :   0.4500 0.4500 0.2500  plane waves:    1007
 k-point 32 :   0.3500 0.3500 0.3500  plane waves:    1009
 k-point 33 :   0.4500 0.3500 0.3500  plane waves:    1007
 k-point 34 :   0.4500 0.4500 0.3500  plane waves:    1006
 k-point 35 :   0.4500 0.4500 0.4500  plane waves:    1016

 maximum and minimum number of plane-waves per node :       260      246

 maximum number of plane-waves:      1016
 maximum index in each direction: 
   IXMAX=    6   IYMAX=    6   IZMAX=    6
   IXMIN=   -6   IYMIN=   -6   IZMIN=   -6


 real space projection operators:
  total allocation   :       2216.53 KBytes
  max/ min on nodes  :        556.45        551.81


 parallel 3D FFT for wavefunctions:
    minimum data exchange during FFTs selected (reduces bandwidth)
 parallel 3D FFT for charge:
    minimum data exchange during FFTs selected (reduces bandwidth)


 total amount of memory used by VASP MPI-rank0    33844. kBytes
=======================================================================

   base      :      30000. kBytes
   nonlr-proj:        960. kBytes
   fftplans  :        476. kBytes
   grid      :       1141. kBytes
   one-center:         31. kBytes
   wavefun   :       1236. kBytes
 
     INWAV:  cpu time    0.0000: real time    0.0001
 Broyden mixing: mesh for mixing (old mesh)
   NGX = 13   NGY = 13   NGZ = 13
  (NGX  = 56   NGY  = 56   NGZ  = 56)
  gives a total of   2197 points

 initial charge density was supplied:
 charge density of overlapping atoms calculated
 number of electron      28.0000000 magnetization      10.0000000
 keeping initial charge density in first step


--------------------------------------------------------------------------------------------------------


 Maximum index for non-local projection operator         2014
 Maximum index for augmentation-charges         1986 (set IRDMAX)


--------------------------------------------------------------------------------------------------------


 First call to EWALD:  gamma=   0.624
 Maximum number of real-space cells 3x 3x 3
 Maximum number of reciprocal cells 3x 3x 3

    FEWALD:  cpu time    0.0013: real time    0.0013


--------------------------------------- Iteration      1(   1)  ---------------------------------------


    POTLOK:  cpu time    0.0135: real time    0.0164
    SETDIJ:  cpu time    0.0070: real time    0.0070
     EDDAV:  cpu time    0.5128: real time    0.5265
 BZINTS: Fermi energy: 21.211295; 28.000000 electrons
         Band energy: -82.965322;  BLOECHL correction: -0.154004
       DOS:  cpu time    0.0355: real time    0.0356
    --------------------------------------------
      LOOP:  cpu time    0.5687: real time    0.5855

 eigenvalue-minimisations  :  3432
 total energy-change (2. order) : 0.2394612E+03  (-0.2098928E+04)
 number of electron      28.0000000 magnetization      10.0000000
 augmentation part       28.0000000 magnetization      10.0000000

 Free energy of the ion-electron system (eV)
  ---------------------------------------------------
  alpha Z        PSCENC =       218.87048721
  Ewald energy   TEWEN  =     -3616.56080017
  -Hartree energ DENC   =     -1162.86386254
  -exchange      EXHF   =         0.00000000
  -V(xc)+E(xc)   XCENC  =       147.54621443
  PAW double counting   =      3997.93860218    -4177.34792201
  entropy T*S    EENTRO =         0.00000000
  eigenvalues    EBANDS =       -82.96532203
  atomic energy  EATOM  =      4914.84383268
  Solvation  Ediel_sol  =         0.00000000
  ---------------------------------------------------
  free energy    TOTEN  =       239.46122974 eV

  energy without entropy =      239.46122974  energy(sigma->0) =      239.46122974


--------------------------------------------------------------------------------------------------------




--------------------------------------- Iteration      1(   2)  ---------------------------------------


     EDDAV:  cpu time    0.5166: real time    0.5178
 BZINTS: Fermi energy: 12.213226; 28.000000 electrons
         Band energy:-331.657605;  BLOECHL correction: -0.063959
       DOS:  cpu time    0.0335: real time    0.0336
    --------------------------------------------
      LOOP:  cpu time    0.5501: real time    0.5514

 eigenvalue-minimisations  :  3456
 total energy-change (2. order) :-0.2486923E+03  (-0.2388039E+03)
 number of electron      28.0000000 magnetization      10.0000000
 augmentation part       28.0000000 magnetization      10.0000000

 Free energy of the ion-electron system (eV)
  ---------------------------------------------------
  alpha Z        PSCENC =       218.87048721
  Ewald energy   TEWEN  =     -3616.56080017
  -Hartree energ DENC   =     -1162.86386254
  -exchange      EXHF   =         0.00000000
  -V(xc)+E(xc)   XCENC  =       147.54621443
  PAW double counting   =      3997.93860218    -4177.34792201
  entropy T*S    EENTRO =         0.00000000
  eigenvalues    EBANDS =      -331.65760524
  atomic energy  EATOM  =      4914.84383268
  Solvation  Ediel_sol  =         0.00000000
  ---------------------------------------------------
  free energy    TOTEN  =        -9.23105347 eV

  energy without entropy =       -9.23105347  energy(sigma->0) =       -9.23105347


--------------------------------------------------------------------------------------------------------




--------------------------------------- Iteration      1(   3)  ---------------------------------------


     EDDAV:  cpu time    0.5225: real time    0.5240
 BZINTS: Fermi energy: 12.036998; 28.000000 electrons
         Band energy:-338.642017;  BLOECHL correction: -0.071267
       DOS:  cpu time    0.0343: real time    0.0343
    --------------------------------------------
      LOOP:  cpu time    0.5567: real time    0.5583

 eigenvalue-minimisations  :  3612
 total energy-change (2. order) :-0.6984412E+01  (-0.6960722E+01)
 number of electron      28.0000000 magnetization      10.0000000
 augmentation part       28.0000000 magnetization      10.0000000

 Free energy of the ion-electron system (eV)
  ---------------------------------------------------
  alpha Z        PSCENC =       218.87048721
  Ewald energy   TEWEN  =     -3616.56080017
  -Hartree energ DENC   =     -1162.86386254
  -exchange      EXHF   =         0.00000000
  -V(xc)+E(xc)   XCENC  =       147.54621443
  PAW double counting   =      3997.93860218    -4177.34792201
  entropy T*S    EENTRO =         0.00000000
  eigenvalues    EBANDS =      -338.64201742
  atomic energy  EATOM  =      4914.84383268
  Solvation  Ediel_sol  =         0.00000000
  ---------------------------------------------------
  free energy    TOTEN  =       -16.21546565 eV

  energy without entropy =      -16.21546565  energy(sigma->0) =      -16.21546565


--------------------------------------------------------------------------------------------------------




--------------------------------------- Iteration      1(   4)  ---------------------------------------


     EDDAV:  cpu time    0.5724: real time    0.5739
 BZINTS: Fermi energy: 12.036535; 28.000000 electrons
         Band energy:-338.700800;  BLOECHL correction: -0.071271
       DOS:  cpu time    0.0324: real time    0.0325
    --------------------------------------------
      LOOP:  cpu time    0.6049: real time    0.6064

 eigenvalue-minimisations  :  3972
 total energy-change (2. order) :-0.5878229E-01  (-0.5878410E-01)
 number of electron      28.0000000 magnetization      10.0000000
 augmentation part       28.0000000 magnetization      10.0000000

 Free energy of the ion-electron system (eV)
  ---------------------------------------------------
  alpha Z        PSCENC =       218.87048721
  Ewald energy   TEWEN  =     -3616.56080017
  -Hartree energ DENC   =     -1162.86386254
  -exchange      EXHF   =         0.00000000
  -V(xc)+E(xc)   XCENC  =       147.54621443
  PAW double counting   =      3997.93860218    -4177.34792201
  entropy T*S    EENTRO =         0.00000000
  eigenvalues    EBANDS =      -338.70079971
  atomic energy  EATOM  =      4914.84383268
  Solvation  Ediel_sol  =         0.00000000
  ---------------------------------------------------
  free energy    TOTEN  =       -16.27424794 eV

  energy without entropy =      -16.27424794  energy(sigma->0) =      -16.27424794


--------------------------------------------------------------------------------------------------------




--------------------------------------- Iteration      1(   5)  ---------------------------------------


     EDDAV:  cpu time    0.5293: real time    0.5306
 BZINTS: Fermi energy: 12.036534; 28.000000 electrons
         Band energy:-338.701883;  BLOECHL correction: -0.071271
       DOS:  cpu time    0.0342: real time    0.0343
    CHARGE:  cpu time    0.0213: real time    0.0213
    MIXING:  cpu time    0.0007: real time    0.0007
    --------------------------------------------
      LOOP:  cpu time    0.5855: real time    0.5870

 eigenvalue-minimisations  :  3600
 total energy-change (2. order) :-0.1083580E-02  (-0.1083611E-02)
 number of electron      27.9999985 magnetization       4.3572271
 augmentation part       15.9043038 magnetization       2.8334581

 Broyden mixing:
  rms(total) = 0.24996E+01    rms(broyden)= 0.24995E+01
  rms(prec ) = 0.39517E+01
  weight for this iteration     100.00

 Free energy of the ion-electron system (eV)
  ---------------------------------------------------
  alpha Z        PSCENC =       218.87048721
  Ewald energy   TEWEN  =     -3616.56080017
  -Hartree energ DENC   =     -1162.86386254
  -exchange      EXHF   =         0.00000000
  -V(xc)+E(xc)   XCENC  =       147.54621443
  PAW double counting   =      3997.93860218    -4177.34792201
  entropy T*S    EENTRO =         0.00000000
  eigenvalues    EBANDS =      -338.70188329
  atomic energy  EATOM  =      4914.84383268
  Solvation  Ediel_sol  =         0.00000000
  ---------------------------------------------------
  free energy    TOTEN  =       -16.27533152 eV

  energy without entropy =      -16.27533152  energy(sigma->0) =      -16.27533152


--------------------------------------------------------------------------------------------------------




--------------------------------------- Iteration      1(   6)  ---------------------------------------


    POTLOK:  cpu time    0.0104: real time    0.0108
    SETDIJ:  cpu time    0.0055: real time    0.0055
     EDDAV:  cpu time    0.5035: real time    0.5046
 BZINTS: Fermi energy:  9.265665; 28.000000 electrons
         Band energy:-409.595404;  BLOECHL correction: -0.036201
       DOS:  cpu time    0.0340: real time    0.0340
    CHARGE:  cpu time    0.0205: real time    0.0205
    MIXING:  cpu time    0.0005: real time    0.0006
    --------------------------------------------
      LOOP:  cpu time    0.5744: real time    0.5761

 eigenvalue-minimisations  :  3444
 total energy-change (2. order) :-0.1838672E+00  (-0.7492644E+00)
 number of electron      27.9999984 magnetization       4.5318458
 augmentation part       17.0677554 magnetization       3.5496008

 Broyden mixing:
  rms(total) = 0.69122E+00    rms(broyden)= 0.69122E+00
  rms(prec ) = 0.86640E+00
  weight for this iteration     100.00

 eigenvalues of (default mixing * dielectric matrix)
  average eigenvalue GAMMA=   0.8370
  0.8370

 Free energy of the ion-electron system (eV)
  ---------------------------------------------------
  alpha Z        PSCENC =       218.87048721
  Ewald energy   TEWEN  =     -3616.56080017
  -Hartree energ DENC   =     -1089.08471822
  -exchange      EXHF   =         0.00000000
  -V(xc)+E(xc)   XCENC  =       140.63812327
  PAW double counting   =      4113.94414195    -4289.51486120
  entropy T*S    EENTRO =         0.00000000
  eigenvalues    EBANDS =      -409.59540421
  atomic energy  EATOM  =      4914.84383268
  Solvation  Ediel_sol  =         0.00000000
  ---------------------------------------------------
  free energy    TOTEN  =       -16.45919869 eV

  energy without entropy =      -16.45919869  energy(sigma->0) =      -16.45919869


--------------------------------------------------------------------------------------------------------




--------------------------------------- Iteration      1(   7)  ---------------------------------------


    POTLOK:  cpu time    0.0103: real time    0.0104
    SETDIJ:  cpu time    0.0053: real time    0.0053
     EDDAV:  cpu time    0.4971: real time    0.4982
 BZINTS: Fermi energy:  9.762090; 28.000000 electrons
         Band energy:-395.212410;  BLOECHL correction: -0.033727
       DOS:  cpu time    0.0339: real time    0.0340
    CHARGE:  cpu time    0.0205: real time    0.0206
    MIXING:  cpu time    0.0004: real time    0.0004
    --------------------------------------------
      LOOP:  cpu time    0.5674: real time    0.5689

 eigenvalue-minimisations  :  3420
 total energy-change (2. order) :-0.5459402E-01  (-0.6146101E-01)
 number of electron      27.9999985 magnetization       4.4436328
 augmentation part       16.7742668 magnetization       3.5266110

 Broyden mixing:
  rms(total) = 0.43080E+00    rms(broyden)= 0.43080E+00
  rms(prec ) = 0.52582E+00
  weight for this iteration     100.00

 eigenvalues of (default mixing * dielectric matrix)
  average eigenvalue GAMMA=   0.7674
  0.9881  0.5466

 Free energy of the ion-electron system (eV)
  ---------------------------------------------------
  alpha Z        PSCENC =       218.87048721
  Ewald energy   TEWEN  =     -3616.56080017
  -Hartree energ DENC   =     -1099.07597865
  -exchange      EXHF   =         0.00000000
  -V(xc)+E(xc)   XCENC  =       141.33069346
  PAW double counting   =      4219.90042920    -4400.61004674
  entropy T*S    EENTRO =         0.00000000
  eigenvalues    EBANDS =      -395.21240971
  atomic energy  EATOM  =      4914.84383268
  Solvation  Ediel_sol  =         0.00000000
  ---------------------------------------------------
  free energy    TOTEN  =       -16.51379271 eV

  energy without entropy =      -16.51379271  energy(sigma->0) =      -16.51379271


--------------------------------------------------------------------------------------------------------




--------------------------------------- Iteration      1(   8)  ---------------------------------------


    POTLOK:  cpu time    0.0103: real time    0.0104
    SETDIJ:  cpu time    0.0052: real time    0.0053
     EDDAV:  cpu time    0.5506: real time    0.5519
 BZINTS: Fermi energy:  9.688575; 28.000000 electrons
         Band energy:-397.475736;  BLOECHL correction: -0.033982
       DOS:  cpu time    0.0339: real time    0.0340
    CHARGE:  cpu time    0.0204: real time    0.0204
    MIXING:  cpu time    0.0004: real time    0.0004
    --------------------------------------------
      LOOP:  cpu time    0.6208: real time    0.6224

 eigenvalue-minimisations  :  3792
 total energy-change (2. order) :-0.9714602E-02  (-0.1512316E-02)
 number of electron      27.9999985 magnetization       4.3698125
 augmentation part       16.8103473 magnetization       3.4530334

 Broyden mixing:
  rms(total) = 0.13694E+00    rms(broyden)= 0.13694E+00
  rms(prec ) = 0.21418E+00
  weight for this iteration     100.00

 eigenvalues of (default mixing * dielectric matrix)
  average eigenvalue GAMMA=   1.0475
  1.6987  0.8570  0.5868

 Free energy of the ion-electron system (eV)
  ---------------------------------------------------
  alpha Z        PSCENC =       218.87048721
  Ewald energy   TEWEN  =     -3616.56080017
  -Hartree energ DENC   =     -1095.16264367
  -exchange      EXHF   =         0.00000000
  -V(xc)+E(xc)   XCENC  =       141.10680795
  PAW double counting   =      4267.93472493    -4450.08018032
  entropy T*S    EENTRO =         0.00000000
  eigenvalues    EBANDS =      -397.47573591
  atomic energy  EATOM  =      4914.84383268
  Solvation  Ediel_sol  =         0.00000000
  ---------------------------------------------------
  free energy    TOTEN  =       -16.52350731 eV

  energy without entropy =      -16.52350731  energy(sigma->0) =      -16.52350731


--------------------------------------------------------------------------------------------------------




--------------------------------------- Iteration      1(   9)  ---------------------------------------


    POTLOK:  cpu time    0.0103: real time    0.0105
    SETDIJ:  cpu time    0.0053: real time    0.0053
     EDDAV:  cpu time    0.5249: real time    0.5261
 BZINTS: Fermi energy:  9.610455; 28.000000 electrons
         Band energy:-399.765584;  BLOECHL correction: -0.034534
       DOS:  cpu time    0.0330: real time    0.0331
    CHARGE:  cpu time    0.0204: real time    0.0205
    MIXING:  cpu time    0.0004: real time    0.0004
    --------------------------------------------
      LOOP:  cpu time    0.5943: real time    0.5958

 eigenvalue-minimisations  :  3648
 total energy-change (2. order) : 0.8283765E-02  (-0.5241289E-03)
 number of electron      27.9999985 magnetization       4.4016432
 augmentation part       16.8465216 magnetization       3.4829480

 Broyden mixing:
  rms(total) = 0.33690E-01    rms(broyden)= 0.33690E-01
  rms(prec ) = 0.45941E-01
  weight for this iteration     100.00

 eigenvalues of (default mixing * dielectric matrix)
  average eigenvalue GAMMA=   1.1854
  2.3391  1.0619  0.6994  0.6413

 Free energy of the ion-electron system (eV)
  ---------------------------------------------------
  alpha Z        PSCENC =       218.87048721
  Ewald energy   TEWEN  =     -3616.56080017
  -Hartree energ DENC   =     -1090.25531200
  -exchange      EXHF   =         0.00000000
  -V(xc)+E(xc)   XCENC  =       140.86358465
  PAW double counting   =      4344.45664431    -4528.96807593
  entropy T*S    EENTRO =         0.00000000
  eigenvalues    EBANDS =      -399.76558430
  atomic energy  EATOM  =      4914.84383268
  Solvation  Ediel_sol  =         0.00000000
  ---------------------------------------------------
  free energy    TOTEN  =       -16.51522354 eV

  energy without entropy =      -16.51522354  energy(sigma->0) =      -16.51522354


--------------------------------------------------------------------------------------------------------




--------------------------------------- Iteration      1(  10)  ---------------------------------------


    POTLOK:  cpu time    0.0103: real time    0.0104
    SETDIJ:  cpu time    0.0052: real time    0.0052
     EDDAV:  cpu time    0.5040: real time    0.5052
 BZINTS: Fermi energy:  9.624894; 28.000000 electrons
         Band energy:-399.224238;  BLOECHL correction: -0.034692
       DOS:  cpu time    0.0339: real time    0.0340
    CHARGE:  cpu time    0.0211: real time    0.0212
    MIXING:  cpu time    0.0005: real time    0.0005
    --------------------------------------------
      LOOP:  cpu time    0.5751: real time    0.5766

 eigenvalue-minimisations  :  3480
 total energy-change (2. order) : 0.1985992E-03  (-0.2239160E-03)
 number of electron      27.9999985 magnetization       4.4064109
 augmentation part       16.8345224 magnetization       3.4849575

 Broyden mixing:
  rms(total) = 0.44136E-02    rms(broyden)= 0.44136E-02
  rms(prec ) = 0.54497E-02
  weight for this iteration     100.00

 eigenvalues of (default mixing * dielectric matrix)
  average eigenvalue GAMMA=   1.1291
  2.4317  1.0998  0.7831  0.6971  0.6338

 Free energy of the ion-electron system (eV)
  ---------------------------------------------------
  alpha Z        PSCENC =       218.87048721
  Ewald energy   TEWEN  =     -3616.56080017
  -Hartree energ DENC   =     -1089.87162437
  -exchange      EXHF   =         0.00000000
  -V(xc)+E(xc)   XCENC  =       140.87099194
  PAW double counting   =      4373.25484314    -4558.69851749
  entropy T*S    EENTRO =         0.00000000
  eigenvalues    EBANDS =      -399.22423788
  atomic energy  EATOM  =      4914.84383268
  Solvation  Ediel_sol  =         0.00000000
  ---------------------------------------------------
  free energy    TOTEN  =       -16.51502494 eV

  energy without entropy =      -16.51502494  energy(sigma->0) =      -16.51502494


--------------------------------------------------------------------------------------------------------




--------------------------------------- Iteration      1(  11)  ---------------------------------------


    POTLOK:  cpu time    0.0111: real time    0.0116
    SETDIJ:  cpu time    0.0055: real time    0.0056
     EDDAV:  cpu time    0.5221: real time    0.5234
 BZINTS: Fermi energy:  9.623325; 28.000000 electrons
         Band energy:-399.256678;  BLOECHL correction: -0.034710
       DOS:  cpu time    0.0339: real time    0.0339
    CHARGE:  cpu time    0.0205: real time    0.0206
    MIXING:  cpu time    0.0005: real time    0.0005
    --------------------------------------------
      LOOP:  cpu time    0.5937: real time    0.5956

 eigenvalue-minimisations  :  3588
 total energy-change (2. order) :-0.5993172E-04  (-0.4955982E-05)
 number of electron      27.9999985 magnetization       4.4058089
 augmentation part       16.8350805 magnetization       3.4846142

 Broyden mixing:
  rms(total) = 0.24173E-02    rms(broyden)= 0.24173E-02
  rms(prec ) = 0.32640E-02
  weight for this iteration     100.00

 eigenvalues of (default mixing * dielectric matrix)
  average eigenvalue GAMMA=   1.2960
  2.3073  2.3073  1.0749  0.6331  0.7557  0.6976

 Free energy of the ion-electron system (eV)
  ---------------------------------------------------
  alpha Z        PSCENC =       218.87048721
  Ewald energy   TEWEN  =     -3616.56080017
  -Hartree energ DENC   =     -1089.86397903
  -exchange      EXHF   =         0.00000000
  -V(xc)+E(xc)   XCENC  =       140.87330243
  PAW double counting   =      4374.46805248    -4559.88930258
  entropy T*S    EENTRO =         0.00000000
  eigenvalues    EBANDS =      -399.25667790
  atomic energy  EATOM  =      4914.84383268
  Solvation  Ediel_sol  =         0.00000000
  ---------------------------------------------------
  free energy    TOTEN  =       -16.51508488 eV

  energy without entropy =      -16.51508488  energy(sigma->0) =      -16.51508488


--------------------------------------------------------------------------------------------------------




--------------------------------------- Iteration      1(  12)  ---------------------------------------


    POTLOK:  cpu time    0.0105: real time    0.0109
    SETDIJ:  cpu time    0.0053: real time    0.0053
     EDDAV:  cpu time    0.5705: real time    0.5718
 BZINTS: Fermi energy:  9.621800; 28.000000 electrons
         Band energy:-399.290975;  BLOECHL correction: -0.034722
       DOS:  cpu time    0.0339: real time    0.0340
    CHARGE:  cpu time    0.0204: real time    0.0204
    MIXING:  cpu time    0.0005: real time    0.0005
    --------------------------------------------
      LOOP:  cpu time    0.6410: real time    0.6429

 eigenvalue-minimisations  :  3972
 total energy-change (2. order) :-0.8141417E-05  (-0.5003357E-06)
 number of electron      27.9999985 magnetization       4.4055398
 augmentation part       16.8357912 magnetization       3.4846117

 Broyden mixing:
  rms(total) = 0.95419E-03    rms(broyden)= 0.95419E-03
  rms(prec ) = 0.13544E-02
  weight for this iteration     100.00

 eigenvalues of (default mixing * dielectric matrix)
  average eigenvalue GAMMA=   1.2319
  2.3900  2.3900  1.0836  0.7901  0.7162  0.6266  0.6266

 Free energy of the ion-electron system (eV)
  ---------------------------------------------------
  alpha Z        PSCENC =       218.87048721
  Ewald energy   TEWEN  =     -3616.56080017
  -Hartree energ DENC   =     -1089.91584450
  -exchange      EXHF   =         0.00000000
  -V(xc)+E(xc)   XCENC  =       140.87598819
  PAW double counting   =      4375.53489511    -4560.87267675
  entropy T*S    EENTRO =         0.00000000
  eigenvalues    EBANDS =      -399.29097478
  atomic energy  EATOM  =      4914.84383268
  Solvation  Ediel_sol  =         0.00000000
  ---------------------------------------------------
  free energy    TOTEN  =       -16.51509302 eV

  energy without entropy =      -16.51509302  energy(sigma->0) =      -16.51509302


--------------------------------------------------------------------------------------------------------




--------------------------------------- Iteration      1(  13)  ---------------------------------------


    POTLOK:  cpu time    0.0103: real time    0.0104
    SETDIJ:  cpu time    0.0052: real time    0.0052
     EDDAV:  cpu time    0.5125: real time    0.5138
 BZINTS: Fermi energy:  9.622406; 28.000000 electrons
         Band energy:-399.278454;  BLOECHL correction: -0.034714
       DOS:  cpu time    0.0339: real time    0.0340
    CHARGE:  cpu time    0.0202: real time    0.0202
    MIXING:  cpu time    0.0005: real time    0.0005
    --------------------------------------------
      LOOP:  cpu time    0.5826: real time    0.5841

 eigenvalue-minimisations  :  3540
 total energy-change (2. order) : 0.6754530E-05  (-0.1299855E-06)
 number of electron      27.9999985 magnetization       4.4053414
 augmentation part       16.8354871 magnetization       3.4843032

 Broyden mixing:
  rms(total) = 0.24762E-03    rms(broyden)= 0.24762E-03
  rms(prec ) = 0.33833E-03
  weight for this iteration     100.00

 eigenvalues of (default mixing * dielectric matrix)
  average eigenvalue GAMMA=   1.2902
  2.5193  2.4441  1.4849  1.0645  0.8084  0.6259  0.6872  0.6872

 Free energy of the ion-electron system (eV)
  ---------------------------------------------------
  alpha Z        PSCENC =       218.87048721
  Ewald energy   TEWEN  =     -3616.56080017
  -Hartree energ DENC   =     -1089.92281114
  -exchange      EXHF   =         0.00000000
  -V(xc)+E(xc)   XCENC  =       140.87588389
  PAW double counting   =      4375.66068578    -4561.00391036
  entropy T*S    EENTRO =         0.00000000
  eigenvalues    EBANDS =      -399.27845415
  atomic energy  EATOM  =      4914.84383268
  Solvation  Ediel_sol  =         0.00000000
  ---------------------------------------------------
  free energy    TOTEN  =       -16.51508626 eV

  energy without entropy =      -16.51508626  energy(sigma->0) =      -16.51508626


--------------------------------------------------------------------------------------------------------




--------------------------------------- Iteration      1(  14)  ---------------------------------------


    POTLOK:  cpu time    0.0104: real time    0.0105
    SETDIJ:  cpu time    0.0052: real time    0.0052
     EDDAV:  cpu time    0.4353: real time    0.4364
 BZINTS: Fermi energy:  9.622647; 28.000000 electrons
         Band energy:-399.273566;  BLOECHL correction: -0.034713
       DOS:  cpu time    0.0330: real time    0.0331
    CHARGE:  cpu time    0.0202: real time    0.0202
    MIXING:  cpu time    0.0006: real time    0.0006
    --------------------------------------------
      LOOP:  cpu time    0.5046: real time    0.5059

 eigenvalue-minimisations  :  2748
 total energy-change (2. order) : 0.1552738E-05  (-0.1546603E-07)
 number of electron      27.9999985 magnetization       4.4053588
 augmentation part       16.8353721 magnetization       3.4842870

 Broyden mixing:
  rms(total) = 0.65492E-04    rms(broyden)= 0.65489E-04
  rms(prec ) = 0.86085E-04
  weight for this iteration     100.00

 eigenvalues of (default mixing * dielectric matrix)
  average eigenvalue GAMMA=   1.2119
  2.6077  2.4652  1.2899  1.0505  0.8271  0.6325  0.6634  0.6856  0.6856

 Free energy of the ion-electron system (eV)
  ---------------------------------------------------
  alpha Z        PSCENC =       218.87048721
  Ewald energy   TEWEN  =     -3616.56080017
  -Hartree energ DENC   =     -1089.92523764
  -exchange      EXHF   =         0.00000000
  -V(xc)+E(xc)   XCENC  =       140.87571811
  PAW double counting   =      4375.66164723    -4561.00716592
  entropy T*S    EENTRO =         0.00000000
  eigenvalues    EBANDS =      -399.27356622
  atomic energy  EATOM  =      4914.84383268
  Solvation  Ediel_sol  =         0.00000000
  ---------------------------------------------------
  free energy    TOTEN  =       -16.51508471 eV

  energy without entropy =      -16.51508471  energy(sigma->0) =      -16.51508471


--------------------------------------------------------------------------------------------------------




--------------------------------------- Iteration      1(  15)  ---------------------------------------


    POTLOK:  cpu time    0.0103: real time    0.0104
    SETDIJ:  cpu time    0.0052: real time    0.0052
     EDDAV:  cpu time    0.3273: real time    0.3281
 BZINTS: Fermi energy:  9.622613; 28.000000 electrons
         Band energy:-399.274489;  BLOECHL correction: -0.034713
       DOS:  cpu time    0.0330: real time    0.0331
    --------------------------------------------
      LOOP:  cpu time    0.3758: real time    0.3768

 eigenvalue-minimisations  :  1740
 total energy-change (2. order) :-0.1666649E-07  (-0.1117215E-08)
 number of electron      27.9999985 magnetization       4.4053588
 augmentation part       16.8353721 magnetization       3.4842870

 Free energy of the ion-electron system (eV)
  ---------------------------------------------------
  alpha Z        PSCENC =       218.87048721
  Ewald energy   TEWEN  =     -3616.56080017
  -Hartree energ DENC   =     -1089.92484541
  -exchange      EXHF   =         0.00000000
  -V(xc)+E(xc)   XCENC  =       140.87574994
  PAW double counting   =      4375.65702083    -4561.00204033
  entropy T*S    EENTRO =         0.00000000
  eigenvalues    EBANDS =      -399.27448948
  atomic energy  EATOM  =      4914.84383268
  Solvation  Ediel_sol  =         0.00000000
  ---------------------------------------------------
  free energy    TOTEN  =       -16.51508473 eV

  energy without entropy =      -16.51508473  energy(sigma->0) =      -16.51508473


--------------------------------------------------------------------------------------------------------




 average (electrostatic) potential at core
  the test charge radii are     0.9500
  (the norm of the test charge is              1.0000)
       1 -73.6650       2 -73.6650
 
 
 
 E-fermi :   9.6226     XC(G=0): -13.6242     alpha+bet :-17.4163


 spin component 1

 k-point     1 :       0.0500    0.0500    0.0500
  band No.  band energies     occupation 
      1     -44.5605      1.00000
      2     -44.5605      1.00000
      3     -44.5462      1.00000
      4     -44.2895      1.00000
      5     -44.2748      1.00000
      6     -44.2748      1.00000
      7       1.3982      1.00000
      8       4.9380      1.00000
      9       4.9380      1.00000
     10       7.3046      1.00000
     11       7.3046      1.00000
     12       7.4307      1.00000
     13       8.5803      1.00000
     14       8.5803      1.00000
     15       9.4947      1.00000
     16       9.6871      0.60065
     17       9.6871      0.00978
     18      19.1996      0.00000
     19      19.1996      0.00000
     20      19.4416      0.00000
     21      25.8102      0.00000
     22      25.8102      0.00000
     23      30.6969      0.00000
     24      33.3488      0.00000

 k-point     2 :       0.1500    0.0500    0.0500
  band No.  band energies     occupation 
      1     -44.5665      1.00000
      2     -44.5457      1.00000
      3     -44.5241      1.00000
      4     -44.3212      1.00000
      5     -44.2879      1.00000
      6     -44.2803      1.00000
      7       1.8018      1.00000
      8       5.1059      1.00000
      9       5.1082      1.00000
     10       7.2461      1.00000
     11       7.2944      1.00000
     12       7.5989      1.00000
     13       8.4141      1.00000
     14       8.6552      1.00000
     15       9.1040      1.00000
     16       9.3725      1.02104
     17       9.6657      0.13599
     18      17.0988      0.00000
     19      19.9186      0.00000
     20      20.0957      0.00000
     21      25.9617      0.00000
     22      27.1438      0.00000
     23      31.5525      0.00000
     24      32.1496      0.00000

 k-point     3 :       0.2500    0.0500    0.0500
  band No.  band energies     occupation 
      1     -44.5637      1.00000
      2     -44.5179      1.00000
      3     -44.4934      1.00000
      4     -44.3689      1.00000
      5     -44.3133      1.00000
      6     -44.3003      1.00000
      7       2.5673      1.00000
      8       5.3673      1.00000
      9       5.4272      1.00000
     10       7.2422      1.00000
     11       7.2872      1.00000
     12       7.8415      1.00000
     13       8.1077      1.00000
     14       8.6065      1.00000
     15       8.7946      1.00000
     16       8.8889      1.00000
     17       9.4858      1.03908
     18      14.5756      0.00000
     19      21.1877      0.00000
     20      21.3584      0.00000
     21      26.2944      0.00000
     22      27.9716      0.00000
     23      29.6288      0.00000
     24      31.2959      0.00000

 k-point     4 :       0.3500    0.0500    0.0500
  band No.  band energies     occupation 
      1     -44.5493      1.00000
      2     -44.4801      1.00000
      3     -44.4554      1.00000
      4     -44.4242      1.00000
      5     -44.3487      1.00000
      6     -44.3316      1.00000
      7       3.5893      1.00000
      8       5.5400      1.00000
      9       5.8723      1.00000
     10       7.2456      1.00000
     11       7.3211      1.00000
     12       7.7678      1.00000
     13       8.1303      1.00000
     14       8.1501      1.00000
     15       8.3928      1.00000
     16       9.0191      1.00000
     17       9.2003      1.03868
     18      12.2832      0.00000
     19      22.7945      0.00000
     20      23.0073      0.00000
     21      26.8754      0.00000
     22      27.8748      0.00000
     23      28.6103      0.00000
     24      29.1474      0.00000

 k-point     5 :       0.4500    0.0500    0.0500
  band No.  band energies     occupation 
      1     -44.5205      1.00000
      2     -44.4774      1.00000
      3     -44.4362      1.00000
      4     -44.4132      1.00000
      5     -44.3910      1.00000
      6     -44.3706      1.00000
      7       4.6410      1.00000
      8       5.3580      1.00000
      9       6.3944      1.00000
     10       6.9172      1.00000
     11       7.4989      1.00000
     12       7.7310      1.00000
     13       7.7623      1.00000
     14       7.9854      1.00000
     15       8.4989      1.00000
     16       8.8573      1.00000
     17       9.4832      0.98551
     18      10.5197      0.00000
     19      24.5323      0.00000
     20      24.9045      0.00000
     21      26.2267      0.00000
     22      26.9671      0.00000
     23      27.8211      0.00000
     24      29.2507      0.00000

 k-point     6 :       0.1500    0.1500    0.0500
  band No.  band energies     occupation 
      1     -44.5805      1.00000
      2     -44.5369      1.00000
      3     -44.4918      1.00000
      4     -44.3627      1.00000
      5     -44.2982      1.00000
      6     -44.2748      1.00000
      7       2.1896      1.00000
      8       5.2389      1.00000
      9       5.2977      1.00000
     10       7.0935      1.00000
     11       7.2372      1.00000
     12       7.8699      1.00000
     13       8.4385      1.00000
     14       8.6105      1.00000
     15       8.6245      1.00000
     16       9.1496      1.00691
     17       9.7347      0.03131
     18      17.1959      0.00000
     19      18.2809      0.00000
     20      20.6508      0.00000
     21      26.6282      0.00000
     22      28.5392      0.00000
     23      29.9219      0.00000
     24      31.9695      0.00000

 k-point     7 :       0.2500    0.1500    0.0500
  band No.  band energies     occupation 
      1     -44.5898      1.00000
      2     -44.5114      1.00000
      3     -44.4540      1.00000
      4     -44.4174      1.00000
      5     -44.3212      1.00000
      6     -44.2822      1.00000
      7       2.9159      1.00000
      8       5.4552      1.00000
      9       5.6204      1.00000
     10       6.9879      1.00000
     11       7.1822      1.00000
     12       8.1056      1.00000
     13       8.2000      1.00000
     14       8.2824      1.00000
     15       8.7215      1.00000
     16       8.7243      1.00000
     17       9.6885      0.28904
     18      14.9838      0.00000
     19      19.0120      0.00000
     20      21.7956      0.00000
     21      27.0199      0.00000
     22      27.7477      0.00000
     23      29.9238      0.00000
     24      30.6412      0.00000

 k-point     8 :       0.3500    0.1500    0.0500
  band No.  band energies     occupation 
      1     -44.5857      1.00000
      2     -44.4759      1.00000
      3     -44.4752      1.00000
      4     -44.4133      1.00000
      5     -44.3536      1.00000
      6     -44.3032      1.00000
      7       3.8581      1.00000
      8       5.5953      1.00000
      9       6.0114      1.00000
     10       6.9643      1.00000
     11       7.1187      1.00000
     12       7.6669      1.00000
     13       8.0930      1.00000
     14       8.3376      1.00000
     15       8.5642      1.00000
     16       8.9632      1.00000
     17       9.4968      0.92384
     18      12.6533      0.00000
     19      20.3761      0.00000
     20      23.3120      0.00000
     21      25.6604      0.00000
     22      27.5889      0.00000
     23      28.7790      0.00000
     24      30.9263      0.00000

 k-point     9 :       0.4500    0.1500    0.0500
  band No.  band energies     occupation 
      1     -44.5648      1.00000
      2     -44.5267      1.00000
      3     -44.4349      1.00000
      4     -44.3927      1.00000
      5     -44.3723      1.00000
      6     -44.3344      1.00000
      7       4.7817      1.00000
      8       5.4044      1.00000
      9       6.4365      1.00000
     10       6.8148      1.00000
     11       7.1496      1.00000
     12       7.3555      1.00000
     13       8.0548      1.00000
     14       8.1284      1.00000
     15       8.8893      1.00000
     16       9.2081      1.00000
     17       9.5412      0.77842
     18      10.7644      0.00000
     19      21.9648      0.00000
     20      23.7292      0.00000
     21      25.0473      0.00000
     22      26.8830      0.00000
     23      28.4945      0.00000
     24      29.8473      0.00000

 k-point    10 :       0.2500    0.2500    0.0500
  band No.  band energies     occupation 
      1     -44.6130      1.00000
      2     -44.4907      1.00000
      3     -44.4771      1.00000
      4     -44.4111      1.00000
      5     -44.3389      1.00000
      6     -44.2749      1.00000
      7       3.5388      1.00000
      8       5.5102      1.00000
      9       6.0139      1.00000
     10       6.7712      1.00000
     11       7.1535      1.00000
     12       7.5985      1.00000
     13       8.4262      1.00000
     14       8.4287      1.00000
     15       8.6229      1.00000
     16       8.6648      1.00000
     17       9.8079     -0.03397
     18      14.8630      0.00000
     19      17.4658      0.00000
     20      22.7547      0.00000
     21      25.3834      0.00000
     22      27.3661      0.00000
     23      30.0595      0.00000
     24      32.3850      0.00000

 k-point    11 :       0.3500    0.2500    0.0500
  band No.  band energies     occupation 
      1     -44.6222      1.00000
      2     -44.5353      1.00000
      3     -44.4619      1.00000
      4     -44.3696      1.00000
      5     -44.3643      1.00000
      6     -44.2821      1.00000
      7       4.2635      1.00000
      8       5.4675      1.00000
      9       6.4671      1.00000
     10       6.6637      1.00000
     11       7.1891      1.00000
     12       7.2434      1.00000
     13       8.2726      1.00000
     14       8.4045      1.00000
     15       8.8096      1.00000
     16       9.0698      1.02188
     17       9.7580      0.00392
     18      13.0482      0.00000
     19      18.1034      0.00000
     20      23.1678      0.00000
     21      24.0661      0.00000
     22      27.8479      0.00000
     23      28.7850      0.00000
     24      31.4419      0.00000

 k-point    12 :       0.4500    0.2500    0.0500
  band No.  band energies     occupation 
      1     -44.6125      1.00000
      2     -44.5826      1.00000
      3     -44.4288      1.00000
      4     -44.3951      1.00000
      5     -44.3323      1.00000
      6     -44.3022      1.00000
      7       4.8665      1.00000
      8       5.2595      1.00000
      9       6.6820      1.00000
     10       6.7707      1.00000
     11       7.0120      1.00000
     12       7.2241      1.00000
     13       8.3123      1.00000
     14       8.3952      1.00000
     15       9.1811      1.00000
     16       9.5468      0.95169
     17       9.7287      0.02973
     18      11.1094      0.00000
     19      19.4888      0.00000
     20      21.1931      0.00000
     21      25.5958      0.00000
     22      27.2067      0.00000
     23      28.6469      0.00000
     24      29.8691      0.00000

 k-point    13 :       0.3500    0.3500    0.0500
  band No.  band energies     occupation 
      1     -44.6453      1.00000
      2     -44.5898      1.00000
      3     -44.4426      1.00000
      4     -44.3798      1.00000
      5     -44.3312      1.00000
      6     -44.2750      1.00000
      7       4.6031      1.00000
      8       5.2498      1.00000
      9       6.4670      1.00000
     10       6.7898      1.00000
     11       7.0687      1.00000
     12       7.8004      1.00000
     13       8.3288      1.00000
     14       8.5818      1.00000
     15       8.7312      1.00000
     16       9.5045      0.96280
     17       9.8584     -0.00496
     18      12.6726      0.00000
     19      17.0753      0.00000
     20      20.9325      0.00000
     21      25.1101      0.00000
     22      28.2078      0.00000
     23      28.4080      0.00000
     24      30.7489      0.00000

 k-point    14 :       0.4500    0.3500    0.0500
  band No.  band energies     occupation 
      1     -44.6486      1.00000
      2     -44.6295      1.00000
      3     -44.4208      1.00000
      4     -44.3991      1.00000
      5     -44.3013      1.00000
      6     -44.2819      1.00000
      7       4.8275      1.00000
      8       5.0272      1.00000
      9       6.4156      1.00000
     10       6.5250      1.00000
     11       7.6334      1.00000
     12       8.0155      1.00000
     13       8.4769      1.00000
     14       8.6081      1.00000
     15       9.2344      1.00000
     16       9.7475      0.31688
     17      10.0490      0.00000
     18      11.2874      0.00000
     19      17.6522      0.00000
     20      19.0564      0.00000
     21      26.3161      0.00000
     22      27.4991      0.00000
     23      28.8184      0.00000
     24      29.7272      0.00000

 k-point    15 :       0.4500    0.4500    0.0500
  band No.  band energies     occupation 
      1     -44.6653      1.00000
      2     -44.6587      1.00000
      3     -44.4124      1.00000
      4     -44.4050      1.00000
      5     -44.2818      1.00000
      6     -44.2751      1.00000
      7       4.7952      1.00000
      8       4.8567      1.00000
      9       6.2863      1.00000
     10       6.3238      1.00000
     11       8.3604      1.00000
     12       8.5982      1.00000
     13       8.6193      1.00000
     14       8.7801      1.00000
     15       9.2763      1.00000
     16       9.7025      0.28324
     17      10.4352      0.00000
     18      10.9857      0.00000
     19      16.9429      0.00000
     20      17.5290      0.00000
     21      27.0344      0.00000
     22      27.4879      0.00000
     23      29.0849      0.00000
     24      29.4299      0.00000

 k-point    16 :       0.1500    0.1500    0.1500
  band No.  band energies     occupation 
      1     -44.5648      1.00000
      2     -44.5648      1.00000
      3     -44.4560      1.00000
      4     -44.4002      1.00000
      5     -44.2890      1.00000
      6     -44.2890      1.00000
      7       2.5669      1.00000
      8       5.4262      1.00000
      9       5.4262      1.00000
     10       7.0360      1.00000
     11       7.0360      1.00000
     12       8.0859      1.00000
     13       8.1860      1.00000
     14       8.5280      1.00000
     15       8.5280      1.00000
     16       9.4249      0.99979
     17       9.4249      1.11222
     18      17.8413      0.00000
     19      17.8413      0.00000
     20      19.2369      0.00000
     21      28.7873      0.00000
     22      28.7873      0.00000
     23      29.7385      0.00000
     24      29.7385      0.00000

 k-point    17 :       0.2500    0.1500    0.1500
  band No.  band energies     occupation 
      1     -44.5851      1.00000
      2     -44.5351      1.00000
      3     -44.4516      1.00000
      4     -44.4179      1.00000
      5     -44.3162      1.00000
      6     -44.2884      1.00000
      7       3.2656      1.00000
      8       5.6654      1.00000
      9       5.6996      1.00000
     10       6.9034      1.00000
     11       6.9348      1.00000
     12       7.5731      1.00000
     13       8.3822      1.00000
     14       8.5849      1.00000
     15       8.6826      1.00000
     16       8.9719      1.00000
     17       9.5063      0.95258
     18      15.4702      0.00000
     19      18.9552      0.00000
     20      19.8767      0.00000
     21      27.5256      0.00000
     22      28.5415      0.00000
     23      29.3029      0.00000
     24      30.5091      0.00000

 k-point    18 :       0.3500    0.1500    0.1500
  band No.  band energies     occupation 
      1     -44.5912      1.00000
      2     -44.5045      1.00000
      3     -44.4947      1.00000
      4     -44.3811      1.00000
      5     -44.3541      1.00000
      6     -44.2991      1.00000
      7       4.1487      1.00000
      8       5.8191      1.00000
      9       5.9786      1.00000
     10       6.7951      1.00000
     11       6.9292      1.00000
     12       7.2679      1.00000
     13       8.2260      1.00000
     14       8.5458      1.00000
     15       8.8082      1.00000
     16       9.1279      1.00000
     17       9.4067      0.92701
     18      13.1244      0.00000
     19      20.3548      0.00000
     20      21.0650      0.00000
     21      25.4924      0.00000
     22      26.4576      0.00000
     23      30.1153      0.00000
     24      31.4556      0.00000

 k-point    19 :       0.4500    0.1500    0.1500
  band No.  band energies     occupation 
      1     -44.5796      1.00000
      2     -44.5495      1.00000
      3     -44.4478      1.00000
      4     -44.3994      1.00000
      5     -44.3475      1.00000
      6     -44.3195      1.00000
      7       4.9803      1.00000
      8       5.5621      1.00000
[...]
     19      18.3222      0.00000
     20      20.7970      0.00000
     21      22.3836      0.00000
     22      24.8363      0.00000
     23      26.2507      0.00000
     24      30.1361      0.00000

 k-point    30 :       0.4500    0.3500    0.2500
  band No.  band energies     occupation 
      1     -42.0279      1.00000
      2     -42.0276      1.00000
      3     -41.8764      1.00000
      4     -41.8251      1.00000
      5     -41.7190      1.00000
      6     -41.7147      1.00000
      7       6.7328      1.00000
      8       7.0448      1.00000
      9       7.9672      1.00000
     10       7.9781      1.00000
     11       8.3644      1.00000
     12       8.4912      1.00000
     13      11.1840      0.00000
     14      11.2346      0.00000
     15      11.5149      0.00000
     16      11.5332      0.00000
     17      13.8173      0.00000
     18      14.8898      0.00000
     19      19.1262      0.00000
     20      20.5768      0.00000
     21      21.9129      0.00000
     22      23.4382      0.00000
     23      26.7661      0.00000
     24      28.2364      0.00000

 k-point    31 :       0.4500    0.4500    0.2500
  band No.  band energies     occupation 
      1     -42.0357      1.00000
      2     -42.0351      1.00000
      3     -41.8570      1.00000
      4     -41.8362      1.00000
      5     -41.7253      1.00000
      6     -41.7216      1.00000
      7       6.8528      1.00000
      8       6.9333      1.00000
      9       7.8844      1.00000
     10       7.8994      1.00000
     11       8.6612      1.00000
     12       8.7304      1.00000
     13      11.3008      0.00000
     14      11.3255      0.00000
     15      11.5264      0.00000
     16      11.5390      0.00000
     17      14.4941      0.00000
     18      15.0170      0.00000
     19      18.3897      0.00000
     20      19.0493      0.00000
     21      23.0062      0.00000
     22      24.1214      0.00000
     23      25.2331      0.00000
     24      26.3293      0.00000

 k-point    32 :       0.3500    0.3500    0.3500
  band No.  band energies     occupation 
      1     -42.0119      1.00000
      2     -41.9616      1.00000
      3     -41.9616      1.00000
      4     -41.7730      1.00000
      5     -41.7730      1.00000
      6     -41.7228      1.00000
      7       6.9264      1.00000
      8       7.5001      1.00000
      9       7.9274      1.00000
     10       7.9274      1.00000
     11       8.0741      1.00000
     12       8.0741      1.00000
     13      11.3763      0.00000
     14      11.3763      0.00000
     15      11.4151      0.00000
     16      11.4151      0.00000
     17      13.8656      0.00000
     18      17.4975      0.00000
     19      17.4975      0.00000
     20      19.8864      0.00000
     21      22.8237      0.00000
     22      22.8237      0.00000
     23      24.1459      0.00000
     24      28.0398      0.00000

 k-point    33 :       0.4500    0.3500    0.3500
  band No.  band energies     occupation 
      1     -42.0065      1.00000
      2     -41.9907      1.00000
      3     -41.8989      1.00000
      4     -41.8339      1.00000
      5     -41.7567      1.00000
      6     -41.7379      1.00000
      7       7.2798      1.00000
      8       7.3819      1.00000
      9       7.8721      1.00000
     10       7.9205      1.00000
     11       8.0466      1.00000
     12       8.2170      1.00000
     13      11.3596      0.00000
     14      11.3849      0.00000
     15      11.5027      0.00000
     16      11.5139      0.00000
     17      14.8064      0.00000
     18      16.0279      0.00000
     19      19.1310      0.00000
     20      20.4297      0.00000
     21      20.9116      0.00000
     22      21.6694      0.00000
     23      24.5509      0.00000
     24      26.0868      0.00000

 k-point    34 :       0.4500    0.4500    0.3500
  band No.  band energies     occupation 
      1     -41.9893      1.00000
      2     -41.9782      1.00000
      3     -41.8851      1.00000
      4     -41.8489      1.00000
      5     -41.7793      1.00000
      6     -41.7647      1.00000
      7       7.4282      1.00000
      8       7.4419      1.00000
      9       7.8022      1.00000
     10       7.8452      1.00000
     11       8.1729      1.00000
     12       8.2612      1.00000
     13      11.4436      0.00000
     14      11.4543      0.00000
     15      11.5332      0.00000
     16      11.5375      0.00000
     17      15.8062      0.00000
     18      16.5887      0.00000
     19      18.5409      0.00000
     20      19.5007      0.00000
     21      21.0125      0.00000
     22      22.1185      0.00000
     23      22.9693      0.00000
     24      24.1594      0.00000

 k-point    35 :       0.4500    0.4500    0.4500
  band No.  band energies     occupation 
      1     -41.9445      1.00000
      2     -41.9121      1.00000
      3     -41.9121      1.00000
      4     -41.8436      1.00000
      5     -41.8436      1.00000
      6     -41.8110      1.00000
      7       7.6624      1.00000
      8       7.8090      1.00000
      9       7.8090      1.00000
     10       7.9080      1.00000
     11       7.9532      1.00000
     12       7.9532      1.00000
     13      11.5392      0.00000
     14      11.5392      0.00000
     15      11.5422      0.00000
     16      11.5422      0.00000
     17      17.1206      0.00000
     18      18.3148      0.00000
     19      18.3148      0.00000
     20      20.0018      0.00000
     21      20.1677      0.00000
     22      20.1677      0.00000
     23      21.5179      0.00000
     24      22.3097      0.00000


--------------------------------------------------------------------------------------------------------


 soft charge-density along one line, spin component           1
         0         1         2         3         4         5         6         7         8         9
 total charge-density along one line
 
 soft charge-density along one line, spin component           2
         0         1         2         3         4         5         6         7         8         9
 total charge-density along one line
 
 pseudopotential strength for first ion, spin component:           1
-44.858   0.000   0.000   7.570  -0.000  -0.000  -0.000  -0.000
  0.000 -44.858   0.000  -0.000   7.570  -0.000   0.000  -0.000
  0.000   0.000 -44.858  -0.000  -0.000   7.570  -0.000   0.000
  7.570  -0.000  -0.000   5.638  -0.000  -0.000  -0.000   0.000
 -0.000   7.570  -0.000  -0.000   5.638  -0.000  -0.000   0.000
 -0.000  -0.000   7.570  -0.000  -0.000   5.638   0.000  -0.000
 -0.000   0.000  -0.000  -0.000  -0.000   0.000  -1.981   0.000
 -0.000  -0.000   0.000   0.000   0.000  -0.000   0.000  -1.981
  0.000  -0.000  -0.000  -0.000   0.000   0.000  -0.000   0.000
  0.000   0.000  -0.000  -0.000   0.000   0.000   0.000   0.000
  0.000  -0.000  -0.000  -0.000   0.000  -0.000   0.000  -0.000
  0.000   0.000  -0.000  -0.000  -0.000   0.000  -2.496   0.000
 -0.000  -0.000   0.000   0.000   0.000  -0.000   0.000  -2.496
  0.000  -0.000  -0.000  -0.000   0.000   0.000  -0.000   0.000
  0.000  -0.000  -0.000  -0.000  -0.000   0.000   0.000   0.000
  0.000  -0.000   0.000  -0.000   0.000  -0.000   0.000  -0.000
  0.000   0.000  -0.000   0.000   0.000  -0.000  -0.000  -0.000
  0.000   0.000   0.000   0.000   0.000  -0.000  -0.000  -0.000
 pseudopotential strength for first ion, spin component:           2
-42.886   0.000   0.000   6.737  -0.000  -0.000  -0.000  -0.000
  0.000 -42.886   0.000  -0.000   6.737  -0.000   0.000  -0.000
  0.000   0.000 -42.886  -0.000  -0.000   6.737  -0.000   0.000
  6.737  -0.000  -0.000   5.866  -0.000  -0.000  -0.000   0.000
 -0.000   6.737  -0.000  -0.000   5.866  -0.000  -0.000   0.000
 -0.000  -0.000   6.737  -0.000  -0.000   5.866   0.000  -0.000
 -0.000   0.000  -0.000  -0.000  -0.000   0.000  -0.455   0.000
 -0.000  -0.000   0.000   0.000   0.000  -0.000   0.000  -0.455
  0.000  -0.000  -0.000  -0.000   0.000   0.000  -0.000   0.000
  0.000   0.000  -0.000  -0.000  -0.000   0.000   0.000   0.000
  0.000  -0.000  -0.000  -0.000   0.000  -0.000   0.000  -0.000
  0.000   0.000  -0.000  -0.000  -0.000   0.000  -0.995   0.000
 -0.000  -0.000   0.000   0.000   0.000  -0.000   0.000  -0.995
  0.000  -0.000  -0.000  -0.000   0.000   0.000  -0.000   0.000
  0.000  -0.000  -0.000  -0.000  -0.000   0.000   0.000   0.000
  0.000  -0.000   0.000  -0.000   0.000  -0.000   0.000  -0.000
  0.000   0.000  -0.000   0.000   0.000  -0.000  -0.000  -0.000
  0.000   0.000  -0.000   0.000   0.000  -0.000  -0.000  -0.000
 total augmentation occupancy for first ion, spin component:           1
  1.992   0.000   0.000  -0.026   0.000  -0.000   0.000   0.000  -0.000   0.000   0.000  -0.000   0.000  -0.000  -0.000  -0.000
  0.000   1.992   0.000  -0.000  -0.026  -0.000  -0.000   0.000   0.000   0.000   0.000  -0.000   0.000   0.000   0.000   0.000
  0.000   0.000   1.992  -0.000   0.000  -0.026   0.000   0.000   0.000   0.000   0.000  -0.000  -0.000   0.000   0.000  -0.000
 -0.026   0.000   0.000   0.201  -0.000  -0.000   0.000   0.000   0.000   0.000   0.000   0.000   0.000  -0.000   0.000  -0.000
  0.000  -0.026  -0.000  -0.000   0.201   0.000   0.000   0.000   0.000   0.000   0.000   0.000   0.000   0.000   0.000   0.000
 -0.000  -0.000  -0.026  -0.000   0.000   0.201   0.000   0.000  -0.000   0.000   0.000   0.000   0.000   0.000   0.000   0.000
  0.000   0.000   0.000   0.000   0.000   0.000   2.169  -0.000   0.000  -0.000  -0.000  -1.222  -0.000   0.000  -0.000   0.000
  0.000   0.000   0.000   0.000   0.000   0.000   0.000   2.169   0.000  -0.000  -0.000   0.000  -1.222   0.000  -0.000  -0.000
 -0.000   0.000  -0.000   0.000   0.000   0.000  -0.000   0.000   3.408  -0.000   0.000   0.000  -0.000  -2.185   0.000   0.000
 -0.000   0.000   0.000   0.000   0.000   0.000   0.000   0.000   0.000   2.169  -0.000   0.000   0.000   0.000  -1.222   0.000
  0.000  -0.000   0.000  -0.000   0.000  -0.000  -0.000  -0.000  -0.000  -0.000   3.408   0.000   0.000   0.000  -0.000  -2.185
 -0.000   0.000  -0.000   0.000   0.000   0.000  -1.222  -0.000   0.000  -0.000   0.000   1.650   0.000  -0.000   0.000  -0.000
  0.000   0.000  -0.000   0.000   0.000   0.000   0.000  -1.222  -0.000  -0.000  -0.000  -0.000   1.650   0.000   0.000  -0.000
  0.000   0.000   0.000   0.000   0.000   0.000  -0.000   0.000  -2.185   0.000   0.000   0.000   0.000   2.225   0.000   0.000
  0.000   0.000   0.000   0.000   0.000   0.000   0.000  -0.000   0.000  -1.222  -0.000   0.000  -0.000   0.000   1.650  -0.000
  0.000   0.000   0.000   0.000   0.000   0.000   0.000  -0.000  -0.000   0.000  -2.185  -0.000  -0.000   0.000  -0.000   2.225
  0.000   0.000   0.000   0.000   0.000   0.000  -0.000  -0.000  -0.000   0.000  -0.000   0.000   0.000   0.000   0.000   0.000
 -0.000  -0.000   0.000   0.000   0.000   0.000   0.000  -0.000   0.000   0.000  -0.000   0.000   0.000   0.000   0.000   0.000
 total augmentation occupancy for first ion, spin component:           2
 -0.002   0.000   0.000  -0.009   0.000   0.000   0.000   0.000   0.000   0.000   0.000   0.000   0.000   0.000   0.000   0.000
  0.000  -0.002   0.000   0.000  -0.009   0.000   0.000   0.000   0.000   0.000   0.000   0.000  -0.000   0.000   0.000   0.000
  0.000   0.000  -0.002  -0.000  -0.000  -0.009   0.000   0.000   0.000   0.000   0.000   0.000  -0.000   0.000  -0.000   0.000
 -0.009   0.000  -0.000  -0.020   0.000   0.000   0.000   0.000   0.000   0.000  -0.000   0.000   0.000  -0.000   0.000  -0.000
 -0.000  -0.009  -0.000   0.000  -0.020  -0.000   0.000   0.000   0.000   0.000   0.000   0.000   0.000   0.000   0.000   0.000
 -0.000   0.000  -0.009   0.000   0.000  -0.020   0.000  -0.000   0.000   0.000  -0.000   0.000   0.000   0.000   0.000  -0.000
  0.000   0.000   0.000   0.000   0.000   0.000   1.759  -0.000  -0.000  -0.000  -0.000  -0.661  -0.000   0.000  -0.000  -0.000
  0.000   0.000   0.000   0.000   0.000   0.000   0.000   1.759  -0.000  -0.000  -0.000   0.000  -0.661   0.000  -0.000  -0.000
  0.000   0.000  -0.000   0.000   0.000   0.000  -0.000  -0.000   2.822  -0.000   0.000   0.000  -0.000  -1.163   0.000  -0.000
 -0.000   0.000   0.000   0.000   0.000   0.000   0.000   0.000  -0.000   1.759   0.000  -0.000  -0.000   0.000  -0.661  -0.000
  0.000   0.000   0.000   0.000  -0.000   0.000  -0.000   0.000   0.000  -0.000   2.822   0.000   0.000   0.000  -0.000  -1.163
  0.000  -0.000   0.000   0.000   0.000   0.000  -0.661   0.000  -0.000   0.000  -0.000  -0.006   0.000  -0.000  -0.000  -0.000
  0.000  -0.000   0.000   0.000   0.000  -0.000  -0.000  -0.661  -0.000   0.000  -0.000   0.000  -0.006  -0.000   0.000   0.000
  0.000   0.000   0.000   0.000   0.000   0.000   0.000   0.000  -1.163  -0.000   0.000   0.000  -0.000   0.239  -0.000  -0.000
 -0.000   0.000  -0.000  -0.000   0.000   0.000  -0.000   0.000  -0.000  -0.661  -0.000  -0.000   0.000  -0.000  -0.006   0.000
  0.000   0.000   0.000   0.000  -0.000   0.000   0.000  -0.000  -0.000   0.000  -1.163  -0.000  -0.000  -0.000   0.000   0.239
  0.000   0.000   0.000   0.000   0.000   0.000  -0.000  -0.000  -0.000   0.000   0.000   0.000   0.000  -0.000  -0.000  -0.000
  0.000   0.000   0.000  -0.000  -0.000  -0.000   0.000  -0.000  -0.000   0.000  -0.000   0.000   0.000   0.000   0.000   0.000


------------------------ aborting loop because EDIFF is reached ----------------------------------------


 


 total charge     
 
# of ion       s       p       d       tot
------------------------------------------
    1        0.385   6.378   6.075  12.838
    2        0.385   6.378   6.075  12.838
--------------------------------------------------
tot          0.770  12.756  12.150  25.675
 


 magnetization (x)
 
# of ion       s       p       d       tot
------------------------------------------
    1       -0.008  -0.042   2.292   2.242
    2       -0.008  -0.042   2.292   2.242
--------------------------------------------------
tot         -0.015  -0.083   4.583   4.485
 
    CHARGE:  cpu time    0.0202: real time    0.0203
    FORLOC:  cpu time    0.0002: real time    0.0002
    FORNL :  cpu time    0.1078: real time    0.1082
    STRESS:  cpu time    0.3215: real time    0.3223
    FORCOR:  cpu time    0.0100: real time    0.0100
    FORHAR:  cpu time    0.0012: real time    0.0012
    MIXING:  cpu time    0.0006: real time    0.0006
    OFIELD:  cpu time    0.0001: real time    0.0001

  FORCE on cell =-STRESS in cart. coord.  units (eV):
  Direction    XX          YY          ZZ          XY          YZ          ZX
  --------------------------------------------------------------------------------------
  Alpha Z   218.87049   218.87049   218.87049
  Ewald   -1205.52018 -1205.52018 -1205.52018    -0.00000    -0.00000    -0.00000
  Hartree   363.30832   363.30832   363.30832    -0.00000    -0.00000    -0.00000
  E(xc)    -179.77984  -179.77984  -179.77984     0.00000     0.00000     0.00000
  Local     289.64724   289.64724   289.64724    -0.00000     0.00000    -0.00000
  n-local   -60.14877   -54.14727   -50.53331     2.76480    -1.55635     0.58738
  augment   285.40334   285.40334   285.40334    -0.00000    -0.00000     0.00000
  Kinetic   283.97198   282.55315   281.80615     2.94516    -0.72263    -0.09831
  Fock        0.00000     0.00000     0.00000     0.00000     0.00000     0.00000
  -------------------------------------------------------------------------------------
  Total      -0.23666    -0.23666    -0.23666     0.00000     0.00000    -0.00000
  in kB     -16.55208   -16.55208   -16.55208     0.00000     0.00000    -0.00000
  external pressure =      -16.55 kB  Pullay stress =        0.00 kB


 VOLUME and BASIS-vectors are now :
 -----------------------------------------------------------------------------
  energy-cutoff  :      720.00
  volume of cell :       22.91
      direct lattice vectors                 reciprocal lattice vectors
     2.840052000  0.000000000  0.000000000     0.352106229  0.000000000  0.000000000
     0.000000000  2.840052000  0.000000000     0.000000000  0.352106229  0.000000000
     0.000000000  0.000000000  2.840052000     0.000000000  0.000000000  0.352106229

  length of vectors
     2.840052000  2.840052000  2.840052000     0.352106229  0.352106229  0.352106229


 FORCES acting on ions
    electron-ion (+dipol)            ewald-force                    non-local-force                 convergence-correction
 -----------------------------------------------------------------------------------------------
   -.174E-13 -.267E-13 -.429E-13   -.529E-15 -.103E-14 -.897E-14   0.258E-25 0.258E-25 0.258E-25   -.270E-13 0.554E-14 0.782E-14
   0.843E-12 0.747E-11 0.864E-11   0.472E-14 0.447E-14 0.926E-14   0.258E-25 0.258E-25 0.258E-25   -.338E-13 0.749E-14 -.109E-12
 -----------------------------------------------------------------------------------------------
   0.826E-12 0.744E-11 0.860E-11   0.419E-14 0.343E-14 0.284E-15   0.517E-25 0.517E-25 0.517E-25   -.608E-13 0.130E-13 -.102E-12
 
 
 POSITION                                       TOTAL-FORCE (eV/Angst)
 -----------------------------------------------------------------------------------
      0.00000      0.00000      0.00000        -0.000000     -0.000000     -0.000000
      1.42003      1.42003      1.42003         0.000000      0.000000      0.000000
 -----------------------------------------------------------------------------------
    total drift:                                0.000000      0.000000      0.000000


--------------------------------------------------------------------------------------------------------



  FREE ENERGIE OF THE ION-ELECTRON SYSTEM (eV)
  ---------------------------------------------------
  free  energy   TOTEN  =       -16.51508473 eV

  energy  without entropy=      -16.51508473  energy(sigma->0) =      -16.51508473
 


--------------------------------------------------------------------------------------------------------


    POTLOK:  cpu time    0.0154: real time    0.0154


--------------------------------------------------------------------------------------------------------


     LOOP+:  cpu time    8.9865: real time    9.0272
    4ORBIT:  cpu time    0.0000: real time    0.0000
 


 total charge     
 
# of ion       s       p       d       tot
------------------------------------------
    1        0.385   6.378   6.075  12.838
    2        0.385   6.378   6.075  12.838
--------------------------------------------------
tot          0.770  12.756  12.150  25.675
 


 magnetization (x)
 
# of ion       s       p       d       tot
------------------------------------------
    1       -0.008  -0.042   2.292   2.242
    2       -0.008  -0.042   2.292   2.242
--------------------------------------------------
tot         -0.015  -0.083   4.583   4.485
 
 BZINTS: Fermi energy:  9.622613; 28.000000 electrons
         Band energy:-399.274489;  BLOECHL correction: -0.034713

 total amount of memory used by VASP MPI-rank0    33844. kBytes
=======================================================================

   base      :      30000. kBytes
   nonlr-proj:        960. kBytes
   fftplans  :        476. kBytes
   grid      :       1141. kBytes
   one-center:         31. kBytes
   wavefun   :       1236. kBytes
 
  
  
 General timing and accounting informations for this job:
 ========================================================
  
                  Total CPU time used (sec):       10.521
                            User time (sec):       10.265
                          System time (sec):        0.256
                         Elapsed time (sec):       12.389
  
                   Maximum memory used (kb):       58776.
                   Average memory used (kb):           0.
  
                          Minor page faults:        14240
                          Major page faults:            6
                 Voluntary context switches:         1433
