<?xml version="1.0" encoding="ISO-8859-1"?>
<modeling>
 <generator>
  <i name="program" type="string">vasp </i>
  <i name="version" type="string">5.4.4.18Apr17-6-g9f103f2a35  </i>
  <i name="subversion" type="string">(build Apr 28 2018 00:24:27) complex            parallel </i>
  <i name="platform" type="string">LinuxIFC </i>
  <i name="date" type="string">2021 09 06 </i>
  <i name="time" type="string">23:54:46 </i>
 </generator>
 <incar>
  <i type="string" name="PREC">accurate</i>
  <i type="string" name="ALGO"> Normal</i>
  <i type="int" name="ISPIN">     2</i>
  <i type="int" name="NELM">   100</i>
  <i type="int" name="IBRION">    -1</i>
  <i name="EDIFF">      0.00000010</i>
  <i type="int" name="NSW">     0</i>
  <i type="int" name="ISIF">     3</i>
  <i name="ENCUT">    720.00000000</i>
  <v name="MAGMOM">      5.00000000      5.00000000</v>
  <i type="string" name="LREAL"> Auto</i>
  <i type="int" name="ISMEAR">    -5</i>
  <i name="SIGMA">      0.05000000</i>
  <i type="logical" name="LWAVE"> F  </i>
  <i type="logical" name="LCHARG"> F  </i>
  <i type="logical" name="LVHAR"> F  </i>
  <i type="int" name="LORBIT">    11</i>
  <i type="logical" name="LASPH"> F  </i>
  <i type="logical" name="LAECHG"> F  </i>
  <v type="int" name="KPOINT_BSE">    -1     0     0     0</v>
  <i type="int" name="NELM">   100</i>
  <i type="logical" name="LASPH"> F  </i>
  <i type="int" name="LMAXTAU">     0</i>
 </incar>
 <structure name="primitive_cell" >
  <crystal>
   <varray name="basis" >
    <v>       1.42002600       1.42002600       1.42002600 </v>
    <v>       1.42002600      -1.42002600      -1.42002600 </v>
    <v>      -1.42002600       1.42002600      -1.42002600 </v>
   </varray>
   <i name="volume">     11.45378113 </i>
   <varray name="rec_basis" >
    <v>       0.35210623       0.35210623       0.00000000 </v>
    <v>       0.35210623       0.00000000      -0.35210623 </v>
    <v>       0.00000000       0.35210623      -0.35210623 </v>
   </varray>
  </crystal>
  <varray name="positions" >
   <v>       0.00000000       0.00000000       0.00000000 </v>
  </varray>
 </structure>
 <varray name="primitive_index" >
  <v type="int" >        1 </v>
 </varray>
 <kpoints>
  <generation param="Monkhorst-Pack">
   <v type="int" name="divisions">      10       10       10 </v>
   <v name="usershift">      0.00000000       0.00000000       0.00000000 </v>
   <v name="genvec1">      0.10000000       0.00000000       0.00000000 </v>
   <v name="genvec2">      0.00000000       0.10000000       0.00000000 </v>
   <v name="genvec3">      0.00000000       0.00000000       0.10000000 </v>
   <v name="shift">      0.50000000       0.50000000       0.50000000 </v>
  </generation>
  <varray name="kpointlist" >
   <v>       0.05000000       0.05000000       0.05000000 </v>
   <v>       0.15000000       0.05000000       0.05000000 </v>
   <v>       0.25000000       0.05000000       0.05000000 </v>
   <v>       0.35000000       0.05000000       0.05000000 </v>
   <v>       0.45000000       0.05000000       0.05000000 </v>
   <v>       0.15000000       0.15000000       0.05000000 </v>
   <v>       0.25000000       0.15000000       0.05000000 </v>
   <v>       0.35000000       0.15000000       0.05000000 </v>
   <v>       0.45000000       0.15000000       0.05000000 </v>
   <v>       0.25000000       0.25000000       0.05000000 </v>
   <v>       0.35000000       0.25000000       0.05000000 </v>
   <v>       0.45000000       0.25000000       0.05000000 </v>
   <v>       0.35000000       0.35000000       0.05000000 </v>
   <v>       0.45000000       0.35000000       0.05000000 </v>
   <v>       0.45000000       0.45000000       0.05000000 </v>
   <v>       0.15000000       0.15000000       0.15000000 </v>
   <v>       0.25000000       0.15000000       0.15000000 </v>
   <v>       0.35000000       0.15000000       0.15000000 </v>
   <v>       0.45000000       0.15000000       0.15000000 </v>
   <v>       0.25000000       0.25000000       0.15000000 </v>
   <v>       0.35000000       0.25000000       0.15000000 </v>
   <v>       0.45000000       0.25000000       0.15000000 </v>
   <v>       0.35000000       0.35000000       0.15000000 </v>
   <v>       0.45000000       0.35000000       0.15000000 </v>
   <v>       0.45000000       0.45000000       0.15000000 </v>
   <v>       0.25000000       0.25000000       0.25000000 </v>
   <v>       0.35000000       0.25000000       0.25000000 </v>
   <v>       0.45000000       0.25000000       0.25000000 </v>
   <v>       0.35000000       0.35000000       0.25000000 </v>
   <v>       0.45000000       0.35000000       0.25000000 </v>
   <v>       0.45000000       0.45000000       0.25000000 </v>
   <v>       0.35000000       0.35000000       0.35000000 </v>
   <v>       0.45000000       0.35000000       0.35000000 </v>
   <v>       0.45000000       0.45000000       0.35000000 </v>
   <v>       0.45000000       0.45000000       0.45000000 </v>
  </varray>
  <varray name="weights" >
   <v>       0.00800000 </v>
   <v>       0.02400000 </v>
   <v>       0.02400000 </v>
   <v>       0.02400000 </v>
   <v>       0.02400000 </v>
   <v>       0.02400000 </v>
   <v>       0.04800000 </v>
   <v>       0.04800000 </v>
   <v>       0.04800000 </v>
   <v>       0.02400000 </v>
   <v>       0.04800000 </v>
   <v>       0.04800000 </v>
   <v>       0.02400000 </v>
   <v>       0.04800000 </v>
   <v>       0.02400000 </v>
   <v>       0.00800000 </v>
   <v>       0.02400000 </v>
   <v>       0.02400000 </v>
   <v>       0.02400000 </v>
   <v>       0.02400000 </v>
   <v>       0.04800000 </v>
   <v>       0.04800000 </v>
   <v>       0.02400000 </v>
   <v>       0.04800000 </v>
   <v>       0.02400000 </v>
   <v>       0.00800000 </v>
   <v>       0.02400000 </v>
   <v>       0.02400000 </v>
   <v>       0.02400000 </v>
   <v>       0.04800000 </v>
   <v>       0.02400000 </v>
   <v>       0.00800000 </v>
   <v>       0.02400000 </v>
   <v>       0.02400000 </v>
   <v>       0.00800000 </v>
  </varray>
  <varray name="tetrahedronlist"  type="int" >
   <v type="int" >       24        1        2        2        6 </v>
   <v type="int" >       18        2        2        6        6 </v>
   <v type="int" >       12        2        6        6       16 </v>
   <v type="int" >       12        2        3        6        7 </v>
   <v type="int" >       24        2        6        6        7 </v>
   <v type="int" >       12        6        6        7       16 </v>
   <v type="int" >       24        3        6        7        7 </v>
   <v type="int" >       24        6        7        7       17 </v>
   <v type="int" >       24        6        7       16       17 </v>
   <v type="int" >       12        3        4        7        8 </v>
   <v type="int" >       24        3        7        7        8 </v>
   <v type="int" >       12        7        7        8       17 </v>
   <v type="int" >       24        4        7        8        8 </v>
   <v type="int" >       12        7        8        8       18 </v>
   <v type="int" >       12        7        8       17       18 </v>
   <v type="int" >       12        4        5        8        9 </v>
   <v type="int" >       24        4        8        8        9 </v>
   <v type="int" >       12        8        8        9       18 </v>
   <v type="int" >       24        5        8        9        9 </v>
   <v type="int" >       12        8        9        9       19 </v>
   <v type="int" >       12        8        9       18       19 </v>
   <v type="int" >       30        5        5        9        9 </v>
   <v type="int" >       36        5        9        9        9 </v>
   <v type="int" >       12        9        9        9       19 </v>
   <v type="int" >        6        9        9       19       19 </v>
   <v type="int" >       18        1        1        2        2 </v>
   <v type="int" >       24        1        2        2        2 </v>
   <v type="int" >       12        2        2        2        6 </v>
   <v type="int" >       12        6        7       10       16 </v>
   <v type="int" >       12        7       10       16       17 </v>
   <v type="int" >       12       10       16       17       20 </v>
   <v type="int" >       12        7        8       11       17 </v>
   <v type="int" >       12        7       10       11       17 </v>
   <v type="int" >       12       10       11       17       20 </v>
   <v type="int" >       12        8       11       17       18 </v>
   <v type="int" >       12       11       17       18       21 </v>
   <v type="int" >       12       11       17       20       21 </v>
   <v type="int" >       12        8        9       12       18 </v>
   <v type="int" >       12        8       11       12       18 </v>
   <v type="int" >       12       11       12       18       21 </v>
   <v type="int" >       12        9       12       18       19 </v>
   <v type="int" >       12       12       18       19       22 </v>
   <v type="int" >       12       12       18       21       22 </v>
   <v type="int" >       12        9        9       12       19 </v>
   <v type="int" >       12        9       12       12       19 </v>
   <v type="int" >       12       12       12       19       22 </v>
   <v type="int" >       12        9       12       19       19 </v>
   <v type="int" >       12       12       19       19       22 </v>
   <v type="int" >       12       12       19       22       22 </v>
   <v type="int" >       12        8        9       11       19 </v>
   <v type="int" >       12        9       11       12       19 </v>
   <v type="int" >       12       11       12       19       22 </v>
   <v type="int" >       12        8       11       18       19 </v>
   <v type="int" >       12       11       18       19       21 </v>
   <v type="int" >       12       11       19       21       22 </v>
   <v type="int" >       12        7        8       10       18 </v>
   <v type="int" >       12        8       10       11       18 </v>
   <v type="int" >       12       10       11       18       21 </v>
   <v type="int" >       12        7       10       17       18 </v>
   <v type="int" >       12       10       17       18       20 </v>
   <v type="int" >       12       10       18       20       21 </v>
   <v type="int" >       12        7        7       10       17 </v>
   <v type="int" >       12        7       10       17       20 </v>
   <v type="int" >       12        7       16       17       17 </v>
   <v type="int" >       12        7       17       17       20 </v>
   <v type="int" >       12        2        3        6       16 </v>
   <v type="int" >       12        3        6        7       16 </v>
   <v type="int" >       12        3        7       16       17 </v>
   <v type="int" >       12        2        2        3        6 </v>
   <v type="int" >       12        2        3        3        6 </v>
   <v type="int" >       12        3        3        6        7 </v>
   <v type="int" >       12        2        3        6        6 </v>
   <v type="int" >       12        3        6        6        7 </v>
   <v type="int" >       12       10       11       13       20 </v>
   <v type="int" >       12       11       13       20       21 </v>
   <v type="int" >       12       13       20       21       23 </v>
   <v type="int" >       12       11       12       14       21 </v>
   <v type="int" >       12       11       13       14       21 </v>
   <v type="int" >       12       13       14       21       23 </v>
   <v type="int" >       12       12       14       21       22 </v>
   <v type="int" >       12       14       21       22       24 </v>
   <v type="int" >       12       14       21       23       24 </v>
   <v type="int" >       12       12       12       14       22 </v>
   <v type="int" >       12       12       14       14       22 </v>
   <v type="int" >       12       14       14       22       24 </v>
   <v type="int" >       12       12       14       22       22 </v>
   <v type="int" >       12       14       22       22       24 </v>
   <v type="int" >       12       14       22       24       24 </v>
   <v type="int" >       12       11       12       13       22 </v>
   <v type="int" >       12       12       13       14       22 </v>
   <v type="int" >       12       13       14       22       24 </v>
   <v type="int" >       12       11       13       21       22 </v>
   <v type="int" >       12       13       21       22       23 </v>
   <v type="int" >       12       13       22       23       24 </v>
   <v type="int" >       12       10       11       11       21 </v>
   <v type="int" >       12       11       11       13       21 </v>
   <v type="int" >       12       11       13       21       23 </v>
   <v type="int" >       12       10       11       20       21 </v>
   <v type="int" >       12       11       20       21       21 </v>
   <v type="int" >       12       11       21       21       23 </v>
   <v type="int" >       12        7        8       10       20 </v>
   <v type="int" >       12        8       10       11       20 </v>
   <v type="int" >       12        8       11       20       21 </v>
   <v type="int" >       12        7        8       17       20 </v>
   <v type="int" >       12        8       17       18       20 </v>
   <v type="int" >       12        8       18       20       21 </v>
   <v type="int" >       12        3        4        7       17 </v>
   <v type="int" >       12        4        7        8       17 </v>
   <v type="int" >       12        4        8       17       18 </v>
   <v type="int" >       12        3        3        4        7 </v>
   <v type="int" >       12        3        4        4        7 </v>
   <v type="int" >       12        4        4        7        8 </v>
   <v type="int" >       12        3        4        7        7 </v>
   <v type="int" >       12        4        7        7        8 </v>
   <v type="int" >       12       13       14       15       23 </v>
   <v type="int" >       12       14       15       23       24 </v>
   <v type="int" >       12       15       23       24       25 </v>
   <v type="int" >       24       14       14       15       24 </v>
   <v type="int" >       12       14       15       15       24 </v>
   <v type="int" >       12       15       15       24       25 </v>
   <v type="int" >       12       14       15       24       24 </v>
   <v type="int" >       12       15       24       24       25 </v>
   <v type="int" >       12       15       24       25       25 </v>
   <v type="int" >       12       13       14       14       24 </v>
   <v type="int" >       12       14       15       24       25 </v>
   <v type="int" >       12       13       14       23       24 </v>
   <v type="int" >       12       14       23       24       24 </v>
   <v type="int" >       24       14       24       24       25 </v>
   <v type="int" >       12       11       12       13       23 </v>
   <v type="int" >       12       12       13       14       23 </v>
   <v type="int" >       12       12       14       23       24 </v>
   <v type="int" >       12       11       12       21       23 </v>
   <v type="int" >       12       12       21       22       23 </v>
   <v type="int" >       12       12       22       23       24 </v>
   <v type="int" >       12        8        9       11       21 </v>
   <v type="int" >       12        9       11       12       21 </v>
   <v type="int" >       12        9       12       21       22 </v>
   <v type="int" >       12        8        9       18       21 </v>
   <v type="int" >       12        9       18       19       21 </v>
   <v type="int" >       12        9       19       21       22 </v>
   <v type="int" >       12        4        5        8       18 </v>
   <v type="int" >       12        5        8        9       18 </v>
   <v type="int" >       12        5        9       18       19 </v>
   <v type="int" >       12        4        4        5        8 </v>
   <v type="int" >       12        4        5        5        8 </v>
   <v type="int" >       12        5        5        8        9 </v>
   <v type="int" >       12        4        5        8        8 </v>
   <v type="int" >       12        5        8        8        9 </v>
   <v type="int" >       12       15       15       15       25 </v>
   <v type="int" >       12       15       15       25       25 </v>
   <v type="int" >       12       15       25       25       25 </v>
   <v type="int" >       12       14       14       15       25 </v>
   <v type="int" >       12       14       15       15       25 </v>
   <v type="int" >       12       14       15       25       25 </v>
   <v type="int" >       12       14       14       24       25 </v>
   <v type="int" >       12       14       24       25       25 </v>
   <v type="int" >       12       12       12       14       24 </v>
   <v type="int" >       12       12       14       14       24 </v>
   <v type="int" >       12       12       14       24       24 </v>
   <v type="int" >       12       12       12       22       24 </v>
   <v type="int" >       12       12       22       22       24 </v>
   <v type="int" >       12       12       22       24       24 </v>
   <v type="int" >       12        9        9       12       22 </v>
   <v type="int" >       12        9       12       12       22 </v>
   <v type="int" >       12        9       12       22       22 </v>
   <v type="int" >       12        9        9       19       22 </v>
   <v type="int" >       12        9       19       19       22 </v>
   <v type="int" >       12        9       19       22       22 </v>
   <v type="int" >       12        5        5        9       19 </v>
   <v type="int" >       12        5        9        9       19 </v>
   <v type="int" >       12        5        9       19       19 </v>
   <v type="int" >       24        5        5        5        9 </v>
   <v type="int" >       12       13       14       15       25 </v>
   <v type="int" >       12       13       14       24       25 </v>
   <v type="int" >       12       13       23       24       25 </v>
   <v type="int" >       12       11       12       14       24 </v>
   <v type="int" >       12       11       13       14       24 </v>
   <v type="int" >       12       11       13       23       24 </v>
   <v type="int" >       12       11       12       22       24 </v>
   <v type="int" >       12       11       21       22       24 </v>
   <v type="int" >       12       11       21       23       24 </v>
   <v type="int" >       12        8        9       12       22 </v>
   <v type="int" >       12        8       11       12       22 </v>
   <v type="int" >       12        8       11       21       22 </v>
   <v type="int" >       12        8        9       19       22 </v>
   <v type="int" >       12        8       18       19       22 </v>
   <v type="int" >       12        8       18       21       22 </v>
   <v type="int" >       12        4        5        9       19 </v>
   <v type="int" >       12        4        8        9       19 </v>
   <v type="int" >       12        4        8       18       19 </v>
   <v type="int" >       12        4        5        5        9 </v>
   <v type="int" >       12        4        4        5        9 </v>
   <v type="int" >       12        4        4        8        9 </v>
   <v type="int" >       12        4        5        9        9 </v>
   <v type="int" >       12        4        8        9        9 </v>
   <v type="int" >       12       10       11       13       23 </v>
   <v type="int" >       12       10       11       21       23 </v>
   <v type="int" >       12       10       20       21       23 </v>
   <v type="int" >       12        7        8       11       21 </v>
   <v type="int" >       12        7       10       11       21 </v>
   <v type="int" >       12        7       10       20       21 </v>
   <v type="int" >       12        7        8       18       21 </v>
   <v type="int" >       12        7       17       18       21 </v>
   <v type="int" >       12        7       17       20       21 </v>
   <v type="int" >       12        3        4        8       18 </v>
   <v type="int" >       12        3        7        8       18 </v>
   <v type="int" >       12        3        7       17       18 </v>
   <v type="int" >       12        3        4        4        8 </v>
   <v type="int" >       12        3        3        4        8 </v>
   <v type="int" >       12        3        3        7        8 </v>
   <v type="int" >       12        3        4        8        8 </v>
   <v type="int" >       12        3        7        8        8 </v>
   <v type="int" >       12        6        7       10       20 </v>
   <v type="int" >       12        6        7       17       20 </v>
   <v type="int" >       12        6       16       17       20 </v>
   <v type="int" >       12        2        3        7       17 </v>
   <v type="int" >       12        2        6        7       17 </v>
   <v type="int" >       12        2        6       16       17 </v>
   <v type="int" >       12        2        3        3        7 </v>
   <v type="int" >       12        2        2        3        7 </v>
   <v type="int" >       12        2        2        6        7 </v>
   <v type="int" >       12        2        3        7        7 </v>
   <v type="int" >       12        2        6        7        7 </v>
   <v type="int" >       12        1        2        6       16 </v>
   <v type="int" >       12        1        1        2        6 </v>
   <v type="int" >       12        1        2        6        6 </v>
   <v type="int" >       12        1        1        1        2 </v>
   <v type="int" >       12       16       17       17       20 </v>
   <v type="int" >       12       17       17       20       20 </v>
   <v type="int" >       12       17       20       20       26 </v>
   <v type="int" >       12       17       18       20       21 </v>
   <v type="int" >       12       17       20       20       21 </v>
   <v type="int" >       12       20       20       21       26 </v>
   <v type="int" >       12       18       20       21       21 </v>
   <v type="int" >       24       20       21       21       27 </v>
   <v type="int" >       24       20       21       26       27 </v>
   <v type="int" >       12       18       19       21       22 </v>
   <v type="int" >       12       18       21       21       22 </v>
   <v type="int" >       12       21       21       22       27 </v>
   <v type="int" >       12       19       21       22       22 </v>
   <v type="int" >       12       21       22       22       28 </v>
   <v type="int" >       12       21       22       27       28 </v>
   <v type="int" >        6       19       19       22       22 </v>
   <v type="int" >       12       19       22       22       22 </v>
   <v type="int" >       12       22       22       22       28 </v>
   <v type="int" >        6       22       22       28       28 </v>
   <v type="int" >        6        6        6        7        7 </v>
   <v type="int" >       12        6        7        7        7 </v>
   <v type="int" >       12        7        7        7       10 </v>
   <v type="int" >        6        7        7       10       10 </v>
   <v type="int" >       12       20       21       23       26 </v>
   <v type="int" >       12       21       23       26       27 </v>
   <v type="int" >       12       23       26       27       29 </v>
   <v type="int" >       12       21       22       24       27 </v>
   <v type="int" >       12       21       23       24       27 </v>
   <v type="int" >       12       23       24       27       29 </v>
   <v type="int" >       12       22       24       27       28 </v>
   <v type="int" >       12       24       27       28       30 </v>
   <v type="int" >       12       24       27       29       30 </v>
   <v type="int" >       12       22       22       24       28 </v>
   <v type="int" >       12       22       24       24       28 </v>
   <v type="int" >       12       24       24       28       30 </v>
   <v type="int" >       12       22       24       28       28 </v>
   <v type="int" >       12       24       28       28       30 </v>
   <v type="int" >       12       24       28       30       30 </v>
   <v type="int" >       12       21       22       23       28 </v>
   <v type="int" >       12       22       23       24       28 </v>
   <v type="int" >       12       23       24       28       30 </v>
   <v type="int" >       12       21       23       27       28 </v>
   <v type="int" >       12       23       27       28       29 </v>
   <v type="int" >       12       23       28       29       30 </v>
   <v type="int" >       12       21       21       23       27 </v>
   <v type="int" >       12       21       23       27       29 </v>
   <v type="int" >       12       21       26       27       27 </v>
   <v type="int" >       12       21       27       27       29 </v>
   <v type="int" >       12       17       18       20       26 </v>
   <v type="int" >       12       18       20       21       26 </v>
   <v type="int" >       12       18       21       26       27 </v>
   <v type="int" >       12        7        7        8       10 </v>
   <v type="int" >       12        7        8        8       10 </v>
   <v type="int" >       12        8        8       10       11 </v>
   <v type="int" >       12        7        8       10       10 </v>
   <v type="int" >       12        8       10       10       11 </v>
   <v type="int" >       12        8       10       11       11 </v>
   <v type="int" >       12       23       24       25       29 </v>
   <v type="int" >       12       24       25       29       30 </v>
   <v type="int" >       12       25       29       30       31 </v>
   <v type="int" >       24       24       24       25       30 </v>
   <v type="int" >       12       24       25       25       30 </v>
   <v type="int" >       12       25       25       30       31 </v>
   <v type="int" >       12       24       25       30       30 </v>
   <v type="int" >       12       25       30       30       31 </v>
   <v type="int" >       12       25       30       31       31 </v>
   <v type="int" >       12       23       24       24       30 </v>
   <v type="int" >       12       24       25       30       31 </v>
   <v type="int" >       12       23       24       29       30 </v>
   <v type="int" >       12       24       29       30       30 </v>
   <v type="int" >       24       24       30       30       31 </v>
   <v type="int" >       12       21       22       23       29 </v>
   <v type="int" >       12       22       23       24       29 </v>
   <v type="int" >       12       22       24       29       30 </v>
   <v type="int" >       12       21       22       27       29 </v>
   <v type="int" >       12       22       27       28       29 </v>
   <v type="int" >       12       22       28       29       30 </v>
   <v type="int" >       12       18       19       21       27 </v>
   <v type="int" >       12       19       21       22       27 </v>
   <v type="int" >       12       19       22       27       28 </v>
   <v type="int" >       12        8        8        9       11 </v>
   <v type="int" >       12        8        9        9       11 </v>
   <v type="int" >       12        9        9       11       12 </v>
   <v type="int" >       12        8        9       11       11 </v>
   <v type="int" >       12        9       11       11       12 </v>
   <v type="int" >       12        9       11       12       12 </v>
   <v type="int" >       12       25       25       25       31 </v>
   <v type="int" >       12       25       25       31       31 </v>
   <v type="int" >       12       25       31       31       31 </v>
   <v type="int" >       12       24       24       25       31 </v>
   <v type="int" >       12       24       25       25       31 </v>
   <v type="int" >       12       24       25       31       31 </v>
   <v type="int" >       12       24       24       30       31 </v>
   <v type="int" >       12       24       30       31       31 </v>
   <v type="int" >       12       22       22       24       30 </v>
   <v type="int" >       12       22       24       24       30 </v>
   <v type="int" >       12       22       24       30       30 </v>
   <v type="int" >       12       22       22       28       30 </v>
   <v type="int" >       12       22       28       28       30 </v>
   <v type="int" >       12       22       28       30       30 </v>
   <v type="int" >       12       19       19       22       28 </v>
   <v type="int" >       12       19       22       22       28 </v>
   <v type="int" >       12       19       22       28       28 </v>
   <v type="int" >       24        9        9        9       12 </v>
   <v type="int" >       24        9        9       12       12 </v>
   <v type="int" >       24        9       12       12       12 </v>
   <v type="int" >       12       23       24       25       31 </v>
   <v type="int" >       12       23       24       30       31 </v>
   <v type="int" >       12       23       29       30       31 </v>
   <v type="int" >       12       21       22       24       30 </v>
   <v type="int" >       12       21       23       24       30 </v>
   <v type="int" >       12       21       23       29       30 </v>
   <v type="int" >       12       21       22       28       30 </v>
   <v type="int" >       12       21       27       28       30 </v>
   <v type="int" >       12       21       27       29       30 </v>
   <v type="int" >       12       18       19       22       28 </v>
   <v type="int" >       12       18       21       22       28 </v>
   <v type="int" >       12       18       21       27       28 </v>
   <v type="int" >       12        8        9        9       12 </v>
   <v type="int" >       12        8        8        9       12 </v>
   <v type="int" >       12        8        8       11       12 </v>
   <v type="int" >       12        8        9       12       12 </v>
   <v type="int" >       12        8       11       12       12 </v>
   <v type="int" >       12        8       11       11       12 </v>
   <v type="int" >       12       20       21       23       29 </v>
   <v type="int" >       12       20       21       27       29 </v>
   <v type="int" >       12       20       26       27       29 </v>
   <v type="int" >       12       17       18       21       27 </v>
   <v type="int" >       12       17       20       21       27 </v>
   <v type="int" >       12       17       20       26       27 </v>
   <v type="int" >       12        7        8        8       11 </v>
   <v type="int" >       12        7        7        8       11 </v>
   <v type="int" >       12        7        7       10       11 </v>
   <v type="int" >       12        7        8       11       11 </v>
   <v type="int" >       12        7       10       11       11 </v>
   <v type="int" >       12        7       10       10       11 </v>
   <v type="int" >       12       16       17       20       26 </v>
   <v type="int" >       12        6        7        7       10 </v>
   <v type="int" >       12        6        6        7       10 </v>
   <v type="int" >       12        6        7       10       10 </v>
   <v type="int" >       12        2        2        2        3 </v>
   <v type="int" >       12        2        2        3        3 </v>
   <v type="int" >       12        2        3        3        3 </v>
   <v type="int" >       12       26       27       27       29 </v>
   <v type="int" >       12       27       27       29       29 </v>
   <v type="int" >       12       27       29       29       32 </v>
   <v type="int" >       12       27       28       29       30 </v>
   <v type="int" >       12       27       29       29       30 </v>
   <v type="int" >       12       29       29       30       32 </v>
   <v type="int" >       12       28       29       30       30 </v>
   <v type="int" >       24       29       30       30       33 </v>
   <v type="int" >       24       29       30       32       33 </v>
   <v type="int" >        6       28       28       30       30 </v>
   <v type="int" >       12       28       30       30       30 </v>
   <v type="int" >       12       30       30       30       33 </v>
   <v type="int" >        6       30       30       33       33 </v>
   <v type="int" >        6       10       10       11       11 </v>
   <v type="int" >       12       10       11       11       11 </v>
   <v type="int" >       12       11       11       11       13 </v>
   <v type="int" >        6       11       11       13       13 </v>
   <v type="int" >       12       29       30       31       32 </v>
   <v type="int" >       12       30       31       32       33 </v>
   <v type="int" >       12       31       32       33       34 </v>
   <v type="int" >       24       30       30       31       33 </v>
   <v type="int" >       12       30       31       31       33 </v>
   <v type="int" >       12       31       31       33       34 </v>
   <v type="int" >       12       30       31       33       33 </v>
   <v type="int" >       12       31       33       33       34 </v>
   <v type="int" >       12       31       33       34       34 </v>
   <v type="int" >       12       30       31       33       34 </v>
   <v type="int" >       12       30       32       33       33 </v>
   <v type="int" >       24       30       33       33       34 </v>
   <v type="int" >       12       27       28       29       32 </v>
   <v type="int" >       12       28       29       30       32 </v>
   <v type="int" >       12       28       30       32       33 </v>
   <v type="int" >       12       11       11       12       13 </v>
   <v type="int" >       12       11       12       12       13 </v>
   <v type="int" >       12       12       12       13       14 </v>
   <v type="int" >       12       11       12       13       13 </v>
   <v type="int" >       12       12       13       13       14 </v>
   <v type="int" >       12       12       13       14       14 </v>
   <v type="int" >       12       31       31       31       34 </v>
   <v type="int" >       12       31       31       34       34 </v>
   <v type="int" >       12       31       34       34       34 </v>
   <v type="int" >       12       30       30       31       34 </v>
   <v type="int" >       12       30       31       31       34 </v>
   <v type="int" >       12       30       31       34       34 </v>
   <v type="int" >       12       30       30       33       34 </v>
   <v type="int" >       12       30       33       34       34 </v>
   <v type="int" >       12       28       28       30       33 </v>
   <v type="int" >       12       28       30       30       33 </v>
   <v type="int" >       12       28       30       33       33 </v>
   <v type="int" >       24       12       12       12       14 </v>
   <v type="int" >       24       12       12       14       14 </v>
   <v type="int" >       24       12       14       14       14 </v>
   <v type="int" >       12       29       30       31       34 </v>
   <v type="int" >       12       29       30       33       34 </v>
   <v type="int" >       12       29       32       33       34 </v>
   <v type="int" >       12       27       28       30       33 </v>
   <v type="int" >       12       27       29       30       33 </v>
   <v type="int" >       12       27       29       32       33 </v>
   <v type="int" >       12       11       12       12       14 </v>
   <v type="int" >       12       11       11       12       14 </v>
   <v type="int" >       12       11       11       13       14 </v>
   <v type="int" >       12       11       12       14       14 </v>
   <v type="int" >       12       11       13       14       14 </v>
   <v type="int" >       12       11       13       13       14 </v>
   <v type="int" >       12       26       27       29       32 </v>
   <v type="int" >       12       10       11       11       13 </v>
   <v type="int" >       12       10       10       11       13 </v>
   <v type="int" >       12       10       11       13       13 </v>
   <v type="int" >       12        3        3        3        4 </v>
   <v type="int" >       12        3        3        4        4 </v>
   <v type="int" >       12        3        4        4        4 </v>
   <v type="int" >       12       32       33       33       34 </v>
   <v type="int" >       18       33       33       34       34 </v>
   <v type="int" >       24       33       34       34       35 </v>
   <v type="int" >       12       33       34       34       34 </v>
   <v type="int" >       24       34       34       34       35 </v>
   <v type="int" >       18       34       34       35       35 </v>
   <v type="int" >        6       13       13       14       14 </v>
   <v type="int" >       12       13       14       14       14 </v>
   <v type="int" >       36       14       14       14       15 </v>
   <v type="int" >       30       14       14       15       15 </v>
   <v type="int" >       12       34       35       35       35 </v>
   <v type="int" >       12       33       33       34       35 </v>
   <v type="int" >       12       33       34       35       35 </v>
   <v type="int" >       24       14       15       15       15 </v>
   <v type="int" >       12       32       33       34       35 </v>
   <v type="int" >       12       13       14       14       15 </v>
   <v type="int" >       12       13       13       14       15 </v>
   <v type="int" >       12       13       14       15       15 </v>
   <v type="int" >       12        4        4        4        5 </v>
   <v type="int" >       12        4        4        5        5 </v>
   <v type="int" >       12        4        5        5        5 </v>
   <v type="int" >        6       35       35       35       35 </v>
   <v type="int" >       18       15       15       15       15 </v>
   <v type="int" >       18        5        5        5        5 </v>
   <v type="int" >        6        1        1        1        1 </v>
  </varray>
  <i name="volumeweight">      0.00016667 </i>
 </kpoints>
 <parameters>
  <separator name="general" >
   <i type="string" name="SYSTEM">unknown system</i>
   <i type="logical" name="LCOMPAT"> F  </i>
  </separator>
  <separator name="electronic" >
   <i type="string" name="PREC">accura</i>
   <i name="ENMAX">    720.00000000</i>
   <i name="ENAUG">    578.34200000</i>
   <i name="EDIFF">      0.00000010</i>
   <i type="int" name="IALGO">    38</i>
   <i type="int" name="IWAVPR">    10</i>
   <i type="int" name="NBANDS">    24</i>
   <i name="NELECT">     28.00000000</i>
   <i type="int" name="TURBO">     0</i>
   <i type="int" name="IRESTART">     0</i>
   <i type="int" name="NREBOOT">     0</i>
   <i type="int" name="NMIN">     0</i>
   <i name="EREF">      0.00000000</i>
   <separator name="electronic smearing" >
    <i type="int" name="ISMEAR">    -5</i>
    <i name="SIGMA">      0.05000000</i>
    <i name="KSPACING">      0.50000000</i>
    <i type="logical" name="KGAMMA"> T  </i>
   </separator>
   <separator name="electronic projectors" >
    <i type="logical" name="LREAL"> T  </i>
    <v name="ROPT">     -0.00025000</v>
    <i type="int" name="LMAXPAW">  -100</i>
    <i type="int" name="LMAXMIX">     2</i>
    <i type="logical" name="NLSPLINE"> F  </i>
   </separator>
   <separator name="electronic startup" >
    <i type="int" name="ISTART">     0</i>
    <i type="int" name="ICHARG">     2</i>
    <i type="int" name="INIWAV">     1</i>
   </separator>
   <separator name="electronic spin" >
    <i type="int" name="ISPIN">     2</i>
    <i type="logical" name="LNONCOLLINEAR"> F  </i>
    <v name="MAGMOM">      5.00000000      5.00000000</v>
    <i name="NUPDOWN">     -1.00000000</i>
    <i type="logical" name="LSORBIT"> F  </i>
    <v name="SAXIS">      0.00000000      0.00000000      1.00000000</v>
    <i type="logical" name="LSPIRAL"> F  </i>
    <v name="QSPIRAL">      0.00000000      0.00000000      0.00000000</v>
    <i type="logical" name="LZEROZ"> F  </i>
   </separator>
   <separator name="electronic exchange-correlation" >
    <i type="logical" name="LASPH"> F  </i>
    <i type="logical" name="LMETAGGA"> F  </i>
   </separator>
   <separator name="electronic convergence" >
    <i type="int" name="NELM">   100</i>
    <i type="int" name="NELMDL">    -5</i>
    <i type="int" name="NELMIN">     2</i>
    <i name="ENINI">    720.00000000</i>
    <separator name="electronic convergence detail" >
     <i type="logical" name="LDIAG"> T  </i>
     <i type="logical" name="LSUBROT"> F  </i>
     <i name="WEIMIN">      0.00000000</i>
     <i name="EBREAK">      0.00000000</i>
     <i name="DEPER">      0.30000000</i>
     <i type="int" name="NRMM">     4</i>
     <i name="TIME">      0.40000000</i>
    </separator>
   </separator>
   <separator name="electronic mixer" >
    <i name="AMIX">      0.40000000</i>
    <i name="BMIX">      1.00000000</i>
    <i name="AMIN">      0.10000000</i>
    <i name="AMIX_MAG">      1.60000000</i>
    <i name="BMIX_MAG">      1.00000000</i>
    <separator name="electronic mixer details" >
     <i type="int" name="IMIX">     4</i>
     <i type="logical" name="MIXFIRST"> F  </i>
     <i type="int" name="MAXMIX">   -45</i>
     <i name="WC">    100.00000000</i>
     <i type="int" name="INIMIX">     1</i>
     <i type="int" name="MIXPRE">     1</i>
     <i type="int" name="MREMOVE">     5</i>
    </separator>
   </separator>
   <separator name="electronic dipolcorrection" >
    <i type="logical" name="LDIPOL"> F  </i>
    <i type="logical" name="LMONO"> F  </i>
    <i type="int" name="IDIPOL">     0</i>
    <i name="EPSILON">      1.00000000</i>
    <v name="DIPOL">   -100.00000000   -100.00000000   -100.00000000</v>
    <i name="EFIELD">      0.00000000</i>
   </separator>
  </separator>
  <separator name="grids" >
   <i type="int" name="NGX">    28</i>
   <i type="int" name="NGY">    28</i>
   <i type="int" name="NGZ">    28</i>
   <i type="int" name="NGXF">    56</i>
   <i type="int" name="NGYF">    56</i>
   <i type="int" name="NGZF">    56</i>
   <i type="logical" name="ADDGRID"> F  </i>
  </separator>
  <separator name="ionic" >
   <i type="int" name="NSW">     0</i>
   <i type="int" name="IBRION">    -1</i>
   <i type="int" name="MDALGO">     0</i>
   <i type="int" name="ISIF">     3</i>
   <i name="PSTRESS">      0.00000000</i>
   <i name="EDIFFG">      0.00000100</i>
   <i type="int" name="NFREE">     0</i>
   <i name="POTIM">      0.50000000</i>
   <i name="SMASS">     -3.00000000</i>
   <i name="SCALEE">      1.00000000</i>
  </separator>
  <separator name="ionic md" >
   <i name="TEBEG">      0.00010000</i>
   <i name="TEEND">      0.00010000</i>
   <i type="int" name="NBLOCK">     1</i>
   <i type="int" name="KBLOCK">     1</i>
   <i type="int" name="NPACO">   256</i>
   <i name="APACO">     16.00000000</i>
  </separator>
  <separator name="symmetry" >
   <i type="int" name="ISYM">     2</i>
   <i name="SYMPREC">      0.00001000</i>
  </separator>
  <separator name="dos" >
   <i type="int" name="LORBIT">    11</i>
   <v name="RWIGS">     -1.00000000</v>
   <i type="int" name="NEDOS">   301</i>
   <i name="EMIN">     10.00000000</i>
   <i name="EMAX">    -10.00000000</i>
   <i name="EFERMI">      0.00000000</i>
  </separator>
  <separator name="writing" >
   <i type="int" name="NWRITE">     2</i>
   <i type="logical" name="LWAVE"> F  </i>
   <i type="logical" name="LDOWNSAMPLE"> F  </i>
   <i type="logical" name="LCHARG"> F  </i>
   <i type="logical" name="LPARD"> F  </i>
   <i type="logical" name="LVTOT"> F  </i>
   <i type="logical" name="LVHAR"> F  </i>
   <i type="logical" name="LELF"> F  </i>
   <i type="logical" name="LOPTICS"> F  </i>
   <v name="STM">      0.00000000      0.00000000      0.00000000      0.00000000      0.00000000      0.00000000      0.00000000</v>
  </separator>
  <separator name="performance" >
   <i type="int" name="NPAR">     6</i>
   <i type="int" name="NSIM">     4</i>
   <i type="int" name="NBLK">    -1</i>
   <i type="logical" name="LPLANE"> T  </i>
   <i type="logical" name="LSCALAPACK"> T  </i>
   <i type="logical" name="LSCAAWARE"> F  </i>
   <i type="logical" name="LSCALU"> F  </i>
   <i type="logical" name="LASYNC"> F  </i>
   <i type="logical" name="LORBITALREAL"> F  </i>
  </separator>
  <separator name="miscellaneous" >
   <i type="int" name="IDIOT">     3</i>
   <i type="int" name="ISPECIAL">     0</i>
   <i type="logical" name="LMUSIC"> F  </i>
   <v name="POMASS">     55.84700000</v>
   <v name="DARWINR">      0.00000000</v>
   <v name="DARWINV">      1.00000000</v>
   <i type="logical" name="LCORR"> T  </i>
  </separator>
  <i type="logical" name="GGA_COMPAT"> T  </i>
  <i type="logical" name="LBERRY"> F  </i>
  <i type="int" name="ICORELEVEL">     0</i>
  <i type="logical" name="LDAU"> F  </i>
  <i type="int" name="I_CONSTRAINED_M">     0</i>
  <separator name="electronic exchange-correlation" >
   <i type="string" name="GGA">--</i>
   <i type="int" name="VOSKOWN">     0</i>
   <i type="logical" name="LHFCALC"> F  </i>
   <i type="string" name="PRECFOCK"></i>
   <i type="logical" name="LSYMGRAD"> F  </i>
   <i type="logical" name="LHFONE"> F  </i>
   <i type="logical" name="LRHFCALC"> F  </i>
   <i type="logical" name="LTHOMAS"> F  </i>
   <i type="logical" name="LMODELHF"> F  </i>
   <i name="ENCUT4O">     -1.00000000</i>
   <i type="int" name="EXXOEP">     0</i>
   <i type="int" name="FOURORBIT">     0</i>
   <i name="AEXX">      0.00000000</i>
   <i name="HFALPHA">      0.00000000</i>
   <i name="MCALPHA">      0.00000000</i>
   <i name="ALDAX">      1.00000000</i>
   <i name="AGGAX">      1.00000000</i>
   <i name="ALDAC">      1.00000000</i>
   <i name="AGGAC">      1.00000000</i>
   <i type="int" name="NKREDX">     1</i>
   <i type="int" name="NKREDY">     1</i>
   <i type="int" name="NKREDZ">     1</i>
   <i type="logical" name="SHIFTRED"> F  </i>
   <i type="logical" name="ODDONLY"> F  </i>
   <i type="logical" name="EVENONLY"> F  </i>
   <i type="int" name="LMAXFOCK">     0</i>
   <i type="int" name="NMAXFOCKAE">     0</i>
   <i type="logical" name="LFOCKAEDFT"> F  </i>
   <i name="HFSCREEN">      0.00000000</i>
   <i name="HFSCREENC">      0.00000000</i>
   <i type="int" name="NBANDSGWLOW">     0</i>
  </separator>
  <separator name="vdW DFT" >
   <i type="logical" name="LUSE_VDW"> F  </i>
   <i name="Zab_VDW">     -0.84910000</i>
   <i name="PARAM1">      0.12340000</i>
   <i name="PARAM2">      1.00000000</i>
   <i name="PARAM3">      0.00000000</i>
  </separator>
  <separator name="model GW" >
   <i type="int" name="MODEL_GW">     0</i>
   <i name="MODEL_EPS0">      6.87226868</i>
   <i name="MODEL_ALPHA">      1.00000000</i>
  </separator>
  <separator name="linear response parameters" >
   <i type="logical" name="LEPSILON"> F  </i>
   <i type="logical" name="LRPA"> F  </i>
   <i type="logical" name="LNABLA"> F  </i>
   <i type="logical" name="LVEL"> F  </i>
   <i type="int" name="KINTER">     0</i>
   <i name="CSHIFT">      0.10000000</i>
   <i name="OMEGAMAX">     -1.00000000</i>
   <i name="DEG_THRESHOLD">      0.00200000</i>
   <i name="RTIME">     -0.10000000</i>
   <i name="WPLASMAI">      0.00000000</i>
   <v name="DFIELD">      0.00000000      0.00000000      0.00000000</v>
   <v name="WPLASMA">      0.00000000      0.00000000      0.00000000      0.00000000      0.00000000      0.00000000      0.00000000      0.00000000      0.00000000</v>
  </separator>
  <separator name="orbital magnetization" >
   <i type="logical" name="NUCIND"> F  </i>
   <v name="MAGPOS">      0.00000000      0.00000000      0.00000000</v>
   <i type="logical" name="LNICSALL"> T  </i>
   <i type="logical" name="ORBITALMAG"> F  </i>
   <i type="logical" name="LMAGBLOCH"> F  </i>
   <i type="logical" name="LCHIMAG"> F  </i>
   <i type="logical" name="LGAUGE"> T  </i>
   <i type="int" name="MAGATOM">     0</i>
   <v name="MAGDIPOL">      0.00000000      0.00000000      0.00000000</v>
   <v name="AVECCONST">      0.00000000      0.00000000      0.00000000</v>
  </separator>
  <separator name="response functions" >
   <i type="logical" name="LADDER"> F  </i>
   <i type="logical" name="LRPAFORCE"> F  </i>
   <i type="logical" name="LFXC"> F  </i>
   <i type="logical" name="LHARTREE"> T  </i>
   <i type="int" name="IBSE">     0</i>
   <v type="int" name="KPOINT">    -1     0     0     0</v>
   <i type="logical" name="LTCTE"> F  </i>
   <i type="logical" name="LTETE"> F  </i>
   <i type="logical" name="LTRIPLET"> F  </i>
   <i type="logical" name="LFXCEPS"> F  </i>
   <i type="logical" name="LFXHEG"> F  </i>
   <i type="int" name="NATURALO">     2</i>
   <i type="logical" name="L2ORDER"> F  </i>
   <i type="logical" name="LMP2LT"> F  </i>
   <i type="logical" name="LUSEW"> F  </i>
   <i name="ENCUTGW">     -2.00000000</i>
   <i name="ENCUTGWSOFT">     -2.00000000</i>
   <i name="ENCUTLF">     -1.00000000</i>
   <i type="int" name="LMAXMP2">    -1</i>
   <i name="SCISSOR">      0.00000000</i>
   <i type="int" name="NOMEGA">     0</i>
   <i type="int" name="NOMEGAR">     0</i>
   <i type="int" name="NBANDSGW">    -1</i>
   <i type="int" name="NBANDSO">    -1</i>
   <i type="int" name="NBANDSV">    -1</i>
   <i type="int" name="NELM">   100</i>
   <i type="int" name="NELMHF">     1</i>
   <i type="int" name="DIM">     3</i>
   <i type="int" name="ANTIRES">     0</i>
   <i name="OMEGAMAX">    -30.00000000</i>
   <i name="OMEGAMIN">    -30.00000000</i>
   <i name="OMEGATL">   -200.00000000</i>
   <i type="int" name="OMEGAGRID">   140</i>
   <i name="CSHIFT">     -0.10000000</i>
   <i type="logical" name="SELFENERGY"> F  </i>
   <i type="logical" name="LSPECTRAL"> F  </i>
   <i type="logical" name="LSPECTRALGW"> F  </i>
   <i type="logical" name="LSINGLES"> F  </i>
   <i type="logical" name="LFERMIGW"> F  </i>
   <i type="logical" name="ODDONLYGW"> F  </i>
   <i type="logical" name="EVENONLYGW"> F  </i>
   <i type="int" name="NKREDLFX">     1</i>
   <i type="int" name="NKREDLFY">     1</i>
   <i type="int" name="NKREDLFZ">     1</i>
   <i type="int" name="MAXMEM">  2800</i>
   <i type="int" name="TELESCOPE">     0</i>
   <i type="int" name="TAUPAR">     1</i>
   <i type="int" name="OMEGAPAR">    -1</i>
   <i name="LAMBDA">      1.00000000</i>
  </separator>
  <separator name="External order field" >
   <i name="OFIELD_KAPPA">      0.00000000</i>
   <v name="OFIELD_K">      0.00000000      0.00000000      0.00000000</v>
   <i name="OFIELD_Q6_NEAR">      0.00000000</i>
   <i name="OFIELD_Q6_FAR">      0.00000000</i>
   <i name="OFIELD_A">      0.00000000</i>
  </separator>
 </parameters>
 <atominfo>
  <atoms>       2 </atoms>
  <types>       1 </types>
  <array name="atoms" >
   <dimension dim="1">ion</dimension>
   <field type="string">element</field>
   <field type="int">atomtype</field>
   <set>
    <rc><c>Fe</c><c>   1</c></rc>
    <rc><c>Fe</c><c>   1</c></rc>
   </set>
  </array>
  <array name="atomtypes" >
   <dimension dim="1">type</dimension>
   <field type="int">atomspertype</field>
   <field type="string">element</field>
   <field>mass</field>
   <field>valence</field>
   <field type="string">pseudopotential</field>
   <set>
    <rc><c>   2</c><c>Fe</c><c>     55.84700000</c><c>     14.00000000</c><c>  PAW_PBE Fe_pv 02Aug2007               </c></rc>
   </set>
  </array>
 </atominfo>
 <structure name="initialpos" >
  <crystal>
   <varray name="basis" >
    <v>       2.84005200       0.00000000       0.00000000 </v>
    <v>       0.00000000       2.84005200       0.00000000 </v>
    <v>       0.00000000       0.00000000       2.84005200 </v>
   </varray>
   <i name="volume">     22.90756226 </i>
   <varray name="rec_basis" >
    <v>       0.35210623       0.00000000       0.00000000 </v>
    <v>       0.00000000       0.35210623       0.00000000 </v>
    <v>       0.00000000       0.00000000       0.35210623 </v>
   </varray>
  </crystal>
  <varray name="positions" >
   <v>       0.00000000       0.00000000       0.00000000 </v>
   <v>       0.50000000       0.50000000       0.50000000 </v>
  </varray>
 </structure>
 <calculation>
  <scstep>
   <time name="dav">    0.51    0.53</time>
   <time name="total">    0.57    0.59</time>
   <energy>
    <i name="alphaZ">    218.87048721 </i>
    <i name="ewald">  -3616.56080017 </i>
    <i name="hartreedc">  -1162.86386254 </i>
    <i name="XCdc">    147.54621443 </i>
    <i name="pawpsdc">   3997.93860218 </i>
    <i name="pawaedc">  -4177.34792201 </i>
    <i name="eentropy">      0.00000000 </i>
    <i name="bandstr">    -82.96532203 </i>
    <i name="atom">   4914.84383268 </i>
    <i name="e_fr_energy">    239.46122974 </i>
    <i name="e_wo_entrp">    239.46122974 </i>
    <i name="e_0_energy">    239.46122974 </i>
   </energy>
  </scstep>
  <scstep>
   <time name="dav">    0.52    0.52</time>
   <time name="total">    0.55    0.55</time>
   <energy>
    <i name="e_fr_energy">     -9.23105347 </i>
    <i name="e_wo_entrp">     -9.23105347 </i>
    <i name="e_0_energy">     -9.23105347 </i>
   </energy>
  </scstep>
  <scstep>
   <time name="dav">    0.52    0.52</time>
   <time name="total">    0.56    0.56</time>
   <energy>
    <i name="e_fr_energy">    -16.21546565 </i>
    <i name="e_wo_entrp">    -16.21546565 </i>
    <i name="e_0_energy">    -16.21546565 </i>
   </energy>
  </scstep>
  <scstep>
   <time name="dav">    0.57    0.57</time>
   <time name="total">    0.60    0.61</time>
   <energy>
    <i name="e_fr_energy">    -16.27424794 </i>
    <i name="e_wo_entrp">    -16.27424794 </i>
    <i name="e_0_energy">    -16.27424794 </i>
   </energy>
  </scstep>
  <scstep>
   <time name="dav">    0.53    0.53</time>
   <time name="total">    0.59    0.59</time>
   <energy>
    <i name="e_fr_energy">    -16.27533152 </i>
    <i name="e_wo_entrp">    -16.27533152 </i>
    <i name="e_0_energy">    -16.27533152 </i>
   </energy>
  </scstep>
  <scstep>
   <time name="dav">    0.50    0.50</time>
   <time name="total">    0.57    0.58</time>
   <energy>
    <i name="e_fr_energy">    -16.45919869 </i>
    <i name="e_wo_entrp">    -16.45919869 </i>
    <i name="e_0_energy">    -16.45919869 </i>
   </energy>
  </scstep>
  <scstep>
   <time name="dav">    0.50    0.50</time>
   <time name="total">    0.57    0.57</time>
   <energy>
    <i name="e_fr_energy">    -16.51379271 </i>
    <i name="e_wo_entrp">    -16.51379271 </i>
    <i name="e_0_energy">    -16.51379271 </i>
   </energy>
  </scstep>
  <scstep>
   <time name="dav">    0.55    0.55</time>
   <time name="total">    0.62    0.62</time>
   <energy>
    <i name="e_fr_energy">    -16.52350731 </i>
    <i name="e_wo_entrp">    -16.52350731 </i>
    <i name="e_0_energy">    -16.52350731 </i>
   </energy>
  </scstep>
  <scstep>
   <time name="dav">    0.52    0.53</time>
   <time name="total">    0.59    0.60</time>
   <energy>
    <i name="e_fr_energy">    -16.51522354 </i>
    <i name="e_wo_entrp">    -16.51522354 </i>
    <i name="e_0_energy">    -16.51522354 </i>
   </energy>
  </scstep>
  <scstep>
   <time name="dav">    0.50    0.51</time>
   <time name="total">    0.58    0.58</time>
   <energy>
    <i name="e_fr_energy">    -16.51502494 </i>
    <i name="e_wo_entrp">    -16.51502494 </i>
    <i name="e_0_energy">    -16.51502494 </i>
   </energy>
  </scstep>
  <scstep>
   <time name="dav">    0.52    0.52</time>
   <time name="total">    0.59    0.60</time>
   <energy>
    <i name="e_fr_energy">    -16.51508488 </i>
    <i name="e_wo_entrp">    -16.51508488 </i>
    <i name="e_0_energy">    -16.51508488 </i>
   </energy>
  </scstep>
  <scstep>
   <time name="dav">    0.57    0.57</time>
   <time name="total">    0.64    0.64</time>
   <energy>
    <i name="e_fr_energy">    -16.51509302 </i>
    <i name="e_wo_entrp">    -16.51509302 </i>
    <i name="e_0_energy">    -16.51509302 </i>
   </energy>
  </scstep>
  <scstep>
   <time name="dav">    0.51    0.51</time>
   <time name="total">    0.58    0.58</time>
   <energy>
    <i name="e_fr_energy">    -16.51508626 </i>
    <i name="e_wo_entrp">    -16.51508626 </i>
    <i name="e_0_energy">    -16.51508626 </i>
   </energy>
  </scstep>
  <scstep>
   <time name="dav">    0.44    0.44</time>
   <time name="total">    0.50    0.51</time>
   <energy>
    <i name="e_fr_energy">    -16.51508471 </i>
    <i name="e_wo_entrp">    -16.51508471 </i>
    <i name="e_0_energy">    -16.51508471 </i>
   </energy>
  </scstep>
  <scstep>
   <time name="dav">    0.33    0.33</time>
   <time name="total">    0.38    0.38</time>
   <energy>
    <i name="alphaZ">    218.87048721 </i>
    <i name="ewald">  -3616.56080017 </i>
    <i name="hartreedc">  -1089.92484541 </i>
    <i name="XCdc">    140.87574994 </i>
    <i name="pawpsdc">   4375.65702083 </i>
    <i name="pawaedc">  -4561.00204033 </i>
    <i name="eentropy">      0.00000000 </i>
    <i name="bandstr">   -399.27448948 </i>
    <i name="atom">   4914.84383268 </i>
    <i name="e_fr_energy">    -16.51508473 </i>
    <i name="e_wo_entrp">    -16.51508473 </i>
    <i name="e_0_energy">    -16.51508473 </i>
   </energy>
  </scstep>
  <structure>
   <crystal>
    <varray name="basis" >
     <v>       2.84005200       0.00000000       0.00000000 </v>
     <v>       0.00000000       2.84005200       0.00000000 </v>
     <v>       0.00000000       0.00000000       2.84005200 </v>
    </varray>
    <i name="volume">     22.90756226 </i>
    <varray name="rec_basis" >
     <v>       0.35210623       0.00000000       0.00000000 </v>
     <v>       0.00000000       0.35210623       0.00000000 </v>
     <v>       0.00000000       0.00000000       0.35210623 </v>
    </varray>
   </crystal>
   <varray name="positions" >
    <v>       0.00000000       0.00000000       0.00000000 </v>
    <v>       0.50000000       0.50000000       0.50000000 </v>
   </varray>
  </structure>
  <varray name="forces" >
   <v>      -0.00000000      -0.00000000      -0.00000000 </v>
   <v>       0.00000000       0.00000000       0.00000000 </v>
  </varray>
  <varray name="stress" >
   <v>     -16.55208389      -0.00000000      -0.00000000 </v>
   <v>       0.00000000     -16.55208389      -0.00000000 </v>
   <v>      -0.00000000       0.00000000     -16.55208389 </v>
  </varray>
  <energy>
   <i name="e_fr_energy">    -16.51508473 </i>
   <i name="e_wo_entrp">    -16.51508473 </i>
   <i name="e_0_energy">      0.00000000 </i>
  </energy>
  <time name="totalsc">    8.99    9.03</time>
  <eigenvalues>
   <array>
    <dimension dim="1">band</dimension>
    <dimension dim="2">kpoint</dimension>
    <dimension dim="3">spin</dimension>
    <field>eigene</field>
    <field>occ</field>
    <set>
     <set comment="spin 1">
      <set comment="kpoint 1">
       <r>  -44.5605    1.0000 </r>
       <r>  -44.5605    1.0000 </r>
       <r>  -44.5462    1.0000 </r>
       <r>  -44.2895    1.0000 </r>
       <r>  -44.2748    1.0000 </r>
       <r>  -44.2748    1.0000 </r>
       <r>    1.3982    1.0000 </r>
       <r>    4.9380    1.0000 </r>
       <r>    4.9380    1.0000 </r>
       <r>    7.3046    1.0000 </r>
       <r>    7.3046    1.0000 </r>
       <r>    7.4307    1.0000 </r>
       <r>    8.5803    1.0000 </r>
       <r>    8.5803    1.0000 </r>
       <r>    9.4947    1.0000 </r>
       <r>    9.6871    0.6006 </r>
       <r>    9.6871    0.0098 </r>
       <r>   19.1996    0.0000 </r>
       <r>   19.1996    0.0000 </r>
       <r>   19.4416    0.0000 </r>
       <r>   25.8102    0.0000 </r>
       <r>   25.8102    0.0000 </r>
       <r>   30.6969    0.0000 </r>
       <r>   33.3488    0.0000 </r>
      </set>
      <set comment="kpoint 2">
       <r>  -44.5665    1.0000 </r>
       <r>  -44.5457    1.0000 </r>
       <r>  -44.5241    1.0000 </r>
       <r>  -44.3212    1.0000 </r>
       <r>  -44.2879    1.0000 </r>
       <r>  -44.2803    1.0000 </r>
       <r>    1.8018    1.0000 </r>
       <r>    5.1059    1.0000 </r>
       <r>    5.1082    1.0000 </r>
       <r>    7.2461    1.0000 </r>
       <r>    7.2944    1.0000 </r>
       <r>    7.5989    1.0000 </r>
       <r>    8.4141    1.0000 </r>
       <r>    8.6552    1.0000 </r>
       <r>    9.1040    1.0000 </r>
       <r>    9.3725    1.0210 </r>
       <r>    9.6657    0.1360 </r>
       <r>   17.0988    0.0000 </r>
       <r>   19.9186    0.0000 </r>
       <r>   20.0957    0.0000 </r>
       <r>   25.9617    0.0000 </r>
       <r>   27.1438    0.0000 </r>
       <r>   31.5525    0.0000 </r>
       <r>   32.1496    0.0000 </r>
      </set>
      <set comment="kpoint 3">
       <r>  -44.5637    1.0000 </r>
       <r>  -44.5179    1.0000 </r>
       <r>  -44.4934    1.0000 </r>
       <r>  -44.3689    1.0000 </r>
       <r>  -44.3133    1.0000 </r>
       <r>  -44.3003    1.0000 </r>
       <r>    2.5673    1.0000 </r>
       <r>    5.3673    1.0000 </r>
       <r>    5.4272    1.0000 </r>
       <r>    7.2422    1.0000 </r>
       <r>    7.2872    1.0000 </r>
       <r>    7.8415    1.0000 </r>
       <r>    8.1077    1.0000 </r>
       <r>    8.6065    1.0000 </r>
       <r>    8.7946    1.0000 </r>
       <r>    8.8889    1.0000 </r>
       <r>    9.4858    1.0391 </r>
       <r>   14.5756    0.0000 </r>
       <r>   21.1877    0.0000 </r>
       <r>   21.3584    0.0000 </r>
       <r>   26.2944    0.0000 </r>
       <r>   27.9716    0.0000 </r>
       <r>   29.6288    0.0000 </r>
       <r>   31.2959    0.0000 </r>
      </set>
      <set comment="kpoint 4">
       <r>  -44.5493    1.0000 </r>
       <r>  -44.4801    1.0000 </r>
       <r>  -44.4554    1.0000 </r>
       <r>  -44.4242    1.0000 </r>
       <r>  -44.3487    1.0000 </r>
       <r>  -44.3316    1.0000 </r>
       <r>    3.5893    1.0000 </r>
       <r>    5.5400    1.0000 </r>
       <r>    5.8723    1.0000 </r>
       <r>    7.2456    1.0000 </r>
       <r>    7.3211    1.0000 </r>
       <r>    7.7678    1.0000 </r>
       <r>    8.1303    1.0000 </r>
       <r>    8.1501    1.0000 </r>
       <r>    8.3928    1.0000 </r>
       <r>    9.0191    1.0000 </r>
       <r>    9.2003    1.0387 </r>
       <r>   12.2832    0.0000 </r>
       <r>   22.7945    0.0000 </r>
       <r>   23.0073    0.0000 </r>
       <r>   26.8754    0.0000 </r>
       <r>   27.8748    0.0000 </r>
       <r>   28.6103    0.0000 </r>
       <r>   29.1474    0.0000 </r>
      </set>
      <set comment="kpoint 5">
       <r>  -44.5205    1.0000 </r>
       <r>  -44.4774    1.0000 </r>
       <r>  -44.4362    1.0000 </r>
       <r>  -44.4132    1.0000 </r>
       <r>  -44.3910    1.0000 </r>
       <r>  -44.3706    1.0000 </r>
       <r>    4.6410    1.0000 </r>
       <r>    5.3580    1.0000 </r>
       <r>    6.3944    1.0000 </r>
       <r>    6.9172    1.0000 </r>
       <r>    7.4989    1.0000 </r>
       <r>    7.7310    1.0000 </r>
       <r>    7.7623    1.0000 </r>
       <r>    7.9854    1.0000 </r>
       <r>    8.4989    1.0000 </r>
       <r>    8.8573    1.0000 </r>
       <r>    9.4832    0.9855 </r>
       <r>   10.5197    0.0000 </r>
       <r>   24.5323    0.0000 </r>
       <r>   24.9045    0.0000 </r>
       <r>   26.2267    0.0000 </r>
       <r>   26.9671    0.0000 </r>
       <r>   27.8211    0.0000 </r>
       <r>   29.2507    0.0000 </r>
      </set>
      <set comment="kpoint 6">
       <r>  -44.5805    1.0000 </r>
       <r>  -44.5369    1.0000 </r>
       <r>  -44.4918    1.0000 </r>
       <r>  -44.3627    1.0000 </r>
       <r>  -44.2982    1.0000 </r>
       <r>  -44.2748    1.0000 </r>
       <r>    2.1896    1.0000 </r>
       <r>    5.2389    1.0000 </r>
       <r>    5.2977    1.0000 </r>
       <r>    7.0935    1.0000 </r>
       <r>    7.2372    1.0000 </r>
       <r>    7.8699    1.0000 </r>
       <r>    8.4385    1.0000 </r>
       <r>    8.6105    1.0000 </r>
       <r>    8.6245    1.0000 </r>
       <r>    9.1496    1.0069 </r>
       <r>    9.7347    0.0313 </r>
       <r>   17.1959    0.0000 </r>
       <r>   18.2809    0.0000 </r>
       <r>   20.6508    0.0000 </r>
       <r>   26.6282    0.0000 </r>
       <r>   28.5392    0.0000 </r>
       <r>   29.9219    0.0000 </r>
       <r>   31.9695    0.0000 </r>
      </set>
      <set comment="kpoint 7">
       <r>  -44.5898    1.0000 </r>
       <r>  -44.5114    1.0000 </r>
       <r>  -44.4540    1.0000 </r>
       <r>  -44.4174    1.0000 </r>
       <r>  -44.3212    1.0000 </r>
       <r>  -44.2822    1.0000 </r>
       <r>    2.9159    1.0000 </r>
       <r>    5.4552    1.0000 </r>
       <r>    5.6204    1.0000 </r>
       <r>    6.9879    1.0000 </r>
       <r>    7.1822    1.0000 </r>
       <r>    8.1056    1.0000 </r>
       <r>    8.2000    1.0000 </r>
       <r>    8.2824    1.0000 </r>
       <r>    8.7215    1.0000 </r>
       <r>    8.7243    1.0000 </r>
       <r>    9.6885    0.2890 </r>
       <r>   14.9838    0.0000 </r>
       <r>   19.0120    0.0000 </r>
       <r>   21.7956    0.0000 </r>
       <r>   27.0199    0.0000 </r>
       <r>   27.7477    0.0000 </r>
       <r>   29.9238    0.0000 </r>
       <r>   30.6412    0.0000 </r>
      </set>
      <set comment="kpoint 8">
       <r>  -44.5857    1.0000 </r>
       <r>  -44.4759    1.0000 </r>
       <r>  -44.4752    1.0000 </r>
       <r>  -44.4133    1.0000 </r>
       <r>  -44.3536    1.0000 </r>
       <r>  -44.3032    1.0000 </r>
       <r>    3.8581    1.0000 </r>
       <r>    5.5953    1.0000 </r>
       <r>    6.0114    1.0000 </r>
       <r>    6.9643    1.0000 </r>
       <r>    7.1187    1.0000 </r>
       <r>    7.6669    1.0000 </r>
       <r>    8.0930    1.0000 </r>
       <r>    8.3376    1.0000 </r>
       <r>    8.5642    1.0000 </r>
       <r>    8.9632    1.0000 </r>
       <r>    9.4968    0.9238 </r>
       <r>   12.6533    0.0000 </r>
       <r>   20.3761    0.0000 </r>
       <r>   23.3120    0.0000 </r>
       <r>   25.6604    0.0000 </r>
       <r>   27.5889    0.0000 </r>
       <r>   28.7790    0.0000 </r>
       <r>   30.9263    0.0000 </r>
      </set>
      <set comment="kpoint 9">
       <r>  -44.5648    1.0000 </r>
       <r>  -44.5267    1.0000 </r>
       <r>  -44.4349    1.0000 </r>
       <r>  -44.3927    1.0000 </r>
       <r>  -44.3723    1.0000 </r>
       <r>  -44.3344    1.0000 </r>
       <r>    4.7817    1.0000 </r>
       <r>    5.4044    1.0000 </r>
       <r>    6.4365    1.0000 </r>
       <r>    6.8148    1.0000 </r>
       <r>    7.1496    1.0000 </r>
       <r>    7.3555    1.0000 </r>
       <r>    8.0548    1.0000 </r>
       <r>    8.1284    1.0000 </r>
       <r>    8.8893    1.0000 </r>
       <r>    9.2081    1.0000 </r>
       <r>    9.5412    0.7784 </r>
       <r>   10.7644    0.0000 </r>
       <r>   21.9648    0.0000 </r>
       <r>   23.7292    0.0000 </r>
       <r>   25.0473    0.0000 </r>
       <r>   26.8830    0.0000 </r>
       <r>   28.4945    0.0000 </r>
       <r>   29.8473    0.0000 </r>
      </set>
      <set comment="kpoint 10">
       <r>  -44.6130    1.0000 </r>
       <r>  -44.4907    1.0000 </r>
       <r>  -44.4771    1.0000 </r>
       <r>  -44.4111    1.0000 </r>
       <r>  -44.3389    1.0000 </r>
       <r>  -44.2749    1.0000 </r>
       <r>    3.5388    1.0000 </r>
       <r>    5.5102    1.0000 </r>
       <r>    6.0139    1.0000 </r>
       <r>    6.7712    1.0000 </r>
       <r>    7.1535    1.0000 </r>
       <r>    7.5985    1.0000 </r>
       <r>    8.4262    1.0000 </r>
       <r>    8.4287    1.0000 </r>
       <r>    8.6229    1.0000 </r>
       <r>    8.6648    1.0000 </r>
       <r>    9.8079   -0.0340 </r>
       <r>   14.8630    0.0000 </r>
       <r>   17.4658    0.0000 </r>
       <r>   22.7547    0.0000 </r>
       <r>   25.3834    0.0000 </r>
       <r>   27.3661    0.0000 </r>
       <r>   30.0595    0.0000 </r>
       <r>   32.3850    0.0000 </r>
      </set>
      <set comment="kpoint 11">
       <r>  -44.6222    1.0000 </r>
       <r>  -44.5353    1.0000 </r>
       <r>  -44.4619    1.0000 </r>
       <r>  -44.3696    1.0000 </r>
       <r>  -44.3643    1.0000 </r>
       <r>  -44.2821    1.0000 </r>
       <r>    4.2635    1.0000 </r>
       <r>    5.4675    1.0000 </r>
       <r>    6.4671    1.0000 </r>
       <r>    6.6637    1.0000 </r>
       <r>    7.1891    1.0000 </r>
       <r>    7.2434    1.0000 </r>
       <r>    8.2726    1.0000 </r>
       <r>    8.4045    1.0000 </r>
       <r>    8.8096    1.0000 </r>
       <r>    9.0698    1.0219 </r>
       <r>    9.7580    0.0039 </r>
       <r>   13.0482    0.0000 </r>
       <r>   18.1034    0.0000 </r>
       <r>   23.1678    0.0000 </r>
       <r>   24.0661    0.0000 </r>
       <r>   27.8479    0.0000 </r>
       <r>   28.7850    0.0000 </r>
       <r>   31.4419    0.0000 </r>
      </set>
      <set comment="kpoint 12">
       <r>  -44.6125    1.0000 </r>
       <r>  -44.5826    1.0000 </r>
       <r>  -44.4288    1.0000 </r>
       <r>  -44.3951    1.0000 </r>
       <r>  -44.3323    1.0000 </r>
       <r>  -44.3022    1.0000 </r>
       <r>    4.8665    1.0000 </r>
       <r>    5.2595    1.0000 </r>
       <r>    6.6820    1.0000 </r>
       <r>    6.7707    1.0000 </r>
       <r>    7.0120    1.0000 </r>
       <r>    7.2241    1.0000 </r>
       <r>    8.3123    1.0000 </r>
       <r>    8.3952    1.0000 </r>
       <r>    9.1811    1.0000 </r>
       <r>    9.5468    0.9517 </r>
       <r>    9.7287    0.0297 </r>
       <r>   11.1094    0.0000 </r>
       <r>   19.4888    0.0000 </r>
       <r>   21.1931    0.0000 </r>
       <r>   25.5958    0.0000 </r>
       <r>   27.2067    0.0000 </r>
       <r>   28.6469    0.0000 </r>
       <r>   29.8691    0.0000 </r>
      </set>
      <set comment="kpoint 13">
       <r>  -44.6453    1.0000 </r>
       <r>  -44.5898    1.0000 </r>
       <r>  -44.4426    1.0000 </r>
       <r>  -44.3798    1.0000 </r>
       <r>  -44.3312    1.0000 </r>
       <r>  -44.2750    1.0000 </r>
       <r>    4.6031    1.0000 </r>
       <r>    5.2498    1.0000 </r>
       <r>    6.4670    1.0000 </r>
       <r>    6.7898    1.0000 </r>
       <r>    7.0687    1.0000 </r>
       <r>    7.8004    1.0000 </r>
       <r>    8.3288    1.0000 </r>
       <r>    8.5818    1.0000 </r>
       <r>    8.7312    1.0000 </r>
       <r>    9.5045    0.9628 </r>
       <r>    9.8584   -0.0050 </r>
       <r>   12.6726    0.0000 </r>
       <r>   17.0753    0.0000 </r>
       <r>   20.9325    0.0000 </r>
       <r>   25.1101    0.0000 </r>
       <r>   28.2078    0.0000 </r>
       <r>   28.4080    0.0000 </r>
       <r>   30.7489    0.0000 </r>
      </set>
      <set comment="kpoint 14">
       <r>  -44.6486    1.0000 </r>
       <r>  -44.6295    1.0000 </r>
       <r>  -44.4208    1.0000 </r>
       <r>  -44.3991    1.0000 </r>
       <r>  -44.3013    1.0000 </r>
       <r>  -44.2819    1.0000 </r>
       <r>    4.8275    1.0000 </r>
       <r>    5.0272    1.0000 </r>
       <r>    6.4156    1.0000 </r>
       <r>    6.5250    1.0000 </r>
       <r>    7.6334    1.0000 </r>
       <r>    8.0155    1.0000 </r>
       <r>    8.4769    1.0000 </r>
       <r>    8.6081    1.0000 </r>
       <r>    9.2344    1.0000 </r>
       <r>    9.7475    0.3169 </r>
       <r>   10.0490    0.0000 </r>
       <r>   11.2874    0.0000 </r>
       <r>   17.6522    0.0000 </r>
       <r>   19.0564    0.0000 </r>
       <r>   26.3161    0.0000 </r>
       <r>   27.4991    0.0000 </r>
       <r>   28.8184    0.0000 </r>
       <r>   29.7272    0.0000 </r>
      </set>
      <set comment="kpoint 15">
       <r>  -44.6653    1.0000 </r>
       <r>  -44.6587    1.0000 </r>
       <r>  -44.4124    1.0000 </r>
       <r>  -44.4050    1.0000 </r>
       <r>  -44.2818    1.0000 </r>
       <r>  -44.2751    1.0000 </r>
       <r>    4.7952    1.0000 </r>
       <r>    4.8567    1.0000 </r>
       <r>    6.2863    1.0000 </r>
       <r>    6.3238    1.0000 </r>
       <r>    8.3604    1.0000 </r>
       <r>    8.5982    1.0000 </r>
       <r>    8.6193    1.0000 </r>
       <r>    8.7801    1.0000 </r>
       <r>    9.2763    1.0000 </r>
       <r>    9.7025    0.2832 </r>
       <r>   10.4352    0.0000 </r>
       <r>   10.9857    0.0000 </r>
       <r>   16.9429    0.0000 </r>
       <r>   17.5290    0.0000 </r>
       <r>   27.0344    0.0000 </r>
       <r>   27.4879    0.0000 </r>
       <r>   29.0849    0.0000 </r>
       <r>   29.4299    0.0000 </r>
      </set>
      <set comment="kpoint 16">
       <r>  -44.5648    1.0000 </r>
       <r>  -44.5648    1.0000 </r>
       <r>  -44.4560    1.0000 </r>
       <r>  -44.4002    1.0000 </r>
       <r>  -44.2890    1.0000 </r>
       <r>  -44.2890    1.0000 </r>
       <r>    2.5669    1.0000 </r>
       <r>    5.4262    1.0000 </r>
       <r>    5.4262    1.0000 </r>
       <r>    7.0360    1.0000 </r>
       <r>    7.0360    1.0000 </r>
       <r>    8.0859    1.0000 </r>
       <r>    8.1860    1.0000 </r>
       <r>    8.5280    1.0000 </r>
       <r>    8.5280    1.0000 </r>
       <r>    9.4249    0.9998 </r>
       <r>    9.4249    1.1122 </r>
       <r>   17.8413    0.0000 </r>
       <r>   17.8413    0.0000 </r>
       <r>   19.2369    0.0000 </r>
       <r>   28.7873    0.0000 </r>
       <r>   28.7873    0.0000 </r>
       <r>   29.7385    0.0000 </r>
       <r>   29.7385    0.0000 </r>
      </set>
      <set comment="kpoint 17">
       <r>  -44.5851    1.0000 </r>
       <r>  -44.5351    1.0000 </r>
       <r>  -44.4516    1.0000 </r>
       <r>  -44.4179    1.0000 </r>
       <r>  -44.3162    1.0000 </r>
       <r>  -44.2884    1.0000 </r>
       <r>    3.2656    1.0000 </r>
       <r>    5.6654    1.0000 </r>
       <r>    5.6996    1.0000 </r>
       <r>    6.9034    1.0000 </r>
       <r>    6.9348    1.0000 </r>
       <r>    7.5731    1.0000 </r>
       <r>    8.3822    1.0000 </r>
       <r>    8.5849    1.0000 </r>
       <r>    8.6826    1.0000 </r>
       <r>    8.9719    1.0000 </r>
       <r>    9.5063    0.9526 </r>
       <r>   15.4702    0.0000 </r>
       <r>   18.9552    0.0000 </r>
       <r>   19.8767    0.0000 </r>
       <r>   27.5256    0.0000 </r>
       <r>   28.5415    0.0000 </r>
       <r>   29.3029    0.0000 </r>
       <r>   30.5091    0.0000 </r>
      </set>
      <set comment="kpoint 18">
       <r>  -44.5912    1.0000 </r>
       <r>  -44.5045    1.0000 </r>
       <r>  -44.4947    1.0000 </r>
       <r>  -44.3811    1.0000 </r>
       <r>  -44.3541    1.0000 </r>
       <r>  -44.2991    1.0000 </r>
       <r>    4.1487    1.0000 </r>
       <r>    5.8191    1.0000 </r>
       <r>    5.9786    1.0000 </r>
       <r>    6.7951    1.0000 </r>
       <r>    6.9292    1.0000 </r>
       <r>    7.2679    1.0000 </r>
       <r>    8.2260    1.0000 </r>
       <r>    8.5458    1.0000 </r>
       <r>    8.8082    1.0000 </r>
       <r>    9.1279    1.0000 </r>
       <r>    9.4067    0.9270 </r>
       <r>   13.1244    0.0000 </r>
       <r>   20.3548    0.0000 </r>
       <r>   21.0650    0.0000 </r>
       <r>   25.4924    0.0000 </r>
       <r>   26.4576    0.0000 </r>
       <r>   30.1153    0.0000 </r>
       <r>   31.4556    0.0000 </r>
      </set>
      <set comment="kpoint 19">
       <r>  -44.5796    1.0000 </r>
       <r>  -44.5495    1.0000 </r>
       <r>  -44.4478    1.0000 </r>
       <r>  -44.3994    1.0000 </r>
       <r>  -44.3475    1.0000 </r>
       <r>  -44.3195    1.0000 </r>
       <r>    4.9803    1.0000 </r>
       <r>    5.5621    1.0000 </r>
       <r>    6.3098    1.0000 </r>
       <r>    6.5936    1.0000 </r>
       <r>    7.0940    1.0000 </r>
       <r>    7.2047    1.0000 </r>
       <r>    8.1538    1.0000 </r>
       <r>    8.2552    1.0000 </r>
       <r>    8.9736    1.0000 </r>
       <r>    9.1933    1.0000 </r>
       <r>    9.9046   -0.0495 </r>
       <r>   11.2098    0.0000 </r>
       <r>   21.9290    0.0000 </r>
       <r>   22.5760    0.0000 </r>
       <r>   23.6375    0.0000 </r>
       <r>   24.3860    0.0000 </r>
       <r>   31.2414    0.0000 </r>
       <r>   32.1308    0.0000 </r>
      </set>
      <set comment="kpoint 20">
       <r>  -44.5956    1.0000 </r>
       <r>  -44.5261    1.0000 </r>
       <r>  -44.4995    1.0000 </r>
       <r>  -44.3813    1.0000 </r>
       <r>  -44.3307    1.0000 </r>
       <r>  -44.2906    1.0000 </r>
       <r>    3.8867    1.0000 </r>
       <r>    5.7526    1.0000 </r>
       <r>    6.0630    1.0000 </r>
       <r>    6.6986    1.0000 </r>
       <r>    6.8474    1.0000 </r>
       <r>    7.0947    1.0000 </r>
       <r>    8.4901    1.0000 </r>
       <r>    8.6475    1.0000 </r>
       <r>    8.8033    1.0000 </r>
       <r>    9.0801    1.0000 </r>
       <r>    9.4847    0.8377 </r>
       <r>   15.5504    0.0000 </r>
       <r>   17.5339    0.0000 </r>
       <r>   20.3337    0.0000 </r>
       <r>   25.5632    0.0000 </r>
       <r>   27.9317    0.0000 </r>
       <r>   30.2204    0.0000 </r>
       <r>   30.2831    0.0000 </r>
      </set>
      <set comment="kpoint 21">
       <r>  -44.6084    1.0000 </r>
       <r>  -44.5471    1.0000 </r>
       <r>  -44.4918    1.0000 </r>
       <r>  -44.3628    1.0000 </r>
       <r>  -44.3492    1.0000 </r>
       <r>  -44.2941    1.0000 </r>
       <r>    4.5906    1.0000 </r>
       <r>    5.7246    1.0000 </r>
       <r>    6.3744    1.0000 </r>
       <r>    6.5797    1.0000 </r>
       <r>    6.9008    1.0000 </r>
       <r>    6.9067    1.0000 </r>
       <r>    8.4417    1.0000 </r>
       <r>    8.5422    1.0000 </r>
       <r>    8.7768    1.0000 </r>
       <r>    9.4401    1.0000 </r>
       <r>    9.6485    0.1949 </r>
       <r>   13.7017    0.0000 </r>
       <r>   18.2678    0.0000 </r>
       <r>   21.4248    0.0000 </r>
       <r>   23.3779    0.0000 </r>
       <r>   26.4173    0.0000 </r>
       <r>   30.0193    0.0000 </r>
       <r>   30.7691    0.0000 </r>
      </set>
      <set comment="kpoint 22">
       <r>  -44.6060    1.0000 </r>
       <r>  -44.5848    1.0000 </r>
       <r>  -44.4487    1.0000 </r>
       <r>  -44.4039    1.0000 </r>
       <r>  -44.3234    1.0000 </r>
       <r>  -44.3048    1.0000 </r>
       <r>    5.1410    1.0000 </r>
       <r>    5.5045    1.0000 </r>
       <r>    6.4596    1.0000 </r>
       <r>    6.5107    1.0000 </r>
       <r>    7.0543    1.0000 </r>
       <r>    7.0693    1.0000 </r>
       <r>    8.4027    1.0000 </r>
       <r>    8.4197    1.0000 </r>
       <r>    8.9772    1.0000 </r>
       <r>    9.2445    1.0149 </r>
       <r>   10.4634   -0.0551 </r>
       <r>   11.8105    0.0000 </r>
       <r>   19.6879    0.0000 </r>
       <r>   21.4030    0.0000 </r>
       <r>   22.8374    0.0000 </r>
       <r>   24.5275    0.0000 </r>
       <r>   30.5829    0.0000 </r>
       <r>   31.0099    0.0000 </r>
      </set>
      <set comment="kpoint 23">
       <r>  -44.6264    1.0000 </r>
       <r>  -44.5887    1.0000 </r>
       <r>  -44.4694    1.0000 </r>
       <r>  -44.3813    1.0000 </r>
       <r>  -44.3239    1.0000 </r>
       <r>  -44.2923    1.0000 </r>
       <r>    4.9326    1.0000 </r>
       <r>    5.4951    1.0000 </r>
       <r>    6.4120    1.0000 </r>
       <r>    6.5884    1.0000 </r>
       <r>    6.9873    1.0000 </r>
       <r>    7.2590    1.0000 </r>
       <r>    8.5122    1.0000 </r>
       <r>    8.5864    1.0000 </r>
       <r>    8.7368    1.0000 </r>
       <r>    9.4446    1.0068 </r>
       <r>   10.2603   -0.0186 </r>
       <r>   13.5562    0.0000 </r>
       <r>   17.1445    0.0000 </r>
       <r>   21.1505    0.0000 </r>
       <r>   22.3752    0.0000 </r>
       <r>   26.5223    0.0000 </r>
       <r>   28.2801    0.0000 </r>
       <r>   30.4809    0.0000 </r>
      </set>
      <set comment="kpoint 24">
       <r>  -44.6318    1.0000 </r>
       <r>  -44.6189    1.0000 </r>
       <r>  -44.4389    1.0000 </r>
       <r>  -44.4078    1.0000 </r>
       <r>  -44.3063    1.0000 </r>
[...]
       </set>
       <set comment="band 12">
        <r>  0.0000  0.0466  0.0047  0.0232  0.0136  0.0679  0.0093  0.1364  0.0898 </r>
        <r>  0.0000  0.0466  0.0047  0.0232  0.0136  0.0679  0.0093  0.1364  0.0898 </r>
       </set>
       <set comment="band 13">
        <r>  0.0000  0.0013  0.0001  0.0007  0.0067  0.0456  0.0249  0.0872  0.3208 </r>
        <r>  0.0000  0.0013  0.0001  0.0007  0.0067  0.0456  0.0249  0.0872  0.3208 </r>
       </set>
       <set comment="band 14">
        <r>  0.0000  0.0001  0.0013  0.0007  0.0863  0.0474  0.3208  0.0058  0.0249 </r>
        <r>  0.0000  0.0001  0.0013  0.0007  0.0863  0.0474  0.3208  0.0058  0.0249 </r>
       </set>
       <set comment="band 15">
        <r>  0.0000  0.0000  0.0000  0.0000  0.0127  0.0013  0.2437  0.0215  0.2092 </r>
        <r>  0.0000  0.0000  0.0000  0.0000  0.0127  0.0013  0.2437  0.0215  0.2092 </r>
       </set>
       <set comment="band 16">
        <r>  0.0000  0.0000  0.0000  0.0000  0.0109  0.0224  0.2092  0.0022  0.2437 </r>
        <r>  0.0000  0.0000  0.0000  0.0000  0.0109  0.0224  0.2092  0.0022  0.2437 </r>
       </set>
       <set comment="band 17">
        <r>  0.0250  0.0199  0.0199  0.0199  0.1216  0.1216  0.0000  0.1216  0.0000 </r>
        <r>  0.0250  0.0199  0.0199  0.0199  0.1216  0.1216  0.0000  0.1216  0.0000 </r>
       </set>
       <set comment="band 18">
        <r>  0.0000  0.0121  0.1117  0.0505  0.1092  0.0494  0.0515  0.0118  0.0021 </r>
        <r>  0.0000  0.0121  0.1117  0.0505  0.1092  0.0494  0.0515  0.0118  0.0021 </r>
       </set>
       <set comment="band 19">
        <r>  0.0000  0.1041  0.0045  0.0657  0.0044  0.0642  0.0021  0.1018  0.0515 </r>
        <r>  0.0000  0.1041  0.0045  0.0657  0.0044  0.0642  0.0021  0.1018  0.0515 </r>
       </set>
       <set comment="band 20">
        <r>  0.2670  0.0000  0.0000  0.0000  0.0373  0.0373  0.0000  0.0373  0.0000 </r>
        <r>  0.2670  0.0000  0.0000  0.0000  0.0373  0.0373  0.0000  0.0373  0.0000 </r>
       </set>
       <set comment="band 21">
        <r>  0.0000  0.0638  0.1027  0.0057  0.0934  0.0052  0.0193  0.0580  0.0023 </r>
        <r>  0.0000  0.0638  0.1027  0.0057  0.0934  0.0052  0.0193  0.0580  0.0023 </r>
       </set>
       <set comment="band 22">
        <r>  0.0000  0.0510  0.0121  0.1090  0.0110  0.0992  0.0023  0.0464  0.0193 </r>
        <r>  0.0000  0.0510  0.0121  0.1090  0.0110  0.0992  0.0023  0.0464  0.0193 </r>
       </set>
       <set comment="band 23">
        <r>  0.2449  0.0531  0.0531  0.0531  0.0018  0.0018  0.0000  0.0018  0.0000 </r>
        <r>  0.2449  0.0531  0.0531  0.0531  0.0018  0.0018  0.0000  0.0018  0.0000 </r>
       </set>
       <set comment="band 24">
        <r>  0.0491  0.0820  0.0820  0.0820  0.0283  0.0283  0.0000  0.0283  0.0000 </r>
        <r>  0.0491  0.0820  0.0820  0.0820  0.0283  0.0283  0.0000  0.0283  0.0000 </r>
       </set>
      </set>
      <set comment="kpoint 33">
       <set comment="band 1">
        <r>  0.0000  0.1308  0.1308  0.2344  0.0000  0.0000  0.0000  0.0000  0.0000 </r>
        <r>  0.0000  0.1308  0.1308  0.2344  0.0000  0.0000  0.0000  0.0000  0.0000 </r>
       </set>
       <set comment="band 2">
        <r>  0.0000  0.1039  0.1039  0.2884  0.0000  0.0001  0.0000  0.0000  0.0000 </r>
        <r>  0.0000  0.1039  0.1039  0.2884  0.0000  0.0001  0.0000  0.0000  0.0000 </r>
       </set>
       <set comment="band 3">
        <r>  0.0000  0.2486  0.2486  0.0000  0.0001  0.0000  0.0000  0.0001  0.0000 </r>
        <r>  0.0000  0.2486  0.2486  0.0000  0.0001  0.0000  0.0000  0.0001  0.0000 </r>
       </set>
       <set comment="band 4">
        <r>  0.0000  0.2489  0.2489  0.0000  0.0001  0.0000  0.0000  0.0001  0.0000 </r>
        <r>  0.0000  0.2489  0.2489  0.0000  0.0001  0.0000  0.0000  0.0001  0.0000 </r>
       </set>
       <set comment="band 5">
        <r>  0.0000  0.1178  0.1178  0.2630  0.0000  0.0001  0.0000  0.0000  0.0000 </r>
        <r>  0.0000  0.1178  0.1178  0.2630  0.0000  0.0001  0.0000  0.0000  0.0000 </r>
       </set>
       <set comment="band 6">
        <r>  0.0000  0.1450  0.1450  0.2088  0.0000  0.0000  0.0000  0.0000  0.0000 </r>
        <r>  0.0000  0.1450  0.1450  0.2088  0.0000  0.0000  0.0000  0.0000  0.0000 </r>
       </set>
       <set comment="band 7">
        <r>  0.0459  0.0252  0.0252  0.0112  0.1269  0.0025  0.0032  0.1269  0.0097 </r>
        <r>  0.0459  0.0252  0.0252  0.0112  0.1269  0.0025  0.0032  0.1269  0.0097 </r>
       </set>
       <set comment="band 8">
        <r>  0.0268  0.0108  0.0108  0.0011  0.1525  0.0490  0.0030  0.1525  0.0089 </r>
        <r>  0.0268  0.0108  0.0108  0.0011  0.1525  0.0490  0.0030  0.1525  0.0089 </r>
       </set>
       <set comment="band 9">
        <r>  0.0000  0.0194  0.0194  0.0000  0.1696  0.0000  0.0317  0.1696  0.0106 </r>
        <r>  0.0000  0.0194  0.0194  0.0000  0.1696  0.0000  0.0317  0.1696  0.0106 </r>
       </set>
       <set comment="band 10">
        <r>  0.0000  0.0280  0.0280  0.0000  0.1425  0.0000  0.0487  0.1425  0.0162 </r>
        <r>  0.0000  0.0280  0.0280  0.0000  0.1425  0.0000  0.0487  0.1425  0.0162 </r>
       </set>
       <set comment="band 11">
        <r>  0.0064  0.0025  0.0025  0.0523  0.0082  0.3293  0.0001  0.0082  0.0002 </r>
        <r>  0.0064  0.0025  0.0025  0.0523  0.0082  0.3293  0.0001  0.0082  0.0002 </r>
       </set>
       <set comment="band 12">
        <r>  0.0019  0.0092  0.0092  0.0634  0.0021  0.2760  0.0073  0.0021  0.0219 </r>
        <r>  0.0019  0.0092  0.0092  0.0634  0.0021  0.2760  0.0073  0.0021  0.0219 </r>
       </set>
       <set comment="band 13">
        <r>  0.0000  0.0003  0.0003  0.0000  0.0451  0.0000  0.2977  0.0451  0.0992 </r>
        <r>  0.0000  0.0003  0.0003  0.0000  0.0451  0.0000  0.2977  0.0451  0.0992 </r>
       </set>
       <set comment="band 14">
        <r>  0.0000  0.0001  0.0001  0.0000  0.0288  0.0000  0.3228  0.0288  0.1076 </r>
        <r>  0.0000  0.0001  0.0001  0.0000  0.0288  0.0000  0.3228  0.0288  0.1076 </r>
       </set>
       <set comment="band 15">
        <r>  0.0005  0.0001  0.0001  0.0006  0.0171  0.0290  0.1064  0.0171  0.3191 </r>
        <r>  0.0005  0.0001  0.0001  0.0006  0.0171  0.0290  0.1064  0.0171  0.3191 </r>
       </set>
       <set comment="band 16">
        <r>  0.0004  0.0000  0.0000  0.0001  0.0103  0.0000  0.1173  0.0103  0.3520 </r>
        <r>  0.0004  0.0000  0.0000  0.0001  0.0103  0.0000  0.1173  0.0103  0.3520 </r>
       </set>
       <set comment="band 17">
        <r>  0.0297  0.0216  0.0216  0.0426  0.0915  0.1260  0.0015  0.0915  0.0044 </r>
        <r>  0.0297  0.0216  0.0216  0.0426  0.0915  0.1260  0.0015  0.0915  0.0044 </r>
       </set>
       <set comment="band 18">
        <r>  0.0209  0.0248  0.0248  0.0799  0.0612  0.1103  0.0066  0.0612  0.0199 </r>
        <r>  0.0209  0.0248  0.0248  0.0799  0.0612  0.1103  0.0066  0.0612  0.0199 </r>
       </set>
       <set comment="band 19">
        <r>  0.0000  0.0895  0.0895  0.0000  0.0849  0.0000  0.0286  0.0849  0.0095 </r>
        <r>  0.0000  0.0895  0.0895  0.0000  0.0849  0.0000  0.0286  0.0849  0.0095 </r>
       </set>
       <set comment="band 20">
        <r>  0.2318  0.0017  0.0017  0.0348  0.0265  0.0509  0.0000  0.0265  0.0001 </r>
        <r>  0.2318  0.0017  0.0017  0.0348  0.0265  0.0509  0.0000  0.0265  0.0001 </r>
       </set>
       <set comment="band 21">
        <r>  0.0000  0.0892  0.0892  0.0000  0.0826  0.0000  0.0211  0.0826  0.0070 </r>
        <r>  0.0000  0.0892  0.0892  0.0000  0.0826  0.0000  0.0211  0.0826  0.0070 </r>
       </set>
       <set comment="band 22">
        <r>  0.1595  0.0006  0.0006  0.1012  0.0256  0.0525  0.0005  0.0256  0.0016 </r>
        <r>  0.1595  0.0006  0.0006  0.1012  0.0256  0.0525  0.0005  0.0256  0.0016 </r>
       </set>
       <set comment="band 23">
        <r>  0.1183  0.0857  0.0857  0.0169  0.0121  0.0430  0.0011  0.0121  0.0032 </r>
        <r>  0.1183  0.0857  0.0857  0.0169  0.0121  0.0430  0.0011  0.0121  0.0032 </r>
       </set>
       <set comment="band 24">
        <r>  0.0731  0.0849  0.0849  0.0488  0.0226  0.0369  0.0002  0.0226  0.0007 </r>
        <r>  0.0731  0.0849  0.0849  0.0488  0.0226  0.0369  0.0002  0.0226  0.0007 </r>
       </set>
      </set>
      <set comment="kpoint 34">
       <set comment="band 1">
        <r>  0.0000  0.2222  0.0517  0.2222  0.0000  0.0001  0.0000  0.0001  0.0000 </r>
        <r>  0.0000  0.2222  0.0517  0.2222  0.0000  0.0001  0.0000  0.0001  0.0000 </r>
       </set>
       <set comment="band 2">
        <r>  0.0000  0.2482  0.0000  0.2482  0.0000  0.0001  0.0000  0.0001  0.0000 </r>
        <r>  0.0000  0.2482  0.0000  0.2482  0.0000  0.0001  0.0000  0.0001  0.0000 </r>
       </set>
       <set comment="band 3">
        <r>  0.0000  0.0374  0.4225  0.0374  0.0001  0.0000  0.0000  0.0000  0.0000 </r>
        <r>  0.0000  0.0374  0.4225  0.0374  0.0001  0.0000  0.0000  0.0000  0.0000 </r>
       </set>
       <set comment="band 4">
        <r>  0.0000  0.0259  0.4458  0.0259  0.0001  0.0000  0.0000  0.0000  0.0000 </r>
        <r>  0.0000  0.0259  0.4458  0.0259  0.0001  0.0000  0.0000  0.0000  0.0000 </r>
       </set>
       <set comment="band 5">
        <r>  0.0000  0.2491  0.0000  0.2491  0.0000  0.0001  0.0000  0.0001  0.0000 </r>
        <r>  0.0000  0.2491  0.0000  0.2491  0.0000  0.0001  0.0000  0.0001  0.0000 </r>
       </set>
       <set comment="band 6">
        <r>  0.0000  0.2118  0.0749  0.2118  0.0000  0.0000  0.0000  0.0000  0.0000 </r>
        <r>  0.0000  0.2118  0.0749  0.2118  0.0000  0.0000  0.0000  0.0000  0.0000 </r>
       </set>
       <set comment="band 7">
        <r>  0.0191  0.0005  0.0314  0.0005  0.2658  0.0363  0.0218  0.0363  0.0000 </r>
        <r>  0.0191  0.0005  0.0314  0.0005  0.2658  0.0363  0.0218  0.0363  0.0000 </r>
       </set>
       <set comment="band 8">
        <r>  0.0234  0.0027  0.0441  0.0027  0.2944  0.0011  0.0273  0.0011  0.0000 </r>
        <r>  0.0234  0.0027  0.0441  0.0027  0.2944  0.0011  0.0273  0.0011  0.0000 </r>
       </set>
       <set comment="band 9">
        <r>  0.0000  0.0139  0.0000  0.0139  0.0000  0.2001  0.0000  0.2001  0.0032 </r>
        <r>  0.0000  0.0139  0.0000  0.0139  0.0000  0.2001  0.0000  0.2001  0.0032 </r>
       </set>
       <set comment="band 10">
        <r>  0.0001  0.0137  0.0131  0.0137  0.0407  0.1615  0.0168  0.1615  0.0000 </r>
        <r>  0.0001  0.0137  0.0131  0.0137  0.0407  0.1615  0.0168  0.1615  0.0000 </r>
       </set>
       <set comment="band 11">
        <r>  0.0048  0.0441  0.0000  0.0441  0.0144  0.1385  0.0039  0.1385  0.0000 </r>
        <r>  0.0048  0.0441  0.0000  0.0441  0.0144  0.1385  0.0039  0.1385  0.0000 </r>
       </set>
       <set comment="band 12">
        <r>  0.0000  0.0468  0.0000  0.0468  0.0000  0.1399  0.0000  0.1399  0.0134 </r>
        <r>  0.0000  0.0468  0.0000  0.0468  0.0000  0.1399  0.0000  0.1399  0.0134 </r>
       </set>
       <set comment="band 13">
        <r>  0.0003  0.0000  0.0002  0.0000  0.0502  0.0026  0.4336  0.0026  0.0000 </r>
        <r>  0.0003  0.0000  0.0002  0.0000  0.0502  0.0026  0.4336  0.0026  0.0000 </r>
       </set>
       <set comment="band 14">
        <r>  0.0002  0.0000  0.0001  0.0000  0.0427  0.0008  0.4451  0.0008  0.0000 </r>
        <r>  0.0002  0.0000  0.0001  0.0000  0.0427  0.0008  0.4451  0.0008  0.0000 </r>
       </set>
       <set comment="band 15">
        <r>  0.0000  0.0001  0.0000  0.0001  0.0000  0.0101  0.0000  0.0101  0.4705 </r>
        <r>  0.0000  0.0001  0.0000  0.0001  0.0000  0.0101  0.0000  0.0101  0.4705 </r>
       </set>
       <set comment="band 16">
        <r>  0.0000  0.0000  0.0000  0.0000  0.0000  0.0022  0.0000  0.0022  0.4866 </r>
        <r>  0.0000  0.0000  0.0000  0.0000  0.0000  0.0022  0.0000  0.0022  0.4866 </r>
       </set>
       <set comment="band 17">
        <r>  0.0247  0.0518  0.0134  0.0518  0.0493  0.1095  0.0012  0.1095  0.0000 </r>
        <r>  0.0247  0.0518  0.0134  0.0518  0.0493  0.1095  0.0012  0.1095  0.0000 </r>
       </set>
       <set comment="band 18">
        <r>  0.0000  0.0794  0.0000  0.0794  0.0000  0.1149  0.0000  0.1149  0.0083 </r>
        <r>  0.0000  0.0794  0.0000  0.0794  0.0000  0.1149  0.0000  0.1149  0.0083 </r>
       </set>
       <set comment="band 19">
        <r>  0.0989  0.0059  0.0801  0.0059  0.1796  0.0017  0.0206  0.0017  0.0000 </r>
        <r>  0.0989  0.0059  0.0801  0.0059  0.1796  0.0017  0.0206  0.0017  0.0000 </r>
       </set>
       <set comment="band 20">
        <r>  0.0890  0.0268  0.0583  0.0268  0.1385  0.0142  0.0157  0.0142  0.0000 </r>
        <r>  0.0890  0.0268  0.0583  0.0268  0.1385  0.0142  0.0157  0.0142  0.0000 </r>
       </set>
       <set comment="band 21">
        <r>  0.1380  0.0378  0.0330  0.0378  0.0002  0.0588  0.0033  0.0588  0.0000 </r>
        <r>  0.1380  0.0378  0.0330  0.0378  0.0002  0.0588  0.0033  0.0588  0.0000 </r>
       </set>
       <set comment="band 22">
        <r>  0.0000  0.0873  0.0000  0.0873  0.0000  0.0867  0.0000  0.0867  0.0026 </r>
        <r>  0.0000  0.0873  0.0000  0.0873  0.0000  0.0867  0.0000  0.0867  0.0026 </r>
       </set>
       <set comment="band 23">
        <r>  0.2257  0.0023  0.1334  0.0023  0.0181  0.0013  0.0047  0.0013  0.0000 </r>
        <r>  0.2257  0.0023  0.1334  0.0023  0.0181  0.0013  0.0047  0.0013  0.0000 </r>
       </set>
       <set comment="band 24">
        <r>  0.1097  0.0461  0.0933  0.0461  0.0206  0.0284  0.0014  0.0284  0.0000 </r>
        <r>  0.1097  0.0461  0.0933  0.0461  0.0206  0.0284  0.0014  0.0284  0.0000 </r>
       </set>
      </set>
      <set comment="kpoint 35">
       <set comment="band 1">
        <r>  0.0000  0.1655  0.1655  0.1655  0.0000  0.0000  0.0000  0.0000  0.0000 </r>
        <r>  0.0000  0.1655  0.1655  0.1655  0.0000  0.0000  0.0000  0.0000  0.0000 </r>
       </set>
       <set comment="band 2">
        <r>  0.0000  0.0430  0.3185  0.1355  0.0001  0.0000  0.0000  0.0000  0.0000 </r>
        <r>  0.0000  0.0430  0.3185  0.1355  0.0001  0.0000  0.0000  0.0000  0.0000 </r>
       </set>
       <set comment="band 3">
        <r>  0.0000  0.2883  0.0128  0.1958  0.0000  0.0001  0.0000  0.0001  0.0000 </r>
        <r>  0.0000  0.2883  0.0128  0.1958  0.0000  0.0001  0.0000  0.0001  0.0000 </r>
       </set>
       <set comment="band 4">
        <r>  0.0000  0.0829  0.2406  0.1741  0.0001  0.0001  0.0000  0.0000  0.0000 </r>
        <r>  0.0000  0.0829  0.2406  0.1741  0.0001  0.0001  0.0000  0.0000  0.0000 </r>
       </set>
       <set comment="band 5">
        <r>  0.0000  0.2488  0.0912  0.1577  0.0000  0.0000  0.0000  0.0001  0.0000 </r>
        <r>  0.0000  0.2488  0.0912  0.1577  0.0000  0.0000  0.0000  0.0001  0.0000 </r>
       </set>
       <set comment="band 6">
        <r>  0.0000  0.1660  0.1660  0.1660  0.0000  0.0000  0.0000  0.0000  0.0000 </r>
        <r>  0.0000  0.1660  0.1660  0.1660  0.0000  0.0000  0.0000  0.0000  0.0000 </r>
       </set>
       <set comment="band 7">
        <r>  0.0055  0.0117  0.0117  0.0117  0.1269  0.1269  0.0000  0.1269  0.0000 </r>
        <r>  0.0055  0.0117  0.0117  0.0117  0.1269  0.1269  0.0000  0.1269  0.0000 </r>
       </set>
       <set comment="band 8">
        <r>  0.0000  0.0209  0.0244  0.0002  0.1971  0.0015  0.0042  0.1685  0.0010 </r>
        <r>  0.0000  0.0209  0.0244  0.0002  0.1971  0.0015  0.0042  0.1685  0.0010 </r>
       </set>
       <set comment="band 9">
        <r>  0.0000  0.0095  0.0059  0.0302  0.0476  0.2433  0.0010  0.0762  0.0042 </r>
        <r>  0.0000  0.0095  0.0059  0.0302  0.0476  0.2433  0.0010  0.0762  0.0042 </r>
       </set>
       <set comment="band 10">
        <r>  0.0089  0.0261  0.0261  0.0261  0.1012  0.1012  0.0000  0.1012  0.0000 </r>
        <r>  0.0089  0.0261  0.0261  0.0261  0.1012  0.1012  0.0000  0.1012  0.0000 </r>
       </set>
       <set comment="band 11">
        <r>  0.0000  0.0001  0.0346  0.0328  0.1680  0.1593  0.0063  0.0002  0.0019 </r>
        <r>  0.0000  0.0001  0.0346  0.0328  0.1680  0.1593  0.0063  0.0002  0.0019 </r>
       </set>
       <set comment="band 12">
        <r>  0.0000  0.0449  0.0104  0.0122  0.0504  0.0591  0.0019  0.2181  0.0063 </r>
        <r>  0.0000  0.0449  0.0104  0.0122  0.0504  0.0591  0.0019  0.2181  0.0063 </r>
       </set>
       <set comment="band 13">
        <r>  0.0000  0.0000  0.0000  0.0000  0.0006  0.0063  0.0355  0.0051  0.4437 </r>
        <r>  0.0000  0.0000  0.0000  0.0000  0.0006  0.0063  0.0355  0.0051  0.4437 </r>
       </set>
       <set comment="band 14">
        <r>  0.0000  0.0000  0.0000  0.0000  0.0074  0.0017  0.4437  0.0029  0.0355 </r>
        <r>  0.0000  0.0000  0.0000  0.0000  0.0074  0.0017  0.4437  0.0029  0.0355 </r>
       </set>
       <set comment="band 15">
        <r>  0.0000  0.0000  0.0000  0.0000  0.0042  0.0015  0.4146  0.0017  0.0693 </r>
        <r>  0.0000  0.0000  0.0000  0.0000  0.0042  0.0015  0.4146  0.0017  0.0693 </r>
       </set>
       <set comment="band 16">
        <r>  0.0000  0.0000  0.0000  0.0000  0.0007  0.0034  0.0693  0.0032  0.4146 </r>
        <r>  0.0000  0.0000  0.0000  0.0000  0.0007  0.0034  0.0693  0.0032  0.4146 </r>
       </set>
       <set comment="band 17">
        <r>  0.0277  0.0450  0.0450  0.0450  0.0781  0.0781  0.0000  0.0781  0.0000 </r>
        <r>  0.0277  0.0450  0.0450  0.0450  0.0781  0.0781  0.0000  0.0781  0.0000 </r>
       </set>
       <set comment="band 18">
        <r>  0.0000  0.0068  0.1057  0.0592  0.1283  0.0718  0.0048  0.0083  0.0004 </r>
        <r>  0.0000  0.0068  0.1057  0.0592  0.1283  0.0718  0.0048  0.0083  0.0004 </r>
       </set>
       <set comment="band 19">
        <r>  0.0000  0.1077  0.0088  0.0553  0.0106  0.0671  0.0004  0.1307  0.0048 </r>
        <r>  0.0000  0.1077  0.0088  0.0553  0.0106  0.0671  0.0004  0.1307  0.0048 </r>
       </set>
       <set comment="band 20">
        <r>  0.1929  0.0188  0.0188  0.0188  0.0421  0.0421  0.0000  0.0421  0.0000 </r>
        <r>  0.1929  0.0188  0.0188  0.0188  0.0421  0.0421  0.0000  0.0421  0.0000 </r>
       </set>
       <set comment="band 21">
        <r>  0.0000  0.0766  0.0078  0.0924  0.0084  0.1000  0.0002  0.0828  0.0033 </r>
        <r>  0.0000  0.0766  0.0078  0.0924  0.0084  0.1000  0.0002  0.0828  0.0033 </r>
       </set>
       <set comment="band 22">
        <r>  0.0000  0.0413  0.1100  0.0254  0.1190  0.0275  0.0033  0.0446  0.0002 </r>
        <r>  0.0000  0.0413  0.1100  0.0254  0.1190  0.0275  0.0033  0.0446  0.0002 </r>
       </set>
       <set comment="band 23">
        <r>  0.3401  0.0133  0.0133  0.0133  0.0007  0.0007  0.0000  0.0007  0.0000 </r>
        <r>  0.3401  0.0133  0.0133  0.0133  0.0007  0.0007  0.0000  0.0007  0.0000 </r>
       </set>
       <set comment="band 24">
        <r>  0.1777  0.0432  0.0432  0.0432  0.0226  0.0226  0.0000  0.0226  0.0000 </r>
        <r>  0.1777  0.0432  0.0432  0.0432  0.0226  0.0226  0.0000  0.0226  0.0000 </r>
       </set>
      </set>
     </set>
    </set>
   </array>
  </projected>
 </calculation>
 <structure name="finalpos" >
  <crystal>
   <varray name="basis" >
    <v>       2.84005200       0.00000000       0.00000000 </v>
    <v>       0.00000000       2.84005200       0.00000000 </v>
    <v>       0.00000000       0.00000000       2.84005200 </v>
   </varray>
   <i name="volume">     22.90756226 </i>
   <varray name="rec_basis" >
    <v>       0.35210623       0.00000000       0.00000000 </v>
    <v>       0.00000000       0.35210623       0.00000000 </v>
    <v>       0.00000000       0.00000000       0.35210623 </v>
   </varray>
  </crystal>
  <varray name="positions" >
   <v>       0.00000000       0.00000000       0.00000000 </v>
   <v>       0.50000000       0.50000000       0.50000000 </v>
  </varray>
 </structure>
</modeling>
