<?xml version="1.0" encoding="ISO-8859-1"?>
<modeling>
 <generator>
  <i name="program" type="string">vasp </i>
  <i name="version" type="string">5.4.4.18Apr17-6-g9f103f2a35  </i>
  <i name="subversion" type="string">(build Apr 28 2018 00:24:27) complex            parallel </i>
  <i name="platform" type="string">LinuxIFC </i>
  <i name="date" type="string">2021 09 07 </i>
  <i name="time" type="string">01:11:26 </i>
 </generator>
 <incar>
  <i type="string" name="PREC">accurate</i>
  <i type="string" name="ALGO"> Normal</i>
  <i type="int" name="ISPIN">     2</i>
  <i type="int" name="NELM">   100</i>
  <i type="int" name="IBRION">    -1</i>
  <i name="EDIFF">      0.00000010</i>
  <i type="int" name="NSW">     0</i>
  <i type="int" name="ISIF">     3</i>
  <i name="ENCUT">    480.00000000</i>
  <v name="MAGMOM">      5.00000000      5.00000000</v>
  <i type="string" name="LREAL"> Auto</i>
  <i type="int" name="ISMEAR">    -5</i>
  <i name="SIGMA">      0.05000000</i>
  <i type="logical" name="LWAVE"> F  </i>
  <i type="logical" name="LCHARG"> F  </i>
  <i type="logical" name="LVHAR"> F  </i>
  <i type="int" name="LORBIT">    11</i>
  <i type="logical" name="LASPH"> F  </i>
  <i type="logical" name="LAECHG"> F  </i>
  <v type="int" name="KPOINT_BSE">    -1     0     0     0</v>
  <i type="int" name="NELM">   100</i>
  <i type="logical" name="LASPH"> F  </i>
  <i type="int" name="LMAXTAU">     0</i>
 </incar>
 <structure name="primitive_cell" >
  <crystal>
   <varray name="basis" >
    <v>       1.42002600       1.42002600       1.42002600 </v>
    <v>       1.42002600      -1.42002600      -1.42002600 </v>
    <v>      -1.42002600       1.42002600      -1.42002600 </v>
   </varray>
   <i name="volume">     11.45378113 </i>
   <varray name="rec_basis" >
    <v>       0.35210623       0.35210623       0.00000000 </v>
    <v>       0.35210623       0.00000000      -0.35210623 </v>
    <v>       0.00000000       0.35210623      -0.35210623 </v>
   </varray>
  </crystal>
  <varray name="positions" >
   <v>       0.00000000       0.00000000       0.00000000 </v>
  </varray>
 </structure>
 <varray name="primitive_index" >
  <v type="int" >        1 </v>
 </varray>
 <kpoints>
  <generation param="Monkhorst-Pack">
   <v type="int" name="divisions">      10       10       10 </v>
   <v name="usershift">      0.00000000       0.00000000       0.00000000 </v>
   <v name="genvec1">      0.10000000       0.00000000       0.00000000 </v>
   <v name="genvec2">      0.00000000       0.10000000       0.00000000 </v>
   <v name="genvec3">      0.00000000       0.00000000       0.10000000 </v>
   <v name="shift">      0.50000000       0.50000000       0.50000000 </v>
  </generation>
  <varray name="kpointlist" >
   <v>       0.05000000       0.05000000       0.05000000 </v>
   <v>       0.15000000       0.05000000       0.05000000 </v>
   <v>       0.25000000       0.05000000       0.05000000 </v>
   <v>       0.35000000       0.05000000       0.05000000 </v>
   <v>       0.45000000       0.05000000       0.05000000 </v>
   <v>       0.15000000       0.15000000       0.05000000 </v>
   <v>       0.25000000       0.15000000       0.05000000 </v>
   <v>       0.35000000       0.15000000       0.05000000 </v>
   <v>       0.45000000       0.15000000       0.05000000 </v>
   <v>       0.25000000       0.25000000       0.05000000 </v>
   <v>       0.35000000       0.25000000       0.05000000 </v>
   <v>       0.45000000       0.25000000       0.05000000 </v>
   <v>       0.35000000       0.35000000       0.05000000 </v>
   <v>       0.45000000       0.35000000       0.05000000 </v>
   <v>       0.45000000       0.45000000       0.05000000 </v>
   <v>       0.15000000       0.15000000       0.15000000 </v>
   <v>       0.25000000       0.15000000       0.15000000 </v>
   <v>       0.35000000       0.15000000       0.15000000 </v>
   <v>       0.45000000       0.15000000       0.15000000 </v>
   <v>       0.25000000       0.25000000       0.15000000 </v>
   <v>       0.35000000       0.25000000       0.15000000 </v>
   <v>       0.45000000       0.25000000       0.15000000 </v>
   <v>       0.35000000       0.35000000       0.15000000 </v>
   <v>       0.45000000       0.35000000       0.15000000 </v>
   <v>       0.45000000       0.45000000       0.15000000 </v>
   <v>       0.25000000       0.25000000       0.25000000 </v>
   <v>       0.35000000       0.25000000       0.25000000 </v>
   <v>       0.45000000       0.25000000       0.25000000 </v>
   <v>       0.35000000       0.35000000       0.25000000 </v>
   <v>       0.45000000       0.35000000       0.25000000 </v>
   <v>       0.45000000       0.45000000       0.25000000 </v>
   <v>       0.35000000       0.35000000       0.35000000 </v>
   <v>       0.45000000       0.35000000       0.35000000 </v>
   <v>       0.45000000       0.45000000       0.35000000 </v>
   <v>       0.45000000       0.45000000       0.45000000 </v>
  </varray>
  <varray name="weights" >
   <v>       0.00800000 </v>
   <v>       0.02400000 </v>
   <v>       0.02400000 </v>
   <v>       0.02400000 </v>
   <v>       0.02400000 </v>
   <v>       0.02400000 </v>
   <v>       0.04800000 </v>
   <v>       0.04800000 </v>
   <v>       0.04800000 </v>
   <v>       0.02400000 </v>
   <v>       0.04800000 </v>
   <v>       0.04800000 </v>
   <v>       0.02400000 </v>
   <v>       0.04800000 </v>
   <v>       0.02400000 </v>
   <v>       0.00800000 </v>
   <v>       0.02400000 </v>
   <v>       0.02400000 </v>
   <v>       0.02400000 </v>
   <v>       0.02400000 </v>
   <v>       0.04800000 </v>
   <v>       0.04800000 </v>
   <v>       0.02400000 </v>
   <v>       0.04800000 </v>
   <v>       0.02400000 </v>
   <v>       0.00800000 </v>
   <v>       0.02400000 </v>
   <v>       0.02400000 </v>
   <v>       0.02400000 </v>
   <v>       0.04800000 </v>
   <v>       0.02400000 </v>
   <v>       0.00800000 </v>
   <v>       0.02400000 </v>
   <v>       0.02400000 </v>
   <v>       0.00800000 </v>
  </varray>
  <varray name="tetrahedronlist"  type="int" >
   <v type="int" >       24        1        2        2        6 </v>
   <v type="int" >       18        2        2        6        6 </v>
   <v type="int" >       12        2        6        6       16 </v>
   <v type="int" >       12        2        3        6        7 </v>
   <v type="int" >       24        2        6        6        7 </v>
   <v type="int" >       12        6        6        7       16 </v>
   <v type="int" >       24        3        6        7        7 </v>
   <v type="int" >       24        6        7        7       17 </v>
   <v type="int" >       24        6        7       16       17 </v>
   <v type="int" >       12        3        4        7        8 </v>
   <v type="int" >       24        3        7        7        8 </v>
   <v type="int" >       12        7        7        8       17 </v>
   <v type="int" >       24        4        7        8        8 </v>
   <v type="int" >       12        7        8        8       18 </v>
   <v type="int" >       12        7        8       17       18 </v>
   <v type="int" >       12        4        5        8        9 </v>
   <v type="int" >       24        4        8        8        9 </v>
   <v type="int" >       12        8        8        9       18 </v>
   <v type="int" >       24        5        8        9        9 </v>
   <v type="int" >       12        8        9        9       19 </v>
   <v type="int" >       12        8        9       18       19 </v>
   <v type="int" >       30        5        5        9        9 </v>
   <v type="int" >       36        5        9        9        9 </v>
   <v type="int" >       12        9        9        9       19 </v>
   <v type="int" >        6        9        9       19       19 </v>
   <v type="int" >       18        1        1        2        2 </v>
   <v type="int" >       24        1        2        2        2 </v>
   <v type="int" >       12        2        2        2        6 </v>
   <v type="int" >       12        6        7       10       16 </v>
   <v type="int" >       12        7       10       16       17 </v>
   <v type="int" >       12       10       16       17       20 </v>
   <v type="int" >       12        7        8       11       17 </v>
   <v type="int" >       12        7       10       11       17 </v>
   <v type="int" >       12       10       11       17       20 </v>
   <v type="int" >       12        8       11       17       18 </v>
   <v type="int" >       12       11       17       18       21 </v>
   <v type="int" >       12       11       17       20       21 </v>
   <v type="int" >       12        8        9       12       18 </v>
   <v type="int" >       12        8       11       12       18 </v>
   <v type="int" >       12       11       12       18       21 </v>
   <v type="int" >       12        9       12       18       19 </v>
   <v type="int" >       12       12       18       19       22 </v>
   <v type="int" >       12       12       18       21       22 </v>
   <v type="int" >       12        9        9       12       19 </v>
   <v type="int" >       12        9       12       12       19 </v>
   <v type="int" >       12       12       12       19       22 </v>
   <v type="int" >       12        9       12       19       19 </v>
   <v type="int" >       12       12       19       19       22 </v>
   <v type="int" >       12       12       19       22       22 </v>
   <v type="int" >       12        8        9       11       19 </v>
   <v type="int" >       12        9       11       12       19 </v>
   <v type="int" >       12       11       12       19       22 </v>
   <v type="int" >       12        8       11       18       19 </v>
   <v type="int" >       12       11       18       19       21 </v>
   <v type="int" >       12       11       19       21       22 </v>
   <v type="int" >       12        7        8       10       18 </v>
   <v type="int" >       12        8       10       11       18 </v>
   <v type="int" >       12       10       11       18       21 </v>
   <v type="int" >       12        7       10       17       18 </v>
   <v type="int" >       12       10       17       18       20 </v>
   <v type="int" >       12       10       18       20       21 </v>
   <v type="int" >       12        7        7       10       17 </v>
   <v type="int" >       12        7       10       17       20 </v>
   <v type="int" >       12        7       16       17       17 </v>
   <v type="int" >       12        7       17       17       20 </v>
   <v type="int" >       12        2        3        6       16 </v>
   <v type="int" >       12        3        6        7       16 </v>
   <v type="int" >       12        3        7       16       17 </v>
   <v type="int" >       12        2        2        3        6 </v>
   <v type="int" >       12        2        3        3        6 </v>
   <v type="int" >       12        3        3        6        7 </v>
   <v type="int" >       12        2        3        6        6 </v>
   <v type="int" >       12        3        6        6        7 </v>
   <v type="int" >       12       10       11       13       20 </v>
   <v type="int" >       12       11       13       20       21 </v>
   <v type="int" >       12       13       20       21       23 </v>
   <v type="int" >       12       11       12       14       21 </v>
   <v type="int" >       12       11       13       14       21 </v>
   <v type="int" >       12       13       14       21       23 </v>
   <v type="int" >       12       12       14       21       22 </v>
   <v type="int" >       12       14       21       22       24 </v>
   <v type="int" >       12       14       21       23       24 </v>
   <v type="int" >       12       12       12       14       22 </v>
   <v type="int" >       12       12       14       14       22 </v>
   <v type="int" >       12       14       14       22       24 </v>
   <v type="int" >       12       12       14       22       22 </v>
   <v type="int" >       12       14       22       22       24 </v>
   <v type="int" >       12       14       22       24       24 </v>
   <v type="int" >       12       11       12       13       22 </v>
   <v type="int" >       12       12       13       14       22 </v>
   <v type="int" >       12       13       14       22       24 </v>
   <v type="int" >       12       11       13       21       22 </v>
   <v type="int" >       12       13       21       22       23 </v>
   <v type="int" >       12       13       22       23       24 </v>
   <v type="int" >       12       10       11       11       21 </v>
   <v type="int" >       12       11       11       13       21 </v>
   <v type="int" >       12       11       13       21       23 </v>
   <v type="int" >       12       10       11       20       21 </v>
   <v type="int" >       12       11       20       21       21 </v>
   <v type="int" >       12       11       21       21       23 </v>
   <v type="int" >       12        7        8       10       20 </v>
   <v type="int" >       12        8       10       11       20 </v>
   <v type="int" >       12        8       11       20       21 </v>
   <v type="int" >       12        7        8       17       20 </v>
   <v type="int" >       12        8       17       18       20 </v>
   <v type="int" >       12        8       18       20       21 </v>
   <v type="int" >       12        3        4        7       17 </v>
   <v type="int" >       12        4        7        8       17 </v>
   <v type="int" >       12        4        8       17       18 </v>
   <v type="int" >       12        3        3        4        7 </v>
   <v type="int" >       12        3        4        4        7 </v>
   <v type="int" >       12        4        4        7        8 </v>
   <v type="int" >       12        3        4        7        7 </v>
   <v type="int" >       12        4        7        7        8 </v>
   <v type="int" >       12       13       14       15       23 </v>
   <v type="int" >       12       14       15       23       24 </v>
   <v type="int" >       12       15       23       24       25 </v>
   <v type="int" >       24       14       14       15       24 </v>
   <v type="int" >       12       14       15       15       24 </v>
   <v type="int" >       12       15       15       24       25 </v>
   <v type="int" >       12       14       15       24       24 </v>
   <v type="int" >       12       15       24       24       25 </v>
   <v type="int" >       12       15       24       25       25 </v>
   <v type="int" >       12       13       14       14       24 </v>
   <v type="int" >       12       14       15       24       25 </v>
   <v type="int" >       12       13       14       23       24 </v>
   <v type="int" >       12       14       23       24       24 </v>
   <v type="int" >       24       14       24       24       25 </v>
   <v type="int" >       12       11       12       13       23 </v>
   <v type="int" >       12       12       13       14       23 </v>
   <v type="int" >       12       12       14       23       24 </v>
   <v type="int" >       12       11       12       21       23 </v>
   <v type="int" >       12       12       21       22       23 </v>
   <v type="int" >       12       12       22       23       24 </v>
   <v type="int" >       12        8        9       11       21 </v>
   <v type="int" >       12        9       11       12       21 </v>
   <v type="int" >       12        9       12       21       22 </v>
   <v type="int" >       12        8        9       18       21 </v>
   <v type="int" >       12        9       18       19       21 </v>
   <v type="int" >       12        9       19       21       22 </v>
   <v type="int" >       12        4        5        8       18 </v>
   <v type="int" >       12        5        8        9       18 </v>
   <v type="int" >       12        5        9       18       19 </v>
   <v type="int" >       12        4        4        5        8 </v>
   <v type="int" >       12        4        5        5        8 </v>
   <v type="int" >       12        5        5        8        9 </v>
   <v type="int" >       12        4        5        8        8 </v>
   <v type="int" >       12        5        8        8        9 </v>
   <v type="int" >       12       15       15       15       25 </v>
   <v type="int" >       12       15       15       25       25 </v>
   <v type="int" >       12       15       25       25       25 </v>
   <v type="int" >       12       14       14       15       25 </v>
   <v type="int" >       12       14       15       15       25 </v>
   <v type="int" >       12       14       15       25       25 </v>
   <v type="int" >       12       14       14       24       25 </v>
   <v type="int" >       12       14       24       25       25 </v>
   <v type="int" >       12       12       12       14       24 </v>
   <v type="int" >       12       12       14       14       24 </v>
   <v type="int" >       12       12       14       24       24 </v>
   <v type="int" >       12       12       12       22       24 </v>
   <v type="int" >       12       12       22       22       24 </v>
   <v type="int" >       12       12       22       24       24 </v>
   <v type="int" >       12        9        9       12       22 </v>
   <v type="int" >       12        9       12       12       22 </v>
   <v type="int" >       12        9       12       22       22 </v>
   <v type="int" >       12        9        9       19       22 </v>
   <v type="int" >       12        9       19       19       22 </v>
   <v type="int" >       12        9       19       22       22 </v>
   <v type="int" >       12        5        5        9       19 </v>
   <v type="int" >       12        5        9        9       19 </v>
   <v type="int" >       12        5        9       19       19 </v>
   <v type="int" >       24        5        5        5        9 </v>
   <v type="int" >       12       13       14       15       25 </v>
   <v type="int" >       12       13       14       24       25 </v>
   <v type="int" >       12       13       23       24       25 </v>
   <v type="int" >       12       11       12       14       24 </v>
   <v type="int" >       12       11       13       14       24 </v>
   <v type="int" >       12       11       13       23       24 </v>
   <v type="int" >       12       11       12       22       24 </v>
   <v type="int" >       12       11       21       22       24 </v>
   <v type="int" >       12       11       21       23       24 </v>
   <v type="int" >       12        8        9       12       22 </v>
   <v type="int" >       12        8       11       12       22 </v>
   <v type="int" >       12        8       11       21       22 </v>
   <v type="int" >       12        8        9       19       22 </v>
   <v type="int" >       12        8       18       19       22 </v>
   <v type="int" >       12        8       18       21       22 </v>
   <v type="int" >       12        4        5        9       19 </v>
   <v type="int" >       12        4        8        9       19 </v>
   <v type="int" >       12        4        8       18       19 </v>
   <v type="int" >       12        4        5        5        9 </v>
   <v type="int" >       12        4        4        5        9 </v>
   <v type="int" >       12        4        4        8        9 </v>
   <v type="int" >       12        4        5        9        9 </v>
   <v type="int" >       12        4        8        9        9 </v>
   <v type="int" >       12       10       11       13       23 </v>
   <v type="int" >       12       10       11       21       23 </v>
   <v type="int" >       12       10       20       21       23 </v>
   <v type="int" >       12        7        8       11       21 </v>
   <v type="int" >       12        7       10       11       21 </v>
   <v type="int" >       12        7       10       20       21 </v>
   <v type="int" >       12        7        8       18       21 </v>
   <v type="int" >       12        7       17       18       21 </v>
   <v type="int" >       12        7       17       20       21 </v>
   <v type="int" >       12        3        4        8       18 </v>
   <v type="int" >       12        3        7        8       18 </v>
   <v type="int" >       12        3        7       17       18 </v>
   <v type="int" >       12        3        4        4        8 </v>
   <v type="int" >       12        3        3        4        8 </v>
   <v type="int" >       12        3        3        7        8 </v>
   <v type="int" >       12        3        4        8        8 </v>
   <v type="int" >       12        3        7        8        8 </v>
   <v type="int" >       12        6        7       10       20 </v>
   <v type="int" >       12        6        7       17       20 </v>
   <v type="int" >       12        6       16       17       20 </v>
   <v type="int" >       12        2        3        7       17 </v>
   <v type="int" >       12        2        6        7       17 </v>
   <v type="int" >       12        2        6       16       17 </v>
   <v type="int" >       12        2        3        3        7 </v>
   <v type="int" >       12        2        2        3        7 </v>
   <v type="int" >       12        2        2        6        7 </v>
   <v type="int" >       12        2        3        7        7 </v>
   <v type="int" >       12        2        6        7        7 </v>
   <v type="int" >       12        1        2        6       16 </v>
   <v type="int" >       12        1        1        2        6 </v>
   <v type="int" >       12        1        2        6        6 </v>
   <v type="int" >       12        1        1        1        2 </v>
   <v type="int" >       12       16       17       17       20 </v>
   <v type="int" >       12       17       17       20       20 </v>
   <v type="int" >       12       17       20       20       26 </v>
   <v type="int" >       12       17       18       20       21 </v>
   <v type="int" >       12       17       20       20       21 </v>
   <v type="int" >       12       20       20       21       26 </v>
   <v type="int" >       12       18       20       21       21 </v>
   <v type="int" >       24       20       21       21       27 </v>
   <v type="int" >       24       20       21       26       27 </v>
   <v type="int" >       12       18       19       21       22 </v>
   <v type="int" >       12       18       21       21       22 </v>
   <v type="int" >       12       21       21       22       27 </v>
   <v type="int" >       12       19       21       22       22 </v>
   <v type="int" >       12       21       22       22       28 </v>
   <v type="int" >       12       21       22       27       28 </v>
   <v type="int" >        6       19       19       22       22 </v>
   <v type="int" >       12       19       22       22       22 </v>
   <v type="int" >       12       22       22       22       28 </v>
   <v type="int" >        6       22       22       28       28 </v>
   <v type="int" >        6        6        6        7        7 </v>
   <v type="int" >       12        6        7        7        7 </v>
   <v type="int" >       12        7        7        7       10 </v>
   <v type="int" >        6        7        7       10       10 </v>
   <v type="int" >       12       20       21       23       26 </v>
   <v type="int" >       12       21       23       26       27 </v>
   <v type="int" >       12       23       26       27       29 </v>
   <v type="int" >       12       21       22       24       27 </v>
   <v type="int" >       12       21       23       24       27 </v>
   <v type="int" >       12       23       24       27       29 </v>
   <v type="int" >       12       22       24       27       28 </v>
   <v type="int" >       12       24       27       28       30 </v>
   <v type="int" >       12       24       27       29       30 </v>
   <v type="int" >       12       22       22       24       28 </v>
   <v type="int" >       12       22       24       24       28 </v>
   <v type="int" >       12       24       24       28       30 </v>
   <v type="int" >       12       22       24       28       28 </v>
   <v type="int" >       12       24       28       28       30 </v>
   <v type="int" >       12       24       28       30       30 </v>
   <v type="int" >       12       21       22       23       28 </v>
   <v type="int" >       12       22       23       24       28 </v>
   <v type="int" >       12       23       24       28       30 </v>
   <v type="int" >       12       21       23       27       28 </v>
   <v type="int" >       12       23       27       28       29 </v>
   <v type="int" >       12       23       28       29       30 </v>
   <v type="int" >       12       21       21       23       27 </v>
   <v type="int" >       12       21       23       27       29 </v>
   <v type="int" >       12       21       26       27       27 </v>
   <v type="int" >       12       21       27       27       29 </v>
   <v type="int" >       12       17       18       20       26 </v>
   <v type="int" >       12       18       20       21       26 </v>
   <v type="int" >       12       18       21       26       27 </v>
   <v type="int" >       12        7        7        8       10 </v>
   <v type="int" >       12        7        8        8       10 </v>
   <v type="int" >       12        8        8       10       11 </v>
   <v type="int" >       12        7        8       10       10 </v>
   <v type="int" >       12        8       10       10       11 </v>
   <v type="int" >       12        8       10       11       11 </v>
   <v type="int" >       12       23       24       25       29 </v>
   <v type="int" >       12       24       25       29       30 </v>
   <v type="int" >       12       25       29       30       31 </v>
   <v type="int" >       24       24       24       25       30 </v>
   <v type="int" >       12       24       25       25       30 </v>
   <v type="int" >       12       25       25       30       31 </v>
   <v type="int" >       12       24       25       30       30 </v>
   <v type="int" >       12       25       30       30       31 </v>
   <v type="int" >       12       25       30       31       31 </v>
   <v type="int" >       12       23       24       24       30 </v>
   <v type="int" >       12       24       25       30       31 </v>
   <v type="int" >       12       23       24       29       30 </v>
   <v type="int" >       12       24       29       30       30 </v>
   <v type="int" >       24       24       30       30       31 </v>
   <v type="int" >       12       21       22       23       29 </v>
   <v type="int" >       12       22       23       24       29 </v>
   <v type="int" >       12       22       24       29       30 </v>
   <v type="int" >       12       21       22       27       29 </v>
   <v type="int" >       12       22       27       28       29 </v>
   <v type="int" >       12       22       28       29       30 </v>
   <v type="int" >       12       18       19       21       27 </v>
   <v type="int" >       12       19       21       22       27 </v>
   <v type="int" >       12       19       22       27       28 </v>
   <v type="int" >       12        8        8        9       11 </v>
   <v type="int" >       12        8        9        9       11 </v>
   <v type="int" >       12        9        9       11       12 </v>
   <v type="int" >       12        8        9       11       11 </v>
   <v type="int" >       12        9       11       11       12 </v>
   <v type="int" >       12        9       11       12       12 </v>
   <v type="int" >       12       25       25       25       31 </v>
   <v type="int" >       12       25       25       31       31 </v>
   <v type="int" >       12       25       31       31       31 </v>
   <v type="int" >       12       24       24       25       31 </v>
   <v type="int" >       12       24       25       25       31 </v>
   <v type="int" >       12       24       25       31       31 </v>
   <v type="int" >       12       24       24       30       31 </v>
   <v type="int" >       12       24       30       31       31 </v>
   <v type="int" >       12       22       22       24       30 </v>
   <v type="int" >       12       22       24       24       30 </v>
   <v type="int" >       12       22       24       30       30 </v>
   <v type="int" >       12       22       22       28       30 </v>
   <v type="int" >       12       22       28       28       30 </v>
   <v type="int" >       12       22       28       30       30 </v>
   <v type="int" >       12       19       19       22       28 </v>
   <v type="int" >       12       19       22       22       28 </v>
   <v type="int" >       12       19       22       28       28 </v>
   <v type="int" >       24        9        9        9       12 </v>
   <v type="int" >       24        9        9       12       12 </v>
   <v type="int" >       24        9       12       12       12 </v>
   <v type="int" >       12       23       24       25       31 </v>
   <v type="int" >       12       23       24       30       31 </v>
   <v type="int" >       12       23       29       30       31 </v>
   <v type="int" >       12       21       22       24       30 </v>
   <v type="int" >       12       21       23       24       30 </v>
   <v type="int" >       12       21       23       29       30 </v>
   <v type="int" >       12       21       22       28       30 </v>
   <v type="int" >       12       21       27       28       30 </v>
   <v type="int" >       12       21       27       29       30 </v>
   <v type="int" >       12       18       19       22       28 </v>
   <v type="int" >       12       18       21       22       28 </v>
   <v type="int" >       12       18       21       27       28 </v>
   <v type="int" >       12        8        9        9       12 </v>
   <v type="int" >       12        8        8        9       12 </v>
   <v type="int" >       12        8        8       11       12 </v>
   <v type="int" >       12        8        9       12       12 </v>
   <v type="int" >       12        8       11       12       12 </v>
   <v type="int" >       12        8       11       11       12 </v>
   <v type="int" >       12       20       21       23       29 </v>
   <v type="int" >       12       20       21       27       29 </v>
   <v type="int" >       12       20       26       27       29 </v>
   <v type="int" >       12       17       18       21       27 </v>
   <v type="int" >       12       17       20       21       27 </v>
   <v type="int" >       12       17       20       26       27 </v>
   <v type="int" >       12        7        8        8       11 </v>
   <v type="int" >       12        7        7        8       11 </v>
   <v type="int" >       12        7        7       10       11 </v>
   <v type="int" >       12        7        8       11       11 </v>
   <v type="int" >       12        7       10       11       11 </v>
   <v type="int" >       12        7       10       10       11 </v>
   <v type="int" >       12       16       17       20       26 </v>
   <v type="int" >       12        6        7        7       10 </v>
   <v type="int" >       12        6        6        7       10 </v>
   <v type="int" >       12        6        7       10       10 </v>
   <v type="int" >       12        2        2        2        3 </v>
   <v type="int" >       12        2        2        3        3 </v>
   <v type="int" >       12        2        3        3        3 </v>
   <v type="int" >       12       26       27       27       29 </v>
   <v type="int" >       12       27       27       29       29 </v>
   <v type="int" >       12       27       29       29       32 </v>
   <v type="int" >       12       27       28       29       30 </v>
   <v type="int" >       12       27       29       29       30 </v>
   <v type="int" >       12       29       29       30       32 </v>
   <v type="int" >       12       28       29       30       30 </v>
   <v type="int" >       24       29       30       30       33 </v>
   <v type="int" >       24       29       30       32       33 </v>
   <v type="int" >        6       28       28       30       30 </v>
   <v type="int" >       12       28       30       30       30 </v>
   <v type="int" >       12       30       30       30       33 </v>
   <v type="int" >        6       30       30       33       33 </v>
   <v type="int" >        6       10       10       11       11 </v>
   <v type="int" >       12       10       11       11       11 </v>
   <v type="int" >       12       11       11       11       13 </v>
   <v type="int" >        6       11       11       13       13 </v>
   <v type="int" >       12       29       30       31       32 </v>
   <v type="int" >       12       30       31       32       33 </v>
   <v type="int" >       12       31       32       33       34 </v>
   <v type="int" >       24       30       30       31       33 </v>
   <v type="int" >       12       30       31       31       33 </v>
   <v type="int" >       12       31       31       33       34 </v>
   <v type="int" >       12       30       31       33       33 </v>
   <v type="int" >       12       31       33       33       34 </v>
   <v type="int" >       12       31       33       34       34 </v>
   <v type="int" >       12       30       31       33       34 </v>
   <v type="int" >       12       30       32       33       33 </v>
   <v type="int" >       24       30       33       33       34 </v>
   <v type="int" >       12       27       28       29       32 </v>
   <v type="int" >       12       28       29       30       32 </v>
   <v type="int" >       12       28       30       32       33 </v>
   <v type="int" >       12       11       11       12       13 </v>
   <v type="int" >       12       11       12       12       13 </v>
   <v type="int" >       12       12       12       13       14 </v>
   <v type="int" >       12       11       12       13       13 </v>
   <v type="int" >       12       12       13       13       14 </v>
   <v type="int" >       12       12       13       14       14 </v>
   <v type="int" >       12       31       31       31       34 </v>
   <v type="int" >       12       31       31       34       34 </v>
   <v type="int" >       12       31       34       34       34 </v>
   <v type="int" >       12       30       30       31       34 </v>
   <v type="int" >       12       30       31       31       34 </v>
   <v type="int" >       12       30       31       34       34 </v>
   <v type="int" >       12       30       30       33       34 </v>
   <v type="int" >       12       30       33       34       34 </v>
   <v type="int" >       12       28       28       30       33 </v>
   <v type="int" >       12       28       30       30       33 </v>
   <v type="int" >       12       28       30       33       33 </v>
   <v type="int" >       24       12       12       12       14 </v>
   <v type="int" >       24       12       12       14       14 </v>
   <v type="int" >       24       12       14       14       14 </v>
   <v type="int" >       12       29       30       31       34 </v>
   <v type="int" >       12       29       30       33       34 </v>
   <v type="int" >       12       29       32       33       34 </v>
   <v type="int" >       12       27       28       30       33 </v>
   <v type="int" >       12       27       29       30       33 </v>
   <v type="int" >       12       27       29       32       33 </v>
   <v type="int" >       12       11       12       12       14 </v>
   <v type="int" >       12       11       11       12       14 </v>
   <v type="int" >       12       11       11       13       14 </v>
   <v type="int" >       12       11       12       14       14 </v>
   <v type="int" >       12       11       13       14       14 </v>
   <v type="int" >       12       11       13       13       14 </v>
   <v type="int" >       12       26       27       29       32 </v>
   <v type="int" >       12       10       11       11       13 </v>
   <v type="int" >       12       10       10       11       13 </v>
   <v type="int" >       12       10       11       13       13 </v>
   <v type="int" >       12        3        3        3        4 </v>
   <v type="int" >       12        3        3        4        4 </v>
   <v type="int" >       12        3        4        4        4 </v>
   <v type="int" >       12       32       33       33       34 </v>
   <v type="int" >       18       33       33       34       34 </v>
   <v type="int" >       24       33       34       34       35 </v>
   <v type="int" >       12       33       34       34       34 </v>
   <v type="int" >       24       34       34       34       35 </v>
   <v type="int" >       18       34       34       35       35 </v>
   <v type="int" >        6       13       13       14       14 </v>
   <v type="int" >       12       13       14       14       14 </v>
   <v type="int" >       36       14       14       14       15 </v>
   <v type="int" >       30       14       14       15       15 </v>
   <v type="int" >       12       34       35       35       35 </v>
   <v type="int" >       12       33       33       34       35 </v>
   <v type="int" >       12       33       34       35       35 </v>
   <v type="int" >       24       14       15       15       15 </v>
   <v type="int" >       12       32       33       34       35 </v>
   <v type="int" >       12       13       14       14       15 </v>
   <v type="int" >       12       13       13       14       15 </v>
   <v type="int" >       12       13       14       15       15 </v>
   <v type="int" >       12        4        4        4        5 </v>
   <v type="int" >       12        4        4        5        5 </v>
   <v type="int" >       12        4        5        5        5 </v>
   <v type="int" >        6       35       35       35       35 </v>
   <v type="int" >       18       15       15       15       15 </v>
   <v type="int" >       18        5        5        5        5 </v>
   <v type="int" >        6        1        1        1        1 </v>
  </varray>
  <i name="volumeweight">      0.00016667 </i>
 </kpoints>
 <parameters>
  <separator name="general" >
   <i type="string" name="SYSTEM">unknown system</i>
   <i type="logical" name="LCOMPAT"> F  </i>
  </separator>
  <separator name="electronic" >
   <i type="string" name="PREC">accura</i>
   <i name="ENMAX">    480.00000000</i>
   <i name="ENAUG">    578.34200000</i>
   <i name="EDIFF">      0.00000010</i>
   <i type="int" name="IALGO">    38</i>
   <i type="int" name="IWAVPR">    10</i>
   <i type="int" name="NBANDS">    24</i>
   <i name="NELECT">     28.00000000</i>
   <i type="int" name="TURBO">     0</i>
   <i type="int" name="IRESTART">     0</i>
   <i type="int" name="NREBOOT">     0</i>
   <i type="int" name="NMIN">     0</i>
   <i name="EREF">      0.00000000</i>
   <separator name="electronic smearing" >
    <i type="int" name="ISMEAR">    -5</i>
    <i name="SIGMA">      0.05000000</i>
    <i name="KSPACING">      0.50000000</i>
    <i type="logical" name="KGAMMA"> T  </i>
   </separator>
   <separator name="electronic projectors" >
    <i type="logical" name="LREAL"> T  </i>
    <v name="ROPT">     -0.00025000</v>
    <i type="int" name="LMAXPAW">  -100</i>
    <i type="int" name="LMAXMIX">     2</i>
    <i type="logical" name="NLSPLINE"> F  </i>
   </separator>
   <separator name="electronic startup" >
    <i type="int" name="ISTART">     0</i>
    <i type="int" name="ICHARG">     2</i>
    <i type="int" name="INIWAV">     1</i>
   </separator>
   <separator name="electronic spin" >
    <i type="int" name="ISPIN">     2</i>
    <i type="logical" name="LNONCOLLINEAR"> F  </i>
    <v name="MAGMOM">      5.00000000      5.00000000</v>
    <i name="NUPDOWN">     -1.00000000</i>
    <i type="logical" name="LSORBIT"> F  </i>
    <v name="SAXIS">      0.00000000      0.00000000      1.00000000</v>
    <i type="logical" name="LSPIRAL"> F  </i>
    <v name="QSPIRAL">      0.00000000      0.00000000      0.00000000</v>
    <i type="logical" name="LZEROZ"> F  </i>
   </separator>
   <separator name="electronic exchange-correlation" >
    <i type="logical" name="LASPH"> F  </i>
    <i type="logical" name="LMETAGGA"> F  </i>
   </separator>
   <separator name="electronic convergence" >
    <i type="int" name="NELM">   100</i>
    <i type="int" name="NELMDL">    -5</i>
    <i type="int" name="NELMIN">     2</i>
    <i name="ENINI">    480.00000000</i>
    <separator name="electronic convergence detail" >
     <i type="logical" name="LDIAG"> T  </i>
     <i type="logical" name="LSUBROT"> F  </i>
     <i name="WEIMIN">      0.00000000</i>
     <i name="EBREAK">      0.00000000</i>
     <i name="DEPER">      0.30000000</i>
     <i type="int" name="NRMM">     4</i>
     <i name="TIME">      0.40000000</i>
    </separator>
   </separator>
   <separator name="electronic mixer" >
    <i name="AMIX">      0.40000000</i>
    <i name="BMIX">      1.00000000</i>
    <i name="AMIN">      0.10000000</i>
    <i name="AMIX_MAG">      1.60000000</i>
    <i name="BMIX_MAG">      1.00000000</i>
    <separator name="electronic mixer details" >
     <i type="int" name="IMIX">     4</i>
     <i type="logical" name="MIXFIRST"> F  </i>
     <i type="int" name="MAXMIX">   -45</i>
     <i name="WC">    100.00000000</i>
     <i type="int" name="INIMIX">     1</i>
     <i type="int" name="MIXPRE">     1</i>
     <i type="int" name="MREMOVE">     5</i>
    </separator>
   </separator>
   <separator name="electronic dipolcorrection" >
    <i type="logical" name="LDIPOL"> F  </i>
    <i type="logical" name="LMONO"> F  </i>
    <i type="int" name="IDIPOL">     0</i>
    <i name="EPSILON">      1.00000000</i>
    <v name="DIPOL">   -100.00000000   -100.00000000   -100.00000000</v>
    <i name="EFIELD">      0.00000000</i>
   </separator>
  </separator>
  <separator name="grids" >
   <i type="int" name="NGX">    20</i>
   <i type="int" name="NGY">    20</i>
   <i type="int" name="NGZ">    20</i>
   <i type="int" name="NGXF">    40</i>
   <i type="int" name="NGYF">    40</i>
   <i type="int" name="NGZF">    40</i>
   <i type="logical" name="ADDGRID"> F  </i>
  </separator>
  <separator name="ionic" >
   <i type="int" name="NSW">     0</i>
   <i type="int" name="IBRION">    -1</i>
   <i type="int" name="MDALGO">     0</i>
   <i type="int" name="ISIF">     3</i>
   <i name="PSTRESS">      0.00000000</i>
   <i name="EDIFFG">      0.00000100</i>
   <i type="int" name="NFREE">     0</i>
   <i name="POTIM">      0.50000000</i>
   <i name="SMASS">     -3.00000000</i>
   <i name="SCALEE">      1.00000000</i>
  </separator>
  <separator name="ionic md" >
   <i name="TEBEG">      0.00010000</i>
   <i name="TEEND">      0.00010000</i>
   <i type="int" name="NBLOCK">     1</i>
   <i type="int" name="KBLOCK">     1</i>
   <i type="int" name="NPACO">   256</i>
   <i name="APACO">     16.00000000</i>
  </separator>
  <separator name="symmetry" >
   <i type="int" name="ISYM">     2</i>
   <i name="SYMPREC">      0.00001000</i>
  </separator>
  <separator name="dos" >
   <i type="int" name="LORBIT">    11</i>
   <v name="RWIGS">     -1.00000000</v>
   <i type="int" name="NEDOS">   301</i>
   <i name="EMIN">     10.00000000</i>
   <i name="EMAX">    -10.00000000</i>
   <i name="EFERMI">      0.00000000</i>
  </separator>
  <separator name="writing" >
   <i type="int" name="NWRITE">     2</i>
   <i type="logical" name="LWAVE"> F  </i>
   <i type="logical" name="LDOWNSAMPLE"> F  </i>
   <i type="logical" name="LCHARG"> F  </i>
   <i type="logical" name="LPARD"> F  </i>
   <i type="logical" name="LVTOT"> F  </i>
   <i type="logical" name="LVHAR"> F  </i>
   <i type="logical" name="LELF"> F  </i>
   <i type="logical" name="LOPTICS"> F  </i>
   <v name="STM">      0.00000000      0.00000000      0.00000000      0.00000000      0.00000000      0.00000000      0.00000000</v>
  </separator>
  <separator name="performance" >
   <i type="int" name="NPAR">     6</i>
   <i type="int" name="NSIM">     4</i>
   <i type="int" name="NBLK">    -1</i>
   <i type="logical" name="LPLANE"> T  </i>
   <i type="logical" name="LSCALAPACK"> T  </i>
   <i type="logical" name="LSCAAWARE"> F  </i>
   <i type="logical" name="LSCALU"> F  </i>
   <i type="logical" name="LASYNC"> F  </i>
   <i type="logical" name="LORBITALREAL"> F  </i>
  </separator>
  <separator name="miscellaneous" >
   <i type="int" name="IDIOT">     3</i>
   <i type="int" name="ISPECIAL">     0</i>
   <i type="logical" name="LMUSIC"> F  </i>
   <v name="POMASS">     55.84700000</v>
   <v name="DARWINR">      0.00000000</v>
   <v name="DARWINV">      1.00000000</v>
   <i type="logical" name="LCORR"> T  </i>
  </separator>
  <i type="logical" name="GGA_COMPAT"> T  </i>
  <i type="logical" name="LBERRY"> F  </i>
  <i type="int" name="ICORELEVEL">     0</i>
  <i type="logical" name="LDAU"> F  </i>
  <i type="int" name="I_CONSTRAINED_M">     0</i>
  <separator name="electronic exchange-correlation" >
   <i type="string" name="GGA">--</i>
   <i type="int" name="VOSKOWN">     0</i>
   <i type="logical" name="LHFCALC"> F  </i>
   <i type="string" name="PRECFOCK"></i>
   <i type="logical" name="LSYMGRAD"> F  </i>
   <i type="logical" name="LHFONE"> F  </i>
   <i type="logical" name="LRHFCALC"> F  </i>
   <i type="logical" name="LTHOMAS"> F  </i>
   <i type="logical" name="LMODELHF"> F  </i>
   <i name="ENCUT4O">     -1.00000000</i>
   <i type="int" name="EXXOEP">     0</i>
   <i type="int" name="FOURORBIT">     0</i>
   <i name="AEXX">      0.00000000</i>
   <i name="HFALPHA">      0.00000000</i>
   <i name="MCALPHA">      0.00000000</i>
   <i name="ALDAX">      1.00000000</i>
   <i name="AGGAX">      1.00000000</i>
   <i name="ALDAC">      1.00000000</i>
   <i name="AGGAC">      1.00000000</i>
   <i type="int" name="NKREDX">     1</i>
   <i type="int" name="NKREDY">     1</i>
   <i type="int" name="NKREDZ">     1</i>
   <i type="logical" name="SHIFTRED"> F  </i>
   <i type="logical" name="ODDONLY"> F  </i>
   <i type="logical" name="EVENONLY"> F  </i>
   <i type="int" name="LMAXFOCK">     0</i>
   <i type="int" name="NMAXFOCKAE">     0</i>
   <i type="logical" name="LFOCKAEDFT"> F  </i>
   <i name="HFSCREEN">      0.00000000</i>
   <i name="HFSCREENC">      0.00000000</i>
   <i type="int" name="NBANDSGWLOW">     0</i>
  </separator>
  <separator name="vdW DFT" >
   <i type="logical" name="LUSE_VDW"> F  </i>
   <i name="Zab_VDW">     -0.84910000</i>
   <i name="PARAM1">      0.12340000</i>
   <i name="PARAM2">      1.00000000</i>
   <i name="PARAM3">      0.00000000</i>
  </separator>
  <separator name="model GW" >
   <i type="int" name="MODEL_GW">     0</i>
   <i name="MODEL_EPS0">      6.87226868</i>
   <i name="MODEL_ALPHA">      1.00000000</i>
  </separator>
  <separator name="linear response parameters" >
   <i type="logical" name="LEPSILON"> F  </i>
   <i type="logical" name="LRPA"> F  </i>
   <i type="logical" name="LNABLA"> F  </i>
   <i type="logical" name="LVEL"> F  </i>
   <i type="int" name="KINTER">     0</i>
   <i name="CSHIFT">      0.10000000</i>
   <i name="OMEGAMAX">     -1.00000000</i>
   <i name="DEG_THRESHOLD">      0.00200000</i>
   <i name="RTIME">     -0.10000000</i>
   <i name="WPLASMAI">      0.00000000</i>
   <v name="DFIELD">      0.00000000      0.00000000      0.00000000</v>
   <v name="WPLASMA">      0.00000000      0.00000000      0.00000000      0.00000000      0.00000000      0.00000000      0.00000000      0.00000000      0.00000000</v>
  </separator>
  <separator name="orbital magnetization" >
   <i type="logical" name="NUCIND"> F  </i>
   <v name="MAGPOS">      0.00000000      0.00000000      0.00000000</v>
   <i type="logical" name="LNICSALL"> T  </i>
   <i type="logical" name="ORBITALMAG"> F  </i>
   <i type="logical" name="LMAGBLOCH"> F  </i>
   <i type="logical" name="LCHIMAG"> F  </i>
   <i type="logical" name="LGAUGE"> T  </i>
   <i type="int" name="MAGATOM">     0</i>
   <v name="MAGDIPOL">      0.00000000      0.00000000      0.00000000</v>
   <v name="AVECCONST">      0.00000000      0.00000000      0.00000000</v>
  </separator>
  <separator name="response functions" >
   <i type="logical" name="LADDER"> F  </i>
   <i type="logical" name="LRPAFORCE"> F  </i>
   <i type="logical" name="LFXC"> F  </i>
   <i type="logical" name="LHARTREE"> T  </i>
   <i type="int" name="IBSE">     0</i>
   <v type="int" name="KPOINT">    -1     0     0     0</v>
   <i type="logical" name="LTCTE"> F  </i>
   <i type="logical" name="LTETE"> F  </i>
   <i type="logical" name="LTRIPLET"> F  </i>
   <i type="logical" name="LFXCEPS"> F  </i>
   <i type="logical" name="LFXHEG"> F  </i>
   <i type="int" name="NATURALO">     2</i>
   <i type="logical" name="L2ORDER"> F  </i>
   <i type="logical" name="LMP2LT"> F  </i>
   <i type="logical" name="LUSEW"> F  </i>
   <i name="ENCUTGW">     -2.00000000</i>
   <i name="ENCUTGWSOFT">     -2.00000000</i>
   <i name="ENCUTLF">     -1.00000000</i>
   <i type="int" name="LMAXMP2">    -1</i>
   <i name="SCISSOR">      0.00000000</i>
   <i type="int" name="NOMEGA">     0</i>
   <i type="int" name="NOMEGAR">     0</i>
   <i type="int" name="NBANDSGW">    -1</i>
   <i type="int" name="NBANDSO">    -1</i>
   <i type="int" name="NBANDSV">    -1</i>
   <i type="int" name="NELM">   100</i>
   <i type="int" name="NELMHF">     1</i>
   <i type="int" name="DIM">     3</i>
   <i type="int" name="ANTIRES">     0</i>
   <i name="OMEGAMAX">    -30.00000000</i>
   <i name="OMEGAMIN">    -30.00000000</i>
   <i name="OMEGATL">   -200.00000000</i>
   <i type="int" name="OMEGAGRID">   140</i>
   <i name="CSHIFT">     -0.10000000</i>
   <i type="logical" name="SELFENERGY"> F  </i>
   <i type="logical" name="LSPECTRAL"> F  </i>
   <i type="logical" name="LSPECTRALGW"> F  </i>
   <i type="logical" name="LSINGLES"> F  </i>
   <i type="logical" name="LFERMIGW"> F  </i>
   <i type="logical" name="ODDONLYGW"> F  </i>
   <i type="logical" name="EVENONLYGW"> F  </i>
   <i type="int" name="NKREDLFX">     1</i>
   <i type="int" name="NKREDLFY">     1</i>
   <i type="int" name="NKREDLFZ">     1</i>
   <i type="int" name="MAXMEM">  2800</i>
   <i type="int" name="TELESCOPE">     0</i>
   <i type="int" name="TAUPAR">     1</i>
   <i type="int" name="OMEGAPAR">    -1</i>
   <i name="LAMBDA">      1.00000000</i>
  </separator>
  <separator name="External order field" >
   <i name="OFIELD_KAPPA">      0.00000000</i>
   <v name="OFIELD_K">      0.00000000      0.00000000      0.00000000</v>
   <i name="OFIELD_Q6_NEAR">      0.00000000</i>
   <i name="OFIELD_Q6_FAR">      0.00000000</i>
   <i name="OFIELD_A">      0.00000000</i>
  </separator>
 </parameters>
 <atominfo>
  <atoms>       2 </atoms>
  <types>       1 </types>
  <array name="atoms" >
   <dimension dim="1">ion</dimension>
   <field type="string">element</field>
   <field type="int">atomtype</field>
   <set>
    <rc><c>Fe</c><c>   1</c></rc>
    <rc><c>Fe</c><c>   1</c></rc>
   </set>
  </array>
  <array name="atomtypes" >
   <dimension dim="1">type</dimension>
   <field type="int">atomspertype</field>
   <field type="string">element</field>
   <field>mass</field>
   <field>valence</field>
   <field type="string">pseudopotential</field>
   <set>
    <rc><c>   2</c><c>Fe</c><c>     55.84700000</c><c>     14.00000000</c><c>  PAW_PBE Fe_pv 02Aug2007               </c></rc>
   </set>
  </array>
 </atominfo>
 <structure name="initialpos" >
  <crystal>
   <varray name="basis" >
    <v>       2.84005200       0.00000000       0.00000000 </v>
    <v>       0.00000000       2.84005200       0.00000000 </v>
    <v>       0.00000000       0.00000000       2.84005200 </v>
   </varray>
   <i name="volume">     22.90756226 </i>
   <varray name="rec_basis" >
    <v>       0.35210623       0.00000000       0.00000000 </v>
    <v>       0.00000000       0.35210623       0.00000000 </v>
    <v>       0.00000000       0.00000000       0.35210623 </v>
   </varray>
  </crystal>
  <varray name="positions" >
   <v>       0.00000000       0.00000000       0.00000000 </v>
   <v>       0.50000000       0.50000000       0.50000000 </v>
  </varray>
 </structure>
 <calculation>
  <scstep>
   <time name="dav">    0.41    0.42</time>
   <time name="total">    0.46    0.47</time>
   <energy>
    <i name="alphaZ">    218.87048721 </i>
    <i name="ewald">  -3616.56080017 </i>
    <i name="hartreedc">  -1162.86386254 </i>
    <i name="XCdc">    147.54620390 </i>
    <i name="pawpsdc">   3997.93860218 </i>
    <i name="pawaedc">  -4177.34792201 </i>
    <i name="eentropy">      0.00000000 </i>
    <i name="bandstr">   -126.25953665 </i>
    <i name="atom">   4914.83029284 </i>
    <i name="e_fr_energy">    196.15346476 </i>
    <i name="e_wo_entrp">    196.15346476 </i>
    <i name="e_0_energy">    196.15346476 </i>
   </energy>
  </scstep>
  <scstep>
   <time name="dav">    0.39    0.39</time>
   <time name="total">    0.43    0.43</time>
   <energy>
    <i name="e_fr_energy">    -10.56585625 </i>
    <i name="e_wo_entrp">    -10.56585625 </i>
    <i name="e_0_energy">    -10.56585625 </i>
   </energy>
  </scstep>
  <scstep>
   <time name="dav">    0.43    0.43</time>
   <time name="total">    0.46    0.46</time>
   <energy>
    <i name="e_fr_energy">    -16.22652804 </i>
    <i name="e_wo_entrp">    -16.22652804 </i>
    <i name="e_0_energy">    -16.22652804 </i>
   </energy>
  </scstep>
  <scstep>
   <time name="dav">    0.43    0.43</time>
   <time name="total">    0.47    0.47</time>
   <energy>
    <i name="e_fr_energy">    -16.27135489 </i>
    <i name="e_wo_entrp">    -16.27135489 </i>
    <i name="e_0_energy">    -16.27135489 </i>
   </energy>
  </scstep>
  <scstep>
   <time name="dav">    0.43    0.43</time>
   <time name="total">    0.47    0.48</time>
   <energy>
    <i name="e_fr_energy">    -16.27217316 </i>
    <i name="e_wo_entrp">    -16.27217316 </i>
    <i name="e_0_energy">    -16.27217316 </i>
   </energy>
  </scstep>
  <scstep>
   <time name="dav">    0.38    0.39</time>
   <time name="total">    0.44    0.44</time>
   <energy>
    <i name="e_fr_energy">    -16.45392093 </i>
    <i name="e_wo_entrp">    -16.45392093 </i>
    <i name="e_0_energy">    -16.45392093 </i>
   </energy>
  </scstep>
  <scstep>
   <time name="dav">    0.38    0.38</time>
   <time name="total">    0.44    0.44</time>
   <energy>
    <i name="e_fr_energy">    -16.50992417 </i>
    <i name="e_wo_entrp">    -16.50992417 </i>
    <i name="e_0_energy">    -16.50992417 </i>
   </energy>
  </scstep>
  <scstep>
   <time name="dav">    0.42    0.42</time>
   <time name="total">    0.48    0.48</time>
   <energy>
    <i name="e_fr_energy">    -16.51985009 </i>
    <i name="e_wo_entrp">    -16.51985009 </i>
    <i name="e_0_energy">    -16.51985009 </i>
   </energy>
  </scstep>
  <scstep>
   <time name="dav">    0.41    0.41</time>
   <time name="total">    0.46    0.46</time>
   <energy>
    <i name="e_fr_energy">    -16.51163910 </i>
    <i name="e_wo_entrp">    -16.51163910 </i>
    <i name="e_0_energy">    -16.51163910 </i>
   </energy>
  </scstep>
  <scstep>
   <time name="dav">    0.39    0.39</time>
   <time name="total">    0.45    0.45</time>
   <energy>
    <i name="e_fr_energy">    -16.51146378 </i>
    <i name="e_wo_entrp">    -16.51146378 </i>
    <i name="e_0_energy">    -16.51146378 </i>
   </energy>
  </scstep>
  <scstep>
   <time name="dav">    0.41    0.41</time>
   <time name="total">    0.46    0.47</time>
   <energy>
    <i name="e_fr_energy">    -16.51152295 </i>
    <i name="e_wo_entrp">    -16.51152295 </i>
    <i name="e_0_energy">    -16.51152295 </i>
   </energy>
  </scstep>
  <scstep>
   <time name="dav">    0.43    0.43</time>
   <time name="total">    0.49    0.49</time>
   <energy>
    <i name="e_fr_energy">    -16.51153087 </i>
    <i name="e_wo_entrp">    -16.51153087 </i>
    <i name="e_0_energy">    -16.51153087 </i>
   </energy>
  </scstep>
  <scstep>
   <time name="dav">    0.39    0.39</time>
   <time name="total">    0.45    0.45</time>
   <energy>
    <i name="e_fr_energy">    -16.51152411 </i>
    <i name="e_wo_entrp">    -16.51152411 </i>
    <i name="e_0_energy">    -16.51152411 </i>
   </energy>
  </scstep>
  <scstep>
   <time name="dav">    0.33    0.33</time>
   <time name="total">    0.38    0.39</time>
   <energy>
    <i name="e_fr_energy">    -16.51152265 </i>
    <i name="e_wo_entrp">    -16.51152265 </i>
    <i name="e_0_energy">    -16.51152265 </i>
   </energy>
  </scstep>
  <scstep>
   <time name="dav">    0.25    0.25</time>
   <time name="total">    0.30    0.30</time>
   <energy>
    <i name="alphaZ">    218.87048721 </i>
    <i name="ewald">  -3616.56080017 </i>
    <i name="hartreedc">  -1089.93790756 </i>
    <i name="XCdc">    140.87618860 </i>
    <i name="pawpsdc">   4375.21322419 </i>
    <i name="pawaedc">  -4560.54507360 </i>
    <i name="eentropy">      0.00000000 </i>
    <i name="bandstr">   -399.25793418 </i>
    <i name="atom">   4914.83029284 </i>
    <i name="e_fr_energy">    -16.51152267 </i>
    <i name="e_wo_entrp">    -16.51152267 </i>
    <i name="e_0_energy">    -16.51152267 </i>
   </energy>
  </scstep>
  <structure>
   <crystal>
    <varray name="basis" >
     <v>       2.84005200       0.00000000       0.00000000 </v>
     <v>       0.00000000       2.84005200       0.00000000 </v>
     <v>       0.00000000       0.00000000       2.84005200 </v>
    </varray>
    <i name="volume">     22.90756226 </i>
    <varray name="rec_basis" >
     <v>       0.35210623       0.00000000       0.00000000 </v>
     <v>       0.00000000       0.35210623       0.00000000 </v>
     <v>       0.00000000       0.00000000       0.35210623 </v>
    </varray>
   </crystal>
   <varray name="positions" >
    <v>       0.00000000       0.00000000       0.00000000 </v>
    <v>       0.50000000       0.50000000       0.50000000 </v>
   </varray>
  </structure>
  <varray name="forces" >
   <v>       0.00000000      -0.00000000       0.00000000 </v>
   <v>      -0.00000000       0.00000000      -0.00000000 </v>
  </varray>
  <varray name="stress" >
   <v>     -21.87720179      -0.00000000       0.00000000 </v>
   <v>       0.00000000     -21.87720179       0.00000000 </v>
   <v>       0.00000000       0.00000000     -21.87720179 </v>
  </varray>
  <energy>
   <i name="e_fr_energy">    -16.51152267 </i>
   <i name="e_wo_entrp">    -16.51152267 </i>
   <i name="e_0_energy">      0.00000000 </i>
  </energy>
  <time name="totalsc">    6.90    6.94</time>
  <eigenvalues>
   <array>
    <dimension dim="1">band</dimension>
    <dimension dim="2">kpoint</dimension>
    <dimension dim="3">spin</dimension>
    <field>eigene</field>
    <field>occ</field>
    <set>
     <set comment="spin 1">
      <set comment="kpoint 1">
       <r>  -44.5599    1.0000 </r>
       <r>  -44.5599    1.0000 </r>
       <r>  -44.5456    1.0000 </r>
       <r>  -44.2888    1.0000 </r>
       <r>  -44.2738    1.0000 </r>
       <r>  -44.2738    1.0000 </r>
       <r>    1.3975    1.0000 </r>
       <r>    4.9390    1.0000 </r>
       <r>    4.9390    1.0000 </r>
       <r>    7.3054    1.0000 </r>
       <r>    7.3054    1.0000 </r>
       <r>    7.4314    1.0000 </r>
       <r>    8.5811    1.0000 </r>
       <r>    8.5811    1.0000 </r>
       <r>    9.4950    1.0000 </r>
       <r>    9.6873    0.6012 </r>
       <r>    9.6873    0.0098 </r>
       <r>   19.1991    0.0000 </r>
       <r>   19.1991    0.0000 </r>
       <r>   19.4410    0.0000 </r>
       <r>   25.8109    0.0000 </r>
       <r>   25.8109    0.0000 </r>
       <r>   30.6959    0.0000 </r>
       <r>   33.3492    0.0000 </r>
      </set>
      <set comment="kpoint 2">
       <r>  -44.5659    1.0000 </r>
       <r>  -44.5451    1.0000 </r>
       <r>  -44.5235    1.0000 </r>
       <r>  -44.3206    1.0000 </r>
       <r>  -44.2872    1.0000 </r>
       <r>  -44.2795    1.0000 </r>
       <r>    1.8011    1.0000 </r>
       <r>    5.1069    1.0000 </r>
       <r>    5.1090    1.0000 </r>
       <r>    7.2467    1.0000 </r>
       <r>    7.2949    1.0000 </r>
       <r>    7.5995    1.0000 </r>
       <r>    8.4149    1.0000 </r>
       <r>    8.6559    1.0000 </r>
       <r>    9.1043    1.0000 </r>
       <r>    9.3728    1.0211 </r>
       <r>    9.6659    0.1363 </r>
       <r>   17.0984    0.0000 </r>
       <r>   19.9181    0.0000 </r>
       <r>   20.0951    0.0000 </r>
       <r>   25.9625    0.0000 </r>
       <r>   27.1443    0.0000 </r>
       <r>   31.5531    0.0000 </r>
       <r>   32.1487    0.0000 </r>
      </set>
      <set comment="kpoint 3">
       <r>  -44.5631    1.0000 </r>
       <r>  -44.5173    1.0000 </r>
       <r>  -44.4927    1.0000 </r>
       <r>  -44.3683    1.0000 </r>
       <r>  -44.3126    1.0000 </r>
       <r>  -44.2996    1.0000 </r>
       <r>    2.5667    1.0000 </r>
       <r>    5.3681    1.0000 </r>
       <r>    5.4282    1.0000 </r>
       <r>    7.2428    1.0000 </r>
       <r>    7.2877    1.0000 </r>
       <r>    7.8419    1.0000 </r>
       <r>    8.1084    1.0000 </r>
       <r>    8.6070    1.0000 </r>
       <r>    8.7952    1.0000 </r>
       <r>    8.8893    1.0000 </r>
       <r>    9.4862    1.0392 </r>
       <r>   14.5753    0.0000 </r>
       <r>   21.1873    0.0000 </r>
       <r>   21.3580    0.0000 </r>
       <r>   26.2951    0.0000 </r>
       <r>   27.9718    0.0000 </r>
       <r>   29.6293    0.0000 </r>
       <r>   31.2960    0.0000 </r>
      </set>
      <set comment="kpoint 4">
       <r>  -44.5486    1.0000 </r>
       <r>  -44.4794    1.0000 </r>
       <r>  -44.4547    1.0000 </r>
       <r>  -44.4236    1.0000 </r>
       <r>  -44.3480    1.0000 </r>
       <r>  -44.3309    1.0000 </r>
       <r>    3.5889    1.0000 </r>
       <r>    5.5406    1.0000 </r>
       <r>    5.8733    1.0000 </r>
       <r>    7.2461    1.0000 </r>
       <r>    7.3216    1.0000 </r>
       <r>    7.7685    1.0000 </r>
       <r>    8.1308    1.0000 </r>
       <r>    8.1506    1.0000 </r>
       <r>    8.3932    1.0000 </r>
       <r>    9.0197    1.0000 </r>
       <r>    9.2007    1.0387 </r>
       <r>   12.2830    0.0000 </r>
       <r>   22.7942    0.0000 </r>
       <r>   23.0068    0.0000 </r>
       <r>   26.8760    0.0000 </r>
       <r>   27.8752    0.0000 </r>
       <r>   28.6102    0.0000 </r>
       <r>   29.1472    0.0000 </r>
      </set>
      <set comment="kpoint 5">
       <r>  -44.5199    1.0000 </r>
       <r>  -44.4768    1.0000 </r>
       <r>  -44.4356    1.0000 </r>
       <r>  -44.4125    1.0000 </r>
       <r>  -44.3902    1.0000 </r>
       <r>  -44.3698    1.0000 </r>
       <r>    4.6409    1.0000 </r>
       <r>    5.3583    1.0000 </r>
       <r>    6.3953    1.0000 </r>
       <r>    6.9181    1.0000 </r>
       <r>    7.4994    1.0000 </r>
       <r>    7.7315    1.0000 </r>
       <r>    7.7628    1.0000 </r>
       <r>    7.9857    1.0000 </r>
       <r>    8.4994    1.0000 </r>
       <r>    8.8578    1.0000 </r>
       <r>    9.4835    0.9856 </r>
       <r>   10.5195    0.0000 </r>
       <r>   24.5323    0.0000 </r>
       <r>   24.9041    0.0000 </r>
       <r>   26.2269    0.0000 </r>
       <r>   26.9668    0.0000 </r>
       <r>   27.8216    0.0000 </r>
       <r>   29.2510    0.0000 </r>
      </set>
      <set comment="kpoint 6">
       <r>  -44.5799    1.0000 </r>
       <r>  -44.5363    1.0000 </r>
       <r>  -44.4911    1.0000 </r>
       <r>  -44.3621    1.0000 </r>
       <r>  -44.2974    1.0000 </r>
       <r>  -44.2740    1.0000 </r>
       <r>    2.1890    1.0000 </r>
       <r>    5.2398    1.0000 </r>
       <r>    5.2986    1.0000 </r>
       <r>    7.0941    1.0000 </r>
       <r>    7.2378    1.0000 </r>
       <r>    7.8704    1.0000 </r>
       <r>    8.4393    1.0000 </r>
       <r>    8.6111    1.0000 </r>
       <r>    8.6250    1.0000 </r>
       <r>    9.1499    1.0069 </r>
       <r>    9.7351    0.0314 </r>
       <r>   17.1956    0.0000 </r>
       <r>   18.2805    0.0000 </r>
       <r>   20.6503    0.0000 </r>
       <r>   26.6288    0.0000 </r>
       <r>   28.5397    0.0000 </r>
       <r>   29.9223    0.0000 </r>
       <r>   31.9698    0.0000 </r>
      </set>
      <set comment="kpoint 7">
       <r>  -44.5892    1.0000 </r>
       <r>  -44.5107    1.0000 </r>
       <r>  -44.4532    1.0000 </r>
       <r>  -44.4168    1.0000 </r>
       <r>  -44.3204    1.0000 </r>
       <r>  -44.2815    1.0000 </r>
       <r>    2.9154    1.0000 </r>
       <r>    5.4561    1.0000 </r>
       <r>    5.6213    1.0000 </r>
       <r>    6.9885    1.0000 </r>
       <r>    7.1828    1.0000 </r>
       <r>    8.1062    1.0000 </r>
       <r>    8.2005    1.0000 </r>
       <r>    8.2831    1.0000 </r>
       <r>    8.7220    1.0000 </r>
       <r>    8.7249    1.0000 </r>
       <r>    9.6889    0.2892 </r>
       <r>   14.9836    0.0000 </r>
       <r>   19.0117    0.0000 </r>
       <r>   21.7952    0.0000 </r>
       <r>   27.0203    0.0000 </r>
       <r>   27.7479    0.0000 </r>
       <r>   29.9241    0.0000 </r>
       <r>   30.6413    0.0000 </r>
      </set>
      <set comment="kpoint 8">
       <r>  -44.5851    1.0000 </r>
       <r>  -44.4752    1.0000 </r>
       <r>  -44.4745    1.0000 </r>
       <r>  -44.4126    1.0000 </r>
       <r>  -44.3529    1.0000 </r>
       <r>  -44.3025    1.0000 </r>
       <r>    3.8577    1.0000 </r>
       <r>    5.5959    1.0000 </r>
       <r>    6.0123    1.0000 </r>
       <r>    6.9649    1.0000 </r>
       <r>    7.1193    1.0000 </r>
       <r>    7.6674    1.0000 </r>
       <r>    8.0936    1.0000 </r>
       <r>    8.3380    1.0000 </r>
       <r>    8.5646    1.0000 </r>
       <r>    8.9638    1.0000 </r>
       <r>    9.4971    0.9240 </r>
       <r>   12.6530    0.0000 </r>
       <r>   20.3758    0.0000 </r>
       <r>   23.3116    0.0000 </r>
       <r>   25.6604    0.0000 </r>
       <r>   27.5892    0.0000 </r>
       <r>   28.7790    0.0000 </r>
       <r>   30.9263    0.0000 </r>
      </set>
      <set comment="kpoint 9">
       <r>  -44.5642    1.0000 </r>
       <r>  -44.5261    1.0000 </r>
       <r>  -44.4342    1.0000 </r>
       <r>  -44.3920    1.0000 </r>
       <r>  -44.3717    1.0000 </r>
       <r>  -44.3338    1.0000 </r>
       <r>    4.7816    1.0000 </r>
       <r>    5.4047    1.0000 </r>
       <r>    6.4373    1.0000 </r>
       <r>    6.8155    1.0000 </r>
       <r>    7.1501    1.0000 </r>
       <r>    7.3559    1.0000 </r>
       <r>    8.0553    1.0000 </r>
       <r>    8.1288    1.0000 </r>
       <r>    8.8897    1.0000 </r>
       <r>    9.2085    1.0000 </r>
       <r>    9.5414    0.7789 </r>
       <r>   10.7642    0.0000 </r>
       <r>   21.9646    0.0000 </r>
       <r>   23.7291    0.0000 </r>
       <r>   25.0470    0.0000 </r>
       <r>   26.8829    0.0000 </r>
       <r>   28.4947    0.0000 </r>
       <r>   29.8473    0.0000 </r>
      </set>
      <set comment="kpoint 10">
       <r>  -44.6124    1.0000 </r>
       <r>  -44.4900    1.0000 </r>
       <r>  -44.4765    1.0000 </r>
       <r>  -44.4104    1.0000 </r>
       <r>  -44.3383    1.0000 </r>
       <r>  -44.2742    1.0000 </r>
       <r>    3.5384    1.0000 </r>
       <r>    5.5110    1.0000 </r>
       <r>    6.0146    1.0000 </r>
       <r>    6.7717    1.0000 </r>
       <r>    7.1540    1.0000 </r>
       <r>    7.5992    1.0000 </r>
       <r>    8.4268    1.0000 </r>
       <r>    8.4291    1.0000 </r>
       <r>    8.6232    1.0000 </r>
       <r>    8.6653    1.0000 </r>
       <r>    9.8082   -0.0339 </r>
       <r>   14.8628    0.0000 </r>
       <r>   17.4654    0.0000 </r>
       <r>   22.7543    0.0000 </r>
       <r>   25.3834    0.0000 </r>
       <r>   27.3664    0.0000 </r>
       <r>   30.0596    0.0000 </r>
       <r>   32.3855    0.0000 </r>
      </set>
      <set comment="kpoint 11">
       <r>  -44.6216    1.0000 </r>
       <r>  -44.5346    1.0000 </r>
       <r>  -44.4613    1.0000 </r>
       <r>  -44.3690    1.0000 </r>
       <r>  -44.3636    1.0000 </r>
       <r>  -44.2813    1.0000 </r>
       <r>    4.2634    1.0000 </r>
       <r>    5.4682    1.0000 </r>
       <r>    6.4676    1.0000 </r>
       <r>    6.6643    1.0000 </r>
       <r>    7.1896    1.0000 </r>
       <r>    7.2439    1.0000 </r>
       <r>    8.2729    1.0000 </r>
       <r>    8.4052    1.0000 </r>
       <r>    8.8102    1.0000 </r>
       <r>    9.0701    1.0219 </r>
       <r>    9.7583    0.0040 </r>
       <r>   13.0480    0.0000 </r>
       <r>   18.1031    0.0000 </r>
       <r>   23.1677    0.0000 </r>
       <r>   24.0657    0.0000 </r>
       <r>   27.8481    0.0000 </r>
       <r>   28.7851    0.0000 </r>
       <r>   31.4414    0.0000 </r>
      </set>
      <set comment="kpoint 12">
       <r>  -44.6119    1.0000 </r>
       <r>  -44.5820    1.0000 </r>
       <r>  -44.4281    1.0000 </r>
       <r>  -44.3945    1.0000 </r>
       <r>  -44.3317    1.0000 </r>
       <r>  -44.3015    1.0000 </r>
       <r>    4.8667    1.0000 </r>
       <r>    5.2600    1.0000 </r>
       <r>    6.6826    1.0000 </r>
       <r>    6.7712    1.0000 </r>
       <r>    7.0125    1.0000 </r>
       <r>    7.2246    1.0000 </r>
       <r>    8.3128    1.0000 </r>
       <r>    8.3958    1.0000 </r>
       <r>    9.1814    1.0000 </r>
       <r>    9.5472    0.9518 </r>
       <r>    9.7289    0.0300 </r>
       <r>   11.1093    0.0000 </r>
       <r>   19.4885    0.0000 </r>
       <r>   21.1929    0.0000 </r>
       <r>   25.5955    0.0000 </r>
       <r>   27.2066    0.0000 </r>
       <r>   28.6468    0.0000 </r>
       <r>   29.8688    0.0000 </r>
      </set>
      <set comment="kpoint 13">
       <r>  -44.6447    1.0000 </r>
       <r>  -44.5891    1.0000 </r>
       <r>  -44.4420    1.0000 </r>
       <r>  -44.3791    1.0000 </r>
       <r>  -44.3307    1.0000 </r>
       <r>  -44.2743    1.0000 </r>
       <r>    4.6033    1.0000 </r>
       <r>    5.2505    1.0000 </r>
       <r>    6.4675    1.0000 </r>
       <r>    6.7903    1.0000 </r>
       <r>    7.0692    1.0000 </r>
       <r>    7.8005    1.0000 </r>
       <r>    8.3291    1.0000 </r>
       <r>    8.5824    1.0000 </r>
       <r>    8.7318    1.0000 </r>
       <r>    9.5049    0.9630 </r>
       <r>    9.8587   -0.0050 </r>
       <r>   12.6724    0.0000 </r>
       <r>   17.0750    0.0000 </r>
       <r>   20.9323    0.0000 </r>
       <r>   25.1098    0.0000 </r>
       <r>   28.2078    0.0000 </r>
       <r>   28.4080    0.0000 </r>
       <r>   30.7481    0.0000 </r>
      </set>
      <set comment="kpoint 14">
       <r>  -44.6480    1.0000 </r>
       <r>  -44.6289    1.0000 </r>
       <r>  -44.4202    1.0000 </r>
       <r>  -44.3985    1.0000 </r>
       <r>  -44.3006    1.0000 </r>
       <r>  -44.2812    1.0000 </r>
       <r>    4.8279    1.0000 </r>
       <r>    5.0277    1.0000 </r>
       <r>    6.4162    1.0000 </r>
       <r>    6.5256    1.0000 </r>
       <r>    7.6338    1.0000 </r>
       <r>    8.0158    1.0000 </r>
       <r>    8.4776    1.0000 </r>
       <r>    8.6088    1.0000 </r>
       <r>    9.2346    1.0000 </r>
       <r>    9.7477    0.3172 </r>
       <r>   10.0492    0.0000 </r>
       <r>   11.2873    0.0000 </r>
       <r>   17.6519    0.0000 </r>
       <r>   19.0562    0.0000 </r>
       <r>   26.3158    0.0000 </r>
       <r>   27.4990    0.0000 </r>
       <r>   28.8180    0.0000 </r>
       <r>   29.7265    0.0000 </r>
      </set>
      <set comment="kpoint 15">
       <r>  -44.6647    1.0000 </r>
       <r>  -44.6581    1.0000 </r>
       <r>  -44.4118    1.0000 </r>
       <r>  -44.4043    1.0000 </r>
       <r>  -44.2811    1.0000 </r>
       <r>  -44.2744    1.0000 </r>
       <r>    4.7958    1.0000 </r>
       <r>    4.8573    1.0000 </r>
       <r>    6.2869    1.0000 </r>
       <r>    6.3244    1.0000 </r>
       <r>    8.3608    1.0000 </r>
       <r>    8.5989    1.0000 </r>
       <r>    8.6199    1.0000 </r>
       <r>    8.7806    1.0000 </r>
       <r>    9.2764    1.0000 </r>
       <r>    9.7027    0.2835 </r>
       <r>   10.4352    0.0000 </r>
       <r>   10.9857    0.0000 </r>
       <r>   16.9426    0.0000 </r>
       <r>   17.5287    0.0000 </r>
       <r>   27.0343    0.0000 </r>
       <r>   27.4879    0.0000 </r>
       <r>   29.0842    0.0000 </r>
       <r>   29.4290    0.0000 </r>
      </set>
      <set comment="kpoint 16">
       <r>  -44.5643    1.0000 </r>
       <r>  -44.5643    1.0000 </r>
       <r>  -44.4553    1.0000 </r>
       <r>  -44.3996    1.0000 </r>
       <r>  -44.2882    1.0000 </r>
       <r>  -44.2882    1.0000 </r>
       <r>    2.5663    1.0000 </r>
       <r>    5.4270    1.0000 </r>
       <r>    5.4270    1.0000 </r>
       <r>    7.0366    1.0000 </r>
       <r>    7.0366    1.0000 </r>
       <r>    8.0864    1.0000 </r>
       <r>    8.1865    1.0000 </r>
       <r>    8.5287    1.0000 </r>
       <r>    8.5287    1.0000 </r>
       <r>    9.4252    0.9998 </r>
       <r>    9.4252    1.1124 </r>
       <r>   17.8410    0.0000 </r>
       <r>   17.8410    0.0000 </r>
       <r>   19.2365    0.0000 </r>
       <r>   28.7878    0.0000 </r>
       <r>   28.7878    0.0000 </r>
       <r>   29.7388    0.0000 </r>
       <r>   29.7388    0.0000 </r>
      </set>
      <set comment="kpoint 17">
       <r>  -44.5845    1.0000 </r>
       <r>  -44.5345    1.0000 </r>
       <r>  -44.4510    1.0000 </r>
       <r>  -44.4172    1.0000 </r>
       <r>  -44.3155    1.0000 </r>
       <r>  -44.2877    1.0000 </r>
       <r>    3.2651    1.0000 </r>
       <r>    5.6662    1.0000 </r>
       <r>    5.7003    1.0000 </r>
       <r>    6.9040    1.0000 </r>
       <r>    6.9353    1.0000 </r>
       <r>    7.5736    1.0000 </r>
       <r>    8.3829    1.0000 </r>
       <r>    8.5853    1.0000 </r>
       <r>    8.6832    1.0000 </r>
       <r>    8.9723    1.0000 </r>
       <r>    9.5066    0.9527 </r>
       <r>   15.4699    0.0000 </r>
       <r>   18.9549    0.0000 </r>
       <r>   19.8763    0.0000 </r>
       <r>   27.5258    0.0000 </r>
       <r>   28.5415    0.0000 </r>
       <r>   29.3034    0.0000 </r>
       <r>   30.5093    0.0000 </r>
      </set>
      <set comment="kpoint 18">
       <r>  -44.5906    1.0000 </r>
       <r>  -44.5038    1.0000 </r>
       <r>  -44.4940    1.0000 </r>
       <r>  -44.3805    1.0000 </r>
       <r>  -44.3534    1.0000 </r>
       <r>  -44.2984    1.0000 </r>
       <r>    4.1484    1.0000 </r>
       <r>    5.8196    1.0000 </r>
       <r>    5.9795    1.0000 </r>
       <r>    6.7958    1.0000 </r>
       <r>    6.9298    1.0000 </r>
       <r>    7.2682    1.0000 </r>
       <r>    8.2265    1.0000 </r>
       <r>    8.5463    1.0000 </r>
       <r>    8.8087    1.0000 </r>
       <r>    9.1284    1.0000 </r>
       <r>    9.4070    0.9272 </r>
       <r>   13.1242    0.0000 </r>
       <r>   20.3547    0.0000 </r>
       <r>   21.0646    0.0000 </r>
       <r>   25.4925    0.0000 </r>
       <r>   26.4574    0.0000 </r>
       <r>   30.1157    0.0000 </r>
       <r>   31.4555    0.0000 </r>
      </set>
      <set comment="kpoint 19">
       <r>  -44.5790    1.0000 </r>
       <r>  -44.5489    1.0000 </r>
       <r>  -44.4472    1.0000 </r>
       <r>  -44.3988    1.0000 </r>
       <r>  -44.3469    1.0000 </r>
       <r>  -44.3189    1.0000 </r>
       <r>    4.9802    1.0000 </r>
       <r>    5.5624    1.0000 </r>
       <r>    6.3106    1.0000 </r>
       <r>    6.5943    1.0000 </r>
       <r>    7.0944    1.0000 </r>
       <r>    7.2052    1.0000 </r>
       <r>    8.1542    1.0000 </r>
       <r>    8.2556    1.0000 </r>
       <r>    8.9741    1.0000 </r>
       <r>    9.1937    1.0000 </r>
       <r>    9.9047   -0.0493 </r>
       <r>   11.2097    0.0000 </r>
       <r>   21.9290    0.0000 </r>
       <r>   22.5756    0.0000 </r>
       <r>   23.6376    0.0000 </r>
       <r>   24.3857    0.0000 </r>
       <r>   31.2418    0.0000 </r>
       <r>   32.1304    0.0000 </r>
      </set>
      <set comment="kpoint 20">
       <r>  -44.5951    1.0000 </r>
       <r>  -44.5255    1.0000 </r>
       <r>  -44.4988    1.0000 </r>
       <r>  -44.3807    1.0000 </r>
       <r>  -44.3300    1.0000 </r>
       <r>  -44.2899    1.0000 </r>
       <r>    3.8863    1.0000 </r>
       <r>    5.7533    1.0000 </r>
       <r>    6.0636    1.0000 </r>
       <r>    6.6993    1.0000 </r>
       <r>    6.8480    1.0000 </r>
       <r>    7.0951    1.0000 </r>
       <r>    8.4908    1.0000 </r>
       <r>    8.6481    1.0000 </r>
       <r>    8.8037    1.0000 </r>
       <r>    9.0804    1.0000 </r>
       <r>    9.4849    0.8379 </r>
       <r>   15.5502    0.0000 </r>
       <r>   17.5336    0.0000 </r>
       <r>   20.3333    0.0000 </r>
       <r>   25.5632    0.0000 </r>
       <r>   27.9319    0.0000 </r>
       <r>   30.2207    0.0000 </r>
       <r>   30.2824    0.0000 </r>
      </set>
      <set comment="kpoint 21">
       <r>  -44.6078    1.0000 </r>
       <r>  -44.5465    1.0000 </r>
       <r>  -44.4912    1.0000 </r>
       <r>  -44.3621    1.0000 </r>
       <r>  -44.3487    1.0000 </r>
       <r>  -44.2933    1.0000 </r>
       <r>    4.5905    1.0000 </r>
       <r>    5.7252    1.0000 </r>
       <r>    6.3750    1.0000 </r>
       <r>    6.5804    1.0000 </r>
       <r>    6.9013    1.0000 </r>
       <r>    6.9071    1.0000 </r>
       <r>    8.4423    1.0000 </r>
       <r>    8.5425    1.0000 </r>
       <r>    8.7774    1.0000 </r>
       <r>    9.4403    1.0000 </r>
       <r>    9.6488    0.1950 </r>
       <r>   13.7015    0.0000 </r>
       <r>   18.2675    0.0000 </r>
       <r>   21.4245    0.0000 </r>
       <r>   23.3778    0.0000 </r>
       <r>   26.4173    0.0000 </r>
       <r>   30.0188    0.0000 </r>
       <r>   30.7692    0.0000 </r>
      </set>
      <set comment="kpoint 22">
       <r>  -44.6054    1.0000 </r>
       <r>  -44.5842    1.0000 </r>
       <r>  -44.4480    1.0000 </r>
       <r>  -44.4032    1.0000 </r>
       <r>  -44.3228    1.0000 </r>
       <r>  -44.3041    1.0000 </r>
       <r>    5.1412    1.0000 </r>
       <r>    5.5050    1.0000 </r>
       <r>    6.4602    1.0000 </r>
       <r>    6.5114    1.0000 </r>
       <r>    7.0548    1.0000 </r>
       <r>    7.0697    1.0000 </r>
       <r>    8.4032    1.0000 </r>
       <r>    8.4201    1.0000 </r>
       <r>    8.9776    1.0000 </r>
       <r>    9.2448    1.0149 </r>
       <r>   10.4635   -0.0551 </r>
       <r>   11.8104    0.0000 </r>
       <r>   19.6877    0.0000 </r>
       <r>   21.4028    0.0000 </r>
       <r>   22.8371    0.0000 </r>
       <r>   24.5273    0.0000 </r>
       <r>   30.5824    0.0000 </r>
       <r>   31.0095    0.0000 </r>
      </set>
      <set comment="kpoint 23">
       <r>  -44.6258    1.0000 </r>
       <r>  -44.5881    1.0000 </r>
       <r>  -44.4687    1.0000 </r>
       <r>  -44.3806    1.0000 </r>
       <r>  -44.3233    1.0000 </r>
       <r>  -44.2916    1.0000 </r>
       <r>    4.9328    1.0000 </r>
       <r>    5.4958    1.0000 </r>
       <r>    6.4127    1.0000 </r>
       <r>    6.5891    1.0000 </r>
       <r>    6.9878    1.0000 </r>
       <r>    7.2593    1.0000 </r>
       <r>    8.5127    1.0000 </r>
       <r>    8.5870    1.0000 </r>
       <r>    8.7372    1.0000 </r>
       <r>    9.4449    1.0068 </r>
       <r>   10.2604   -0.0186 </r>
       <r>   13.5561    0.0000 </r>
       <r>   17.1442    0.0000 </r>
       <r>   21.1504    0.0000 </r>
       <r>   22.3749    0.0000 </r>
       <r>   26.5223    0.0000 </r>
       <r>   28.2794    0.0000 </r>
       <r>   30.4806    0.0000 </r>
      </set>
      <set comment="kpoint 24">
       <r>  -44.6312    1.0000 </r>
       <r>  -44.6183    1.0000 </r>
       <r>  -44.4382    1.0000 </r>
       <r>  -44.4071    1.0000 </r>
       <r>  -44.3056    1.0000 </r>
[...]
       </set>
       <set comment="band 12">
        <r>  0.0000  0.0300  0.0020  0.0425  0.0057  0.1244  0.0039  0.0878  0.0952 </r>
        <r>  0.0000  0.0300  0.0020  0.0425  0.0057  0.1244  0.0039  0.0878  0.0952 </r>
       </set>
       <set comment="band 13">
        <r>  0.0000  0.0004  0.0003  0.0013  0.0217  0.0887  0.0806  0.0291  0.2651 </r>
        <r>  0.0000  0.0004  0.0003  0.0013  0.0217  0.0887  0.0806  0.0291  0.2651 </r>
       </set>
       <set comment="band 14">
        <r>  0.0000  0.0010  0.0011  0.0001  0.0713  0.0043  0.2651  0.0639  0.0806 </r>
        <r>  0.0000  0.0010  0.0011  0.0001  0.0713  0.0043  0.2651  0.0639  0.0806 </r>
       </set>
       <set comment="band 15">
        <r>  0.0000  0.0000  0.0000  0.0000  0.0023  0.0107  0.0438  0.0225  0.4091 </r>
        <r>  0.0000  0.0000  0.0000  0.0000  0.0023  0.0107  0.0438  0.0225  0.4091 </r>
       </set>
       <set comment="band 16">
        <r>  0.0000  0.0000  0.0000  0.0000  0.0214  0.0130  0.4091  0.0012  0.0438 </r>
        <r>  0.0000  0.0000  0.0000  0.0000  0.0214  0.0130  0.4091  0.0012  0.0438 </r>
       </set>
       <set comment="band 17">
        <r>  0.0250  0.0199  0.0199  0.0199  0.1216  0.1216  0.0000  0.1216  0.0000 </r>
        <r>  0.0250  0.0199  0.0199  0.0199  0.1216  0.1216  0.0000  0.1216  0.0000 </r>
       </set>
       <set comment="band 18">
        <r>  0.0000  0.0002  0.0836  0.0906  0.0817  0.0885  0.0385  0.0002  0.0150 </r>
        <r>  0.0000  0.0002  0.0836  0.0906  0.0817  0.0885  0.0385  0.0002  0.0150 </r>
       </set>
       <set comment="band 19">
        <r>  0.0000  0.1161  0.0326  0.0256  0.0319  0.0251  0.0150  0.1134  0.0385 </r>
        <r>  0.0000  0.1161  0.0326  0.0256  0.0319  0.0251  0.0150  0.1134  0.0385 </r>
       </set>
       <set comment="band 20">
        <r>  0.2670  0.0000  0.0000  0.0000  0.0373  0.0373  0.0000  0.0373  0.0000 </r>
        <r>  0.2670  0.0000  0.0000  0.0000  0.0373  0.0373  0.0000  0.0373  0.0000 </r>
       </set>
       <set comment="band 21">
        <r>  0.0000  0.1094  0.0519  0.0109  0.0471  0.0099  0.0097  0.0995  0.0118 </r>
        <r>  0.0000  0.1094  0.0519  0.0109  0.0471  0.0099  0.0097  0.0995  0.0118 </r>
       </set>
       <set comment="band 22">
        <r>  0.0000  0.0054  0.0630  0.1039  0.0572  0.0945  0.0118  0.0049  0.0097 </r>
        <r>  0.0000  0.0054  0.0630  0.1039  0.0572  0.0945  0.0118  0.0049  0.0097 </r>
       </set>
       <set comment="band 23">
        <r>  0.2449  0.0531  0.0531  0.0531  0.0018  0.0018  0.0000  0.0018  0.0000 </r>
        <r>  0.2449  0.0531  0.0531  0.0531  0.0018  0.0018  0.0000  0.0018  0.0000 </r>
       </set>
       <set comment="band 24">
        <r>  0.0491  0.0820  0.0820  0.0820  0.0283  0.0283  0.0000  0.0283  0.0000 </r>
        <r>  0.0491  0.0820  0.0820  0.0820  0.0283  0.0283  0.0000  0.0283  0.0000 </r>
       </set>
      </set>
      <set comment="kpoint 33">
       <set comment="band 1">
        <r>  0.0000  0.1309  0.1309  0.2343  0.0000  0.0000  0.0000  0.0000  0.0000 </r>
        <r>  0.0000  0.1309  0.1309  0.2343  0.0000  0.0000  0.0000  0.0000  0.0000 </r>
       </set>
       <set comment="band 2">
        <r>  0.0000  0.1039  0.1039  0.2884  0.0000  0.0001  0.0000  0.0000  0.0000 </r>
        <r>  0.0000  0.1039  0.1039  0.2884  0.0000  0.0001  0.0000  0.0000  0.0000 </r>
       </set>
       <set comment="band 3">
        <r>  0.0000  0.2486  0.2486  0.0000  0.0001  0.0000  0.0000  0.0001  0.0000 </r>
        <r>  0.0000  0.2486  0.2486  0.0000  0.0001  0.0000  0.0000  0.0001  0.0000 </r>
       </set>
       <set comment="band 4">
        <r>  0.0000  0.2489  0.2489  0.0000  0.0001  0.0000  0.0000  0.0001  0.0000 </r>
        <r>  0.0000  0.2489  0.2489  0.0000  0.0001  0.0000  0.0000  0.0001  0.0000 </r>
       </set>
       <set comment="band 5">
        <r>  0.0000  0.1178  0.1178  0.2630  0.0000  0.0001  0.0000  0.0000  0.0000 </r>
        <r>  0.0000  0.1178  0.1178  0.2630  0.0000  0.0001  0.0000  0.0000  0.0000 </r>
       </set>
       <set comment="band 6">
        <r>  0.0000  0.1449  0.1449  0.2089  0.0000  0.0000  0.0000  0.0000  0.0000 </r>
        <r>  0.0000  0.1449  0.1449  0.2089  0.0000  0.0000  0.0000  0.0000  0.0000 </r>
       </set>
       <set comment="band 7">
        <r>  0.0459  0.0252  0.0252  0.0113  0.1269  0.0025  0.0032  0.1269  0.0096 </r>
        <r>  0.0459  0.0252  0.0252  0.0113  0.1269  0.0025  0.0032  0.1269  0.0096 </r>
       </set>
       <set comment="band 8">
        <r>  0.0268  0.0108  0.0108  0.0011  0.1525  0.0490  0.0030  0.1525  0.0089 </r>
        <r>  0.0268  0.0108  0.0108  0.0011  0.1525  0.0490  0.0030  0.1525  0.0089 </r>
       </set>
       <set comment="band 9">
        <r>  0.0000  0.0194  0.0194  0.0000  0.1695  0.0000  0.0317  0.1695  0.0106 </r>
        <r>  0.0000  0.0194  0.0194  0.0000  0.1695  0.0000  0.0317  0.1695  0.0106 </r>
       </set>
       <set comment="band 10">
        <r>  0.0000  0.0281  0.0281  0.0000  0.1425  0.0000  0.0487  0.1425  0.0162 </r>
        <r>  0.0000  0.0281  0.0281  0.0000  0.1425  0.0000  0.0487  0.1425  0.0162 </r>
       </set>
       <set comment="band 11">
        <r>  0.0064  0.0025  0.0025  0.0523  0.0082  0.3292  0.0001  0.0082  0.0002 </r>
        <r>  0.0064  0.0025  0.0025  0.0523  0.0082  0.3292  0.0001  0.0082  0.0002 </r>
       </set>
       <set comment="band 12">
        <r>  0.0019  0.0092  0.0092  0.0634  0.0021  0.2760  0.0073  0.0021  0.0219 </r>
        <r>  0.0019  0.0092  0.0092  0.0634  0.0021  0.2760  0.0073  0.0021  0.0219 </r>
       </set>
       <set comment="band 13">
        <r>  0.0000  0.0003  0.0003  0.0000  0.0451  0.0000  0.2976  0.0451  0.0992 </r>
        <r>  0.0000  0.0003  0.0003  0.0000  0.0451  0.0000  0.2976  0.0451  0.0992 </r>
       </set>
       <set comment="band 14">
        <r>  0.0000  0.0001  0.0001  0.0000  0.0288  0.0000  0.3228  0.0288  0.1076 </r>
        <r>  0.0000  0.0001  0.0001  0.0000  0.0288  0.0000  0.3228  0.0288  0.1076 </r>
       </set>
       <set comment="band 15">
        <r>  0.0005  0.0001  0.0001  0.0006  0.0171  0.0290  0.1064  0.0171  0.3191 </r>
        <r>  0.0005  0.0001  0.0001  0.0006  0.0171  0.0290  0.1064  0.0171  0.3191 </r>
       </set>
       <set comment="band 16">
        <r>  0.0004  0.0000  0.0000  0.0001  0.0103  0.0000  0.1173  0.0103  0.3520 </r>
        <r>  0.0004  0.0000  0.0000  0.0001  0.0103  0.0000  0.1173  0.0103  0.3520 </r>
       </set>
       <set comment="band 17">
        <r>  0.0297  0.0216  0.0216  0.0427  0.0915  0.1260  0.0015  0.0915  0.0044 </r>
        <r>  0.0297  0.0216  0.0216  0.0427  0.0915  0.1260  0.0015  0.0915  0.0044 </r>
       </set>
       <set comment="band 18">
        <r>  0.0209  0.0248  0.0248  0.0800  0.0612  0.1103  0.0066  0.0612  0.0199 </r>
        <r>  0.0209  0.0248  0.0248  0.0800  0.0612  0.1103  0.0066  0.0612  0.0199 </r>
       </set>
       <set comment="band 19">
        <r>  0.0000  0.0895  0.0895  0.0000  0.0849  0.0000  0.0286  0.0849  0.0095 </r>
        <r>  0.0000  0.0895  0.0895  0.0000  0.0849  0.0000  0.0286  0.0849  0.0095 </r>
       </set>
       <set comment="band 20">
        <r>  0.2319  0.0017  0.0017  0.0348  0.0265  0.0509  0.0000  0.0265  0.0001 </r>
        <r>  0.2319  0.0017  0.0017  0.0348  0.0265  0.0509  0.0000  0.0265  0.0001 </r>
       </set>
       <set comment="band 21">
        <r>  0.0000  0.0892  0.0892  0.0000  0.0826  0.0000  0.0211  0.0826  0.0070 </r>
        <r>  0.0000  0.0892  0.0892  0.0000  0.0826  0.0000  0.0211  0.0826  0.0070 </r>
       </set>
       <set comment="band 22">
        <r>  0.1596  0.0006  0.0006  0.1012  0.0256  0.0525  0.0005  0.0256  0.0016 </r>
        <r>  0.1596  0.0006  0.0006  0.1012  0.0256  0.0525  0.0005  0.0256  0.0016 </r>
       </set>
       <set comment="band 23">
        <r>  0.1182  0.0857  0.0857  0.0170  0.0121  0.0430  0.0011  0.0121  0.0032 </r>
        <r>  0.1182  0.0857  0.0857  0.0170  0.0121  0.0430  0.0011  0.0121  0.0032 </r>
       </set>
       <set comment="band 24">
        <r>  0.0731  0.0849  0.0849  0.0489  0.0226  0.0369  0.0002  0.0226  0.0007 </r>
        <r>  0.0731  0.0849  0.0849  0.0489  0.0226  0.0369  0.0002  0.0226  0.0007 </r>
       </set>
      </set>
      <set comment="kpoint 34">
       <set comment="band 1">
        <r>  0.0000  0.2222  0.0517  0.2222  0.0000  0.0001  0.0000  0.0001  0.0000 </r>
        <r>  0.0000  0.2222  0.0517  0.2222  0.0000  0.0001  0.0000  0.0001  0.0000 </r>
       </set>
       <set comment="band 2">
        <r>  0.0000  0.2482  0.0000  0.2482  0.0000  0.0001  0.0000  0.0001  0.0000 </r>
        <r>  0.0000  0.2482  0.0000  0.2482  0.0000  0.0001  0.0000  0.0001  0.0000 </r>
       </set>
       <set comment="band 3">
        <r>  0.0000  0.0373  0.4226  0.0373  0.0001  0.0000  0.0000  0.0000  0.0000 </r>
        <r>  0.0000  0.0373  0.4226  0.0373  0.0001  0.0000  0.0000  0.0000  0.0000 </r>
       </set>
       <set comment="band 4">
        <r>  0.0000  0.0259  0.4458  0.0259  0.0001  0.0000  0.0000  0.0000  0.0000 </r>
        <r>  0.0000  0.0259  0.4458  0.0259  0.0001  0.0000  0.0000  0.0000  0.0000 </r>
       </set>
       <set comment="band 5">
        <r>  0.0000  0.2491  0.0000  0.2491  0.0000  0.0001  0.0000  0.0001  0.0000 </r>
        <r>  0.0000  0.2491  0.0000  0.2491  0.0000  0.0001  0.0000  0.0001  0.0000 </r>
       </set>
       <set comment="band 6">
        <r>  0.0000  0.2118  0.0749  0.2118  0.0000  0.0000  0.0000  0.0000  0.0000 </r>
        <r>  0.0000  0.2118  0.0749  0.2118  0.0000  0.0000  0.0000  0.0000  0.0000 </r>
       </set>
       <set comment="band 7">
        <r>  0.0191  0.0005  0.0314  0.0005  0.2658  0.0362  0.0218  0.0362  0.0000 </r>
        <r>  0.0191  0.0005  0.0314  0.0005  0.2658  0.0362  0.0218  0.0362  0.0000 </r>
       </set>
       <set comment="band 8">
        <r>  0.0234  0.0027  0.0441  0.0027  0.2943  0.0011  0.0273  0.0011  0.0000 </r>
        <r>  0.0234  0.0027  0.0441  0.0027  0.2943  0.0011  0.0273  0.0011  0.0000 </r>
       </set>
       <set comment="band 9">
        <r>  0.0000  0.0139  0.0000  0.0139  0.0000  0.2001  0.0000  0.2001  0.0032 </r>
        <r>  0.0000  0.0139  0.0000  0.0139  0.0000  0.2001  0.0000  0.2001  0.0032 </r>
       </set>
       <set comment="band 10">
        <r>  0.0001  0.0137  0.0131  0.0137  0.0406  0.1615  0.0168  0.1615  0.0000 </r>
        <r>  0.0001  0.0137  0.0131  0.0137  0.0406  0.1615  0.0168  0.1615  0.0000 </r>
       </set>
       <set comment="band 11">
        <r>  0.0048  0.0441  0.0000  0.0441  0.0144  0.1385  0.0039  0.1385  0.0000 </r>
        <r>  0.0048  0.0441  0.0000  0.0441  0.0144  0.1385  0.0039  0.1385  0.0000 </r>
       </set>
       <set comment="band 12">
        <r>  0.0000  0.0468  0.0000  0.0468  0.0000  0.1399  0.0000  0.1399  0.0134 </r>
        <r>  0.0000  0.0468  0.0000  0.0468  0.0000  0.1399  0.0000  0.1399  0.0134 </r>
       </set>
       <set comment="band 13">
        <r>  0.0003  0.0000  0.0002  0.0000  0.0502  0.0026  0.4336  0.0026  0.0000 </r>
        <r>  0.0003  0.0000  0.0002  0.0000  0.0502  0.0026  0.4336  0.0026  0.0000 </r>
       </set>
       <set comment="band 14">
        <r>  0.0002  0.0000  0.0001  0.0000  0.0427  0.0008  0.4450  0.0008  0.0000 </r>
        <r>  0.0002  0.0000  0.0001  0.0000  0.0427  0.0008  0.4450  0.0008  0.0000 </r>
       </set>
       <set comment="band 15">
        <r>  0.0000  0.0001  0.0000  0.0001  0.0000  0.0101  0.0000  0.0101  0.4705 </r>
        <r>  0.0000  0.0001  0.0000  0.0001  0.0000  0.0101  0.0000  0.0101  0.4705 </r>
       </set>
       <set comment="band 16">
        <r>  0.0000  0.0000  0.0000  0.0000  0.0000  0.0022  0.0000  0.0022  0.4866 </r>
        <r>  0.0000  0.0000  0.0000  0.0000  0.0000  0.0022  0.0000  0.0022  0.4866 </r>
       </set>
       <set comment="band 17">
        <r>  0.0247  0.0519  0.0134  0.0519  0.0493  0.1095  0.0012  0.1095  0.0000 </r>
        <r>  0.0247  0.0519  0.0134  0.0519  0.0493  0.1095  0.0012  0.1095  0.0000 </r>
       </set>
       <set comment="band 18">
        <r>  0.0000  0.0794  0.0000  0.0794  0.0000  0.1149  0.0000  0.1149  0.0083 </r>
        <r>  0.0000  0.0794  0.0000  0.0794  0.0000  0.1149  0.0000  0.1149  0.0083 </r>
       </set>
       <set comment="band 19">
        <r>  0.0989  0.0059  0.0801  0.0059  0.1796  0.0017  0.0206  0.0017  0.0000 </r>
        <r>  0.0989  0.0059  0.0801  0.0059  0.1796  0.0017  0.0206  0.0017  0.0000 </r>
       </set>
       <set comment="band 20">
        <r>  0.0891  0.0268  0.0583  0.0268  0.1384  0.0142  0.0157  0.0142  0.0000 </r>
        <r>  0.0891  0.0268  0.0583  0.0268  0.1384  0.0142  0.0157  0.0142  0.0000 </r>
       </set>
       <set comment="band 21">
        <r>  0.1381  0.0378  0.0331  0.0378  0.0002  0.0587  0.0033  0.0587  0.0000 </r>
        <r>  0.1381  0.0378  0.0331  0.0378  0.0002  0.0587  0.0033  0.0587  0.0000 </r>
       </set>
       <set comment="band 22">
        <r>  0.0000  0.0873  0.0000  0.0873  0.0000  0.0867  0.0000  0.0867  0.0026 </r>
        <r>  0.0000  0.0873  0.0000  0.0873  0.0000  0.0867  0.0000  0.0867  0.0026 </r>
       </set>
       <set comment="band 23">
        <r>  0.2257  0.0023  0.1334  0.0023  0.0182  0.0013  0.0047  0.0013  0.0000 </r>
        <r>  0.2257  0.0023  0.1334  0.0023  0.0182  0.0013  0.0047  0.0013  0.0000 </r>
       </set>
       <set comment="band 24">
        <r>  0.1096  0.0462  0.0933  0.0462  0.0206  0.0284  0.0014  0.0284  0.0000 </r>
        <r>  0.1096  0.0462  0.0933  0.0462  0.0206  0.0284  0.0014  0.0284  0.0000 </r>
       </set>
      </set>
      <set comment="kpoint 35">
       <set comment="band 1">
        <r>  0.0000  0.1655  0.1655  0.1655  0.0000  0.0000  0.0000  0.0000  0.0000 </r>
        <r>  0.0000  0.1655  0.1655  0.1655  0.0000  0.0000  0.0000  0.0000  0.0000 </r>
       </set>
       <set comment="band 2">
        <r>  0.0000  0.3197  0.1277  0.0496  0.0000  0.0000  0.0000  0.0001  0.0000 </r>
        <r>  0.0000  0.3197  0.1277  0.0496  0.0000  0.0000  0.0000  0.0001  0.0000 </r>
       </set>
       <set comment="band 3">
        <r>  0.0000  0.0116  0.2036  0.2817  0.0001  0.0001  0.0000  0.0000  0.0000 </r>
        <r>  0.0000  0.0116  0.2036  0.2817  0.0001  0.0001  0.0000  0.0000  0.0000 </r>
       </set>
       <set comment="band 4">
        <r>  0.0000  0.2807  0.2098  0.0071  0.0001  0.0000  0.0000  0.0001  0.0000 </r>
        <r>  0.0000  0.2807  0.2098  0.0071  0.0001  0.0000  0.0000  0.0001  0.0000 </r>
       </set>
       <set comment="band 5">
        <r>  0.0000  0.0510  0.1220  0.3246  0.0000  0.0001  0.0000  0.0000  0.0000 </r>
        <r>  0.0000  0.0510  0.1220  0.3246  0.0000  0.0001  0.0000  0.0000  0.0000 </r>
       </set>
       <set comment="band 6">
        <r>  0.0000  0.1660  0.1660  0.1660  0.0000  0.0000  0.0000  0.0000  0.0000 </r>
        <r>  0.0000  0.1660  0.1660  0.1660  0.0000  0.0000  0.0000  0.0000  0.0000 </r>
       </set>
       <set comment="band 7">
        <r>  0.0055  0.0117  0.0117  0.0117  0.1269  0.1269  0.0000  0.1269  0.0000 </r>
        <r>  0.0055  0.0117  0.0117  0.0117  0.1269  0.1269  0.0000  0.1269  0.0000 </r>
       </set>
       <set comment="band 8">
        <r>  0.0000  0.0253  0.0195  0.0007  0.1572  0.0056  0.0033  0.2042  0.0019 </r>
        <r>  0.0000  0.0253  0.0195  0.0007  0.1572  0.0056  0.0033  0.2042  0.0019 </r>
       </set>
       <set comment="band 9">
        <r>  0.0000  0.0050  0.0108  0.0297  0.0874  0.2391  0.0019  0.0405  0.0033 </r>
        <r>  0.0000  0.0050  0.0108  0.0297  0.0874  0.2391  0.0019  0.0405  0.0033 </r>
       </set>
       <set comment="band 10">
        <r>  0.0089  0.0261  0.0261  0.0261  0.1011  0.1011  0.0000  0.1011  0.0000 </r>
        <r>  0.0089  0.0261  0.0261  0.0261  0.1011  0.1011  0.0000  0.1011  0.0000 </r>
       </set>
       <set comment="band 11">
        <r>  0.0000  0.0097  0.0446  0.0132  0.2165  0.0641  0.0081  0.0470  0.0001 </r>
        <r>  0.0000  0.0097  0.0446  0.0132  0.2165  0.0641  0.0081  0.0470  0.0001 </r>
       </set>
       <set comment="band 12">
        <r>  0.0000  0.0353  0.0004  0.0318  0.0019  0.1543  0.0001  0.1714  0.0081 </r>
        <r>  0.0000  0.0353  0.0004  0.0318  0.0019  0.1543  0.0001  0.1714  0.0081 </r>
       </set>
       <set comment="band 13">
        <r>  0.0000  0.0000  0.0000  0.0000  0.0006  0.0071  0.0338  0.0042  0.4454 </r>
        <r>  0.0000  0.0000  0.0000  0.0000  0.0006  0.0071  0.0338  0.0042  0.4454 </r>
       </set>
       <set comment="band 14">
        <r>  0.0000  0.0000  0.0000  0.0000  0.0074  0.0008  0.4454  0.0037  0.0338 </r>
        <r>  0.0000  0.0000  0.0000  0.0000  0.0074  0.0008  0.4454  0.0037  0.0338 </r>
       </set>
       <set comment="band 15">
        <r>  0.0000  0.0000  0.0000  0.0000  0.0040  0.0027  0.3958  0.0007  0.0881 </r>
        <r>  0.0000  0.0000  0.0000  0.0000  0.0040  0.0027  0.3958  0.0007  0.0881 </r>
       </set>
       <set comment="band 16">
        <r>  0.0000  0.0000  0.0000  0.0000  0.0009  0.0022  0.0881  0.0042  0.3958 </r>
        <r>  0.0000  0.0000  0.0000  0.0000  0.0009  0.0022  0.0881  0.0042  0.3958 </r>
       </set>
       <set comment="band 17">
        <r>  0.0277  0.0451  0.0451  0.0451  0.0781  0.0781  0.0000  0.0781  0.0000 </r>
        <r>  0.0277  0.0451  0.0451  0.0451  0.0781  0.0781  0.0000  0.0781  0.0000 </r>
       </set>
       <set comment="band 18">
        <r>  0.0000  0.0177  0.1128  0.0413  0.1368  0.0501  0.0052  0.0214  0.0001 </r>
        <r>  0.0000  0.0177  0.1128  0.0413  0.1368  0.0501  0.0052  0.0214  0.0001 </r>
       </set>
       <set comment="band 19">
        <r>  0.0000  0.0969  0.0017  0.0732  0.0021  0.0888  0.0001  0.1175  0.0052 </r>
        <r>  0.0000  0.0969  0.0017  0.0732  0.0021  0.0888  0.0001  0.1175  0.0052 </r>
       </set>
       <set comment="band 20">
        <r>  0.1931  0.0188  0.0188  0.0188  0.0421  0.0421  0.0000  0.0421  0.0000 </r>
        <r>  0.1931  0.0188  0.0188  0.0188  0.0421  0.0421  0.0000  0.0421  0.0000 </r>
       </set>
       <set comment="band 21">
        <r>  0.0000  0.0016  0.0995  0.0757  0.1075  0.0819  0.0030  0.0018  0.0006 </r>
        <r>  0.0000  0.0016  0.0995  0.0757  0.1075  0.0819  0.0030  0.0018  0.0006 </r>
       </set>
       <set comment="band 22">
        <r>  0.0000  0.1163  0.0184  0.0422  0.0199  0.0456  0.0006  0.1257  0.0030 </r>
        <r>  0.0000  0.1163  0.0184  0.0422  0.0199  0.0456  0.0006  0.1257  0.0030 </r>
       </set>
       <set comment="band 23">
        <r>  0.3402  0.0133  0.0133  0.0133  0.0007  0.0007  0.0000  0.0007  0.0000 </r>
        <r>  0.3402  0.0133  0.0133  0.0133  0.0007  0.0007  0.0000  0.0007  0.0000 </r>
       </set>
       <set comment="band 24">
        <r>  0.1776  0.0433  0.0433  0.0433  0.0226  0.0226  0.0000  0.0226  0.0000 </r>
        <r>  0.1776  0.0433  0.0433  0.0433  0.0226  0.0226  0.0000  0.0226  0.0000 </r>
       </set>
      </set>
     </set>
    </set>
   </array>
  </projected>
 </calculation>
 <structure name="finalpos" >
  <crystal>
   <varray name="basis" >
    <v>       2.84005200       0.00000000       0.00000000 </v>
    <v>       0.00000000       2.84005200       0.00000000 </v>
    <v>       0.00000000       0.00000000       2.84005200 </v>
   </varray>
   <i name="volume">     22.90756226 </i>
   <varray name="rec_basis" >
    <v>       0.35210623       0.00000000       0.00000000 </v>
    <v>       0.00000000       0.35210623       0.00000000 </v>
    <v>       0.00000000       0.00000000       0.35210623 </v>
   </varray>
  </crystal>
  <varray name="positions" >
   <v>       0.00000000       0.00000000       0.00000000 </v>
   <v>       0.50000000       0.50000000       0.50000000 </v>
  </varray>
 </structure>
</modeling>
