=========================================
SLURM_JOB_ID = 51706452
SLURM_JOB_NODELIST = lnode50
SLURM_GPUS = 
SLURM_CPUS_ON_NODE = 24
SLURM_JOB_PARTITION = lenovo
SLURM_TASK_PID = 1335086
CUDA_VISIBLE_DEVICES = 
==========================================
 running on   24 total cores
 distrk:  each k-point on   24 cores,    1 groups
 distr:  one band on    4 cores,    6 groups
 using from now: INCAR     
 vasp.5.4.4.18Apr17-6-g9f103f2a35 (build Apr 28 2018 00:24:27) complex          
  
 POSCAR found type information on POSCAR  Fe O 
 POSCAR found :  2 types and      30 ions
 scaLAPACK will be used
 LDA part: xc-table for Pade appr. of Perdew
 POSCAR, INCAR and KPOINTS ok, starting setup
 FFT: planning ...
 WAVECAR not read
 entering main loop
       N       E                     dE             d eps       ncg     rms          rms(c)
DAV:   1     0.499412852522E+04    0.49941E+04   -0.17928E+05 11436   0.250E+03
DAV:   2     0.626992765888E+03   -0.43671E+04   -0.39977E+04 11424   0.677E+02
DAV:   3    -0.228197989195E+03   -0.85519E+03   -0.73942E+03 11820   0.278E+02
DAV:   4    -0.293743672487E+03   -0.65546E+02   -0.64731E+02 12900   0.742E+01
DAV:   5    -0.294516596457E+03   -0.77292E+00   -0.77051E+00 12768   0.907E+00    0.809E+01
DAV:   6    -0.235289136565E+03    0.59227E+02   -0.25295E+02 14796   0.811E+01    0.912E+01
DAV:   7    -0.212051582293E+03    0.23238E+02   -0.11427E+02 12216   0.636E+01    0.437E+01
DAV:   8    -0.218320670095E+03   -0.62691E+01   -0.21409E+01 12108   0.172E+01    0.265E+01
DAV:   9    -0.222508561100E+03   -0.41879E+01   -0.82121E+00 12576   0.170E+01    0.271E+01
DAV:  10    -0.222173258892E+03    0.33530E+00   -0.24536E+00 12564   0.690E+00    0.186E+01
DAV:  11    -0.221610482831E+03    0.56278E+00   -0.22729E-01 14352   0.281E+00    0.122E+01
DAV:  12    -0.221408140650E+03    0.20234E+00   -0.19534E-01 15204   0.240E+00    0.843E+00
DAV:  13    -0.221406978598E+03    0.11621E-02   -0.11262E-01 13932   0.225E+00    0.467E+00
DAV:  14    -0.221451293343E+03   -0.44315E-01   -0.15401E-01 14940   0.200E+00    0.181E+00
DAV:  15    -0.221469410386E+03   -0.18117E-01   -0.62676E-02 12708   0.675E-01    0.144E+00
DAV:  16    -0.221464308612E+03    0.51018E-02   -0.90916E-03 14292   0.708E-01    0.379E-01
DAV:  17    -0.221464933979E+03   -0.62537E-03   -0.48150E-03 12468   0.181E-01    0.194E-01
DAV:  18    -0.221465172272E+03   -0.23829E-03   -0.25204E-04 14028   0.825E-02    0.865E-02
DAV:  19    -0.221465228899E+03   -0.56628E-04   -0.10178E-04 13740   0.427E-02    0.175E-02
DAV:  20    -0.221465237315E+03   -0.84159E-05   -0.21902E-05 12456   0.145E-02    0.896E-03
DAV:  21    -0.221465235494E+03    0.18211E-05   -0.23221E-06 12624   0.845E-03    0.112E-02
DAV:  22    -0.221465236623E+03   -0.11286E-05   -0.10472E-06 10764   0.530E-03    0.516E-03
DAV:  23    -0.221465236647E+03   -0.24607E-07   -0.29422E-07  9792   0.316E-03
   1 F= -.22146524E+03 E0= -.22146524E+03  d E =0.000000E+00  mag=    42.3374
