 vasp.5.4.4.18Apr17-6-g9f103f2a35 (build Apr 28 2018 00:24:27) complex          
  
 executed on             LinuxIFC date 2021.09.06  03:42:22
 running on   24 total cores
 distrk:  each k-point on   24 cores,    1 groups
 distr:  one band on NCORES_PER_BAND=   4 cores,    6 groups


--------------------------------------------------------------------------------------------------------


 INCAR:
 POTCAR:    PAW_PBE Fe_pv 02Aug2007               
 POTCAR:    PAW_PBE O 08Apr2002                   
 POTCAR:    PAW_PBE Fe_pv 02Aug2007               
   VRHFIN =Fe:  3pd7s1                                                          
   LEXCH  = PE                                                                  
   EATOM  =  2457.4239 eV,  180.6156 Ry                                         
                                                                                
   TITEL  = PAW_PBE Fe_pv 02Aug2007                                             
   LULTRA =        F    use ultrasoft PP ?                                      
   IUNSCR =        1    unscreen: 0-lin 1-nonlin 2-no                           
   RPACOR =    1.750    partial core radius                                     
   POMASS =   55.847; ZVAL   =   14.000    mass and valenz                      
   RCORE  =    2.200    outmost cutoff radius                                   
   RWIGS  =    2.200; RWIGS  =    1.164    wigner-seitz radius (au A)           
   ENMAX  =  293.238; ENMIN  =  219.928 eV                                      
   ICORE  =        3    local potential                                         
   LCOR   =        T    correct aug charges                                     
   LPAW   =        T    paw PP                                                  
   EAUG   =  578.342                                                            
   DEXC   =    0.000                                                            
   RMAX   =    2.249    core radius for proj-oper                               
   RAUG   =    1.300    factor for augmentation sphere                          
   RDEP   =    2.296    radius for radial grids                                 
   RDEPT  =    1.766    core radius for aug-charge                              
                                                                                
   Atomic configuration                                                         
    8 entries                                                                   
     n  l   j            E        occ.                                          
     1  0  0.50     -6993.8440   2.0000                                         
     2  0  0.50      -814.6047   2.0000                                         
     2  1  1.50      -693.3689   6.0000                                         
     3  0  0.50       -89.4732   2.0000                                         
     3  1  1.50       -55.6373   6.0000                                         
     3  2  2.50        -3.8151   7.0000                                         
     4  0  0.50        -4.2551   1.0000                                         
     4  3  2.50        -1.3606   0.0000                                         
   Description                                                                  
     l       E           TYP  RCUT    TYP  RCUT                                 
     1    -55.6372668     23  2.000                                             
     1     -5.4423304     23  2.000                                             
     2     -3.8151096     23  2.200                                             
     2     -5.1756922     23  2.200                                             
     0     -4.2550951     23  2.200                                             
     0     27.2116520     23  2.200                                             
     3     -1.3605826     23  2.200                                             
  local pseudopotential read in
  partial core-charges read in
  partial kinetic energy density read in
  atomic valenz-charges read in
  non local Contribution for L=           1  read in
    real space projection operators read in
  non local Contribution for L=           1  read in
    real space projection operators read in
  non local Contribution for L=           2  read in
    real space projection operators read in
  non local Contribution for L=           2  read in
    real space projection operators read in
  non local Contribution for L=           0  read in
    real space projection operators read in
  non local Contribution for L=           0  read in
    real space projection operators read in
    PAW grid and wavefunctions read in
 
   number of l-projection  operators is LMAX  =           6
   number of lm-projection operators is LMMAX =          18
 
 POTCAR:    PAW_PBE O 08Apr2002                   
   VRHFIN =O: s2p4                                                              
   LEXCH  = PE                                                                  
   EATOM  =   432.3788 eV,   31.7789 Ry                                         
                                                                                
   TITEL  = PAW_PBE O 08Apr2002                                                 
   LULTRA =        F    use ultrasoft PP ?                                      
   IUNSCR =        1    unscreen: 0-lin 1-nonlin 2-no                           
   RPACOR =    1.200    partial core radius                                     
   POMASS =   16.000; ZVAL   =    6.000    mass and valenz                      
   RCORE  =    1.520    outmost cutoff radius                                   
   RWIGS  =    1.550; RWIGS  =    0.820    wigner-seitz radius (au A)           
   ENMAX  =  400.000; ENMIN  =  300.000 eV                                      
   ICORE  =        2    local potential                                         
   LCOR   =        T    correct aug charges                                     
   LPAW   =        T    paw PP                                                  
   EAUG   =  605.392                                                            
   DEXC   =    0.000                                                            
   RMAX   =    1.553    core radius for proj-oper                               
   RAUG   =    1.300    factor for augmentation sphere                          
   RDEP   =    1.550    radius for radial grids                                 
   RDEPT  =    1.329    core radius for aug-charge                              
                                                                                
   Atomic configuration                                                         
    4 entries                                                                   
     n  l   j            E        occ.                                          
     1  0  0.50      -514.6923   2.0000                                         
     2  0  0.50       -23.9615   2.0000                                         
     2  1  0.50        -9.0305   4.0000                                         
     3  2  1.50        -9.5241   0.0000                                         
   Description                                                                  
     l       E           TYP  RCUT    TYP  RCUT                                 
     0    -23.9615318     23  1.200                                             
     0     -9.5240782     23  1.200                                             
     1     -9.0304911     23  1.520                                             
     1      8.1634956     23  1.520                                             
     2     -9.5240782      7  1.500                                             
  local pseudopotential read in
  partial core-charges read in
  partial kinetic energy density read in
  kinetic energy density of atom read in
  atomic valenz-charges read in
  non local Contribution for L=           0  read in
    real space projection operators read in
  non local Contribution for L=           0  read in
    real space projection operators read in
  non local Contribution for L=           1  read in
    real space projection operators read in
  non local Contribution for L=           1  read in
    real space projection operators read in
    PAW grid and wavefunctions read in
 
   number of l-projection  operators is LMAX  =           4
   number of lm-projection operators is LMMAX =           8
 
 Optimization of the real space projectors (new method)

 maximal supplied QI-value         = 17.01
 optimisation between [QCUT,QGAM] = [ 14.63, 29.25] = [ 59.91,239.63] Ry 
 Optimized for a Real-space Cutoff    1.30 Angstroem

   l    n(q)    QCUT    max X(q) W(low)/X(q) W(high)/X(q)  e(spline) 
   1     11    14.626     4.267    0.58E-04    0.63E-04    0.79E-06
   1     11    14.626     5.750    0.85E-04    0.10E-03    0.12E-05
   2     10    14.626    53.656    0.11E-03    0.16E-04    0.40E-06
   2     10    14.626    49.521    0.11E-03    0.16E-04    0.41E-06
   0     11    14.626    31.246    0.28E-04    0.97E-05    0.47E-06
   0     11    14.626    12.201    0.23E-04    0.81E-05    0.39E-06
 Optimization of the real space projectors (new method)

 maximal supplied QI-value         = 24.76
 optimisation between [QCUT,QGAM] = [ 14.61, 29.21] = [ 59.74,238.95] Ry 
 Optimized for a Real-space Cutoff    0.99 Angstroem

   l    n(q)    QCUT    max X(q) W(low)/X(q) W(high)/X(q)  e(spline) 
   0      9    14.606    20.381    0.48E-04    0.15E-03    0.11E-06
   0      9    14.606    15.268    0.51E-04    0.16E-03    0.12E-06
   1      8    14.606     5.964    0.13E-03    0.83E-04    0.14E-06
   1      8    14.606     5.382    0.12E-03    0.64E-04    0.12E-06
  PAW_PBE Fe_pv 02Aug2007               :
 energy of atom  1       EATOM=-2457.4239
 kinetic energy error for atom=    0.0011 (will be added to EATOM!!)
  PAW_PBE O 08Apr2002                   :
 energy of atom  2       EATOM= -432.3788
 kinetic energy error for atom=    0.0036 (will be added to EATOM!!)
 
 
 POSCAR: Fe12 O18                                
  positions in direct lattice
  No initial velocities read in
 exchange correlation table for  LEXCH =        8
   RHO(1)=    0.500       N(1)  =     2000
   RHO(2)=  100.500       N(2)  =     4000
 


--------------------------------------------------------------------------------------------------------


 ion  position               nearest neighbor table
   1  0.000  0.000  0.355-  17 1.94  23 1.94  28 1.94  25 2.12  19 2.12  13 2.12
   2  0.000  0.000  0.645-  16 1.94  22 1.94  29 1.94  26 2.12  20 2.12  14 2.12
   3  0.333  0.667  0.022-  30 1.94  24 1.94  18 1.94  27 2.12  21 2.12  15 2.12
   4  0.667  0.333  0.689-  14 1.94  20 1.94  26 1.94  22 2.12  29 2.12  16 2.12
   5  0.333  0.667  0.311-  13 1.94  19 1.94  25 1.94  23 2.12  28 2.12  17 2.12
   6  0.667  0.333  0.978-  27 1.94  21 1.94  15 1.94  30 2.12  24 2.12  18 2.12
   7  0.000  0.000  0.145-  24 1.94  18 1.94  30 1.94  25 2.12  19 2.12  13 2.12
   8  0.000  0.000  0.855-  21 1.94  15 1.94  27 1.94  26 2.12  20 2.12  14 2.12
   9  0.333  0.667  0.811-  20 1.94  14 1.94  26 1.94  27 2.12  21 2.12  15 2.12
  10  0.333  0.667  0.522-  29 1.94  16 1.94  22 1.94  23 2.12  28 2.12  17 2.12
  11  0.667  0.333  0.478-  28 1.94  17 1.94  23 1.94  22 2.12  29 2.12  16 2.12
  12  0.667  0.333  0.189-  19 1.94  13 1.94  25 1.94  30 2.12  24 2.12  18 2.12
  13  0.306  0.000  0.250-   5 1.94  12 1.94   7 2.12   1 2.12
  14  0.694  0.000  0.750-   4 1.94   9 1.94   8 2.12   2 2.12
  15  0.640  0.667  0.917-   6 1.94   8 1.94   9 2.12   3 2.12
  16  0.973  0.333  0.583-  10 1.94   2 1.94   4 2.12  11 2.12
  17  0.027  0.667  0.417-  11 1.94   1 1.94   5 2.12  10 2.12
  18  0.360  0.333  0.083-   3 1.94   7 1.94  12 2.12   6 2.12
  19  0.000  0.306  0.250-  12 1.94   5 1.94   7 2.12   1 2.12
  20  0.000  0.694  0.750-   9 1.94   4 1.94   8 2.12   2 2.12
  21  0.333  0.973  0.917-   6 1.94   8 1.94   9 2.12   3 2.12
  22  0.667  0.640  0.583-  10 1.94   2 1.94   4 2.12  11 2.12
  23  0.333  0.360  0.417-  11 1.94   1 1.94   5 2.12  10 2.12
  24  0.667  0.027  0.083-   3 1.94   7 1.94  12 2.12   6 2.12
  25  0.694  0.694  0.250-  12 1.94   5 1.94   7 2.12   1 2.12
  26  0.306  0.306  0.750-   9 1.94   4 1.94   8 2.12   2 2.12
  27  0.027  0.360  0.917-   6 1.94   8 1.94   9 2.12   3 2.12
  28  0.640  0.973  0.417-  11 1.94   1 1.94   5 2.12  10 2.12
  29  0.360  0.027  0.583-  10 1.94   2 1.94   4 2.12  11 2.12
  30  0.973  0.640  0.083-   3 1.94   7 1.94  12 2.12   6 2.12
 
  LATTYP: Found a hexagonal cell.
 ALAT       =     5.0350995578
 C/A-ratio  =     2.7324385232
  
  Lattice vectors:
  
 A1 = (   5.0351000000,   0.0000000000,   0.0000000000)
 A2 = (  -2.5175500000,   4.3605240000,   0.0000000000)
 A3 = (   0.0000000000,   0.0000000000,  13.7581000000)


Analysis of symmetry for initial positions (statically):
=====================================================================
 Subroutine PRICEL returns following result:
 
  LATTYP: Found a trigonal (rhomboedric) cell.
 ALAT       =     5.4297801492
 COS(alpha) =     0.5700456062
  
  Lattice vectors:
  
 A1 = (  -2.5175449649,  -1.4535109070,  -4.5860425054)
 A2 = (  -0.0000025175,   2.9070174535,  -4.5860287473)
 A3 = (   2.5175474825,  -1.4535065465,  -4.5860287473)
 
   3 primitive cells build up your supercell.
 

 Routine SETGRP: Setting up the symmetry group for a 
 hexagonal supercell.


 Subroutine GETGRP returns: Found 12 space group operations
 (whereof  6 operations were pure point group operations)
 out of a pool of 24 trial point group operations.


The static configuration has the point symmetry S_6 .
 The point group associated with its full space group is D_3d.


Analysis of symmetry for dynamics (positions and initial velocities):
=====================================================================
 Subroutine PRICEL returns following result:
 
  LATTYP: Found a trigonal (rhomboedric) cell.
 ALAT       =     5.4297801492
 COS(alpha) =     0.5700456062
  
  Lattice vectors:
  
 A1 = (  -2.5175449649,  -1.4535109070,  -4.5860425054)
 A2 = (  -0.0000025175,   2.9070174535,  -4.5860287473)
 A3 = (   2.5175474825,  -1.4535065465,  -4.5860287473)
 
   3 primitive cells build up your supercell.
 

 Routine SETGRP: Setting up the symmetry group for a 
 hexagonal supercell.


 Subroutine GETGRP returns: Found 12 space group operations
 (whereof  6 operations were pure point group operations)
 out of a pool of 24 trial point group operations.


The dynamic configuration has the point symmetry S_6 .
 The point group associated with its full space group is D_3d.


Analysis of structural, dynamic, and magnetic symmetry:
=====================================================================
 Subroutine PRICEL returns following result:
 
  LATTYP: Found a trigonal (rhomboedric) cell.
 ALAT       =     5.4297801492
 COS(alpha) =     0.5700456062
  
  Lattice vectors:
  
 A1 = (  -2.5175449649,  -1.4535109070,  -4.5860425054)
 A2 = (  -0.0000025175,   2.9070174535,  -4.5860287473)
 A3 = (   2.5175474825,  -1.4535065465,  -4.5860287473)
 
   3 primitive cells build up your supercell.
 

 Routine SETGRP: Setting up the symmetry group for a 
 hexagonal supercell.


 Subroutine GETGRP returns: Found 12 space group operations
 (whereof  6 operations were pure point group operations)
 out of a pool of 24 trial point group operations.


The magnetic configuration has the point symmetry S_6 .
 The point group associated with its full space group is D_3d.


 Subroutine INISYM returns: Found 12 space group operations
 (whereof  6 operations are pure point group operations),
 and found     3 'primitive' translations

 
 
 KPOINTS: pymatgen with grid density = 2464 / numb

Automatic generation of k-mesh.
Space group operators:
 irot       det(A)        alpha          n_x          n_y          n_z        tau_x        tau_y        tau_z
    1     1.000000     0.000000     1.000000     0.000000     0.000000     0.000000     0.000000     0.000000
    2    -1.000000     0.000000     1.000000     0.000000     0.000000     0.000000     0.000000     0.000000
    3     1.000000   120.000000     0.000000     0.000000    -1.000000     0.000000     0.000000     0.000000
    4    -1.000000   120.000000     0.000000     0.000000    -1.000000     0.000000     0.000000     0.000000
    5     1.000000   120.000000     0.000000     0.000000     1.000000     0.000000     0.000000     0.000000
    6    -1.000000   120.000000     0.000000     0.000000     1.000000     0.000000     0.000000     0.000000
    7     1.000000   180.000000     1.000000     0.000000     0.000000     0.000001    -0.000000    -0.500000
    8    -1.000000   180.000000     1.000000     0.000000     0.000000     0.000001    -0.000000    -0.500000
    9     1.000000   180.000000     0.500000    -0.866025     0.000000     0.000000     0.000000    -0.500000
   10    -1.000000   180.000000     0.500000    -0.866025     0.000000     0.000000     0.000000    -0.500000
   11     1.000000   180.000000    -0.500000    -0.866025     0.000000     0.000000     0.000000    -0.500000
   12    -1.000000   180.000000    -0.500000    -0.866025     0.000000     0.000000     0.000000    -0.500000
 
 Subroutine IBZKPT returns following result:
 ===========================================
 
 Found     14 irreducible k-points:
 
 Following reciprocal coordinates:
            Coordinates               Weight
  0.000000  0.000000  0.000000      1.000000
  0.166667  0.000000  0.000000      6.000000
  0.333333  0.000000  0.000000      6.000000
  0.500000  0.000000  0.000000      3.000000
  0.166667  0.166667  0.000000      6.000000
  0.333333  0.166667  0.000000     12.000000
  0.333333  0.333333  0.000000      2.000000
  0.000000  0.000000  0.500000      1.000000
  0.166667  0.000000  0.500000      6.000000
  0.333333  0.000000  0.500000      6.000000
  0.500000  0.000000  0.500000      3.000000
  0.166667  0.166667  0.500000      6.000000
  0.333333  0.166667  0.500000     12.000000
  0.333333  0.333333  0.500000      2.000000
 
 Following cartesian coordinates:
            Coordinates               Weight
  0.000000  0.000000  0.000000      1.000000
  0.033101  0.019111  0.000000      6.000000
  0.066202  0.038222  0.000000      6.000000
  0.099303  0.057333  0.000000      3.000000
  0.033101  0.057333  0.000000      6.000000
  0.066202  0.076443  0.000000     12.000000
  0.066202  0.114665  0.000000      2.000000
  0.000000  0.000000  0.036342      1.000000
  0.033101  0.019111  0.036342      6.000000
  0.066202  0.038222  0.036342      6.000000
  0.099303  0.057333  0.036342      3.000000
  0.033101  0.057333  0.036342      6.000000
  0.066202  0.076443  0.036342     12.000000
  0.066202  0.114665  0.036342      2.000000
 
 TETIRR: Found     71 inequivalent tetrahedra from      432


--------------------------------------------------------------------------------------------------------




 Dimension of arrays:
   k-points           NKPTS =     14   k-points in BZ     NKDIM =     14   number of bands    NBANDS=    204
   number of dos      NEDOS =    301   number of ions     NIONS =     30
   non local maximal  LDIM  =      6   non local SUM 2l+1 LMDIM =     18
   total plane-waves  NPLWV = 294912
   max r-space proj   IRMAX =   8948   max aug-charges    IRDMAX=  29111
   dimension x,y,z NGX =    48 NGY =   48 NGZ =  128
   dimension x,y,z NGXF=    96 NGYF=   96 NGZF=  256
   support grid    NGXF=    96 NGYF=   96 NGZF=  256
   ions per type =              12  18
   NGX,Y,Z   is equivalent  to a cutoff of  15.85, 15.85, 15.47 a.u.
   NGXF,Y,Z  is equivalent  to a cutoff of  31.70, 31.70, 30.93 a.u.

 SYSTEM =  unknown system                          
 POSCAR =  Fe12 O18                                

 Startparameter for this run:
   NWRITE =      2    write-flag & timer
   PREC   = accura    normal or accurate (medium, high low for compatibility)
   ISTART =      0    job   : 0-new  1-cont  2-samecut
   ICHARG =      2    charge: 1-file 2-atom 10-const
   ISPIN  =      2    spin polarized calculation?
   LNONCOLLINEAR =      F non collinear calculations
   LSORBIT =      F    spin-orbit coupling
   INIWAV =      1    electr: 0-lowe 1-rand  2-diag
   LASPH  =      F    aspherical Exc in radial PAW
   METAGGA=      F    non-selfconsistent MetaGGA calc.

 Electronic Relaxation 1
   ENCUT  =  820.0 eV  60.27 Ry    7.76 a.u.  11.76 11.76 32.12*2*pi/ulx,y,z
   ENINI  =  820.0     initial cutoff
   ENAUG  =  605.4 eV  augmentation charge cutoff
   NELM   =    100;   NELMIN=  2; NELMDL= -5     # of ELM steps 
   EDIFF  = 0.1E-06   stopping-criterion for ELM
   LREAL  =      T    real-space projection
   NLSPLINE    = F    spline interpolate recip. space projectors
   LCOMPAT=      F    compatible to vasp.4.4
   GGA_COMPAT  = T    GGA compatible to vasp.4.4-vasp.4.6
   LMAXPAW     = -100 max onsite density
   LMAXMIX     =    2 max onsite mixed and CHGCAR
   VOSKOWN=      0    Vosko Wilk Nusair interpolation
   ROPT   =   -0.00025  -0.00025
 Ionic relaxation
   EDIFFG = 0.1E-05   stopping-criterion for IOM
   NSW    =      0    number of steps for IOM
   NBLOCK =      1;   KBLOCK =      1    inner block; outer block 
   IBRION =     -1    ionic relax: 0-MD 1-quasi-New 2-CG
   NFREE  =      0    steps in history (QN), initial steepest desc. (CG)
   ISIF   =      3    stress and relaxation
   IWAVPR =     10    prediction:  0-non 1-charg 2-wave 3-comb
   ISYM   =      2    0-nonsym 1-usesym 2-fastsym
   LCORR  =      T    Harris-Foulkes like correction to forces

   POTIM  = 0.5000    time-step for ionic-motion
   TEIN   =    0.0    initial temperature
   TEBEG  =    0.0;   TEEND  =   0.0 temperature during run
   SMASS  =  -3.00    Nose mass-parameter (am)
   estimated Nose-frequenzy (Omega)   =  0.10E-29 period in steps =****** mass=  -0.579E-27a.u.
   SCALEE = 1.0000    scale energy and forces
   NPACO  =    256;   APACO  = 16.0  distance and # of slots for P.C.
   PSTRESS=    0.0 pullay stress

  Mass of Ions in am
   POMASS =  55.85 16.00
  Ionic Valenz
   ZVAL   =  14.00  6.00
  Atomic Wigner-Seitz radii
   RWIGS  =  -1.00 -1.00
  virtual crystal weights 
   VCA    =   1.00  1.00
   NELECT =     276.0000    total number of electrons
   NUPDOWN=      -1.0000    fix difference up-down

 DOS related values:
   EMIN   =  10.00;   EMAX   =-10.00  energy-range for DOS
   EFERMI =   0.00
   ISMEAR =    -5;   SIGMA  =   0.05  broadening in eV -4-tet -1-fermi 0-gaus

 Electronic relaxation 2 (details)
   IALGO  =     38    algorithm
   LDIAG  =      T    sub-space diagonalisation (order eigenvalues)
   LSUBROT=      F    optimize rotation matrix (better conditioning)
   TURBO    =      0    0=normal 1=particle mesh
   IRESTART =      0    0=no restart 2=restart with 2 vectors
   NREBOOT  =      0    no. of reboots
   NMIN     =      0    reboot dimension
   EREF     =   0.00    reference energy to select bands
   IMIX   =      4    mixing-type and parameters
     AMIX     =   0.40;   BMIX     =  1.00
     AMIX_MAG =   1.60;   BMIX_MAG =  1.00
     AMIN     =   0.10
     WC   =   100.;   INIMIX=   1;  MIXPRE=   1;  MAXMIX= -45

 Intra band minimization:
   WEIMIN = 0.0000     energy-eigenvalue tresh-hold
   EBREAK =  0.12E-09  absolut break condition
   DEPER  =   0.30     relativ break condition  

   TIME   =   0.40     timestep for ELM

  volume/ion in A,a.u.               =      10.07        67.95
  Fermi-wavevector in a.u.,A,eV,Ry     =   1.588581  3.001983 34.335534  2.523591
  Thomas-Fermi vector in A             =   2.687563
 
 Write flags
   LWAVE        =      F    write WAVECAR
   LDOWNSAMPLE  =      F    k-point downsampling of WAVECAR
   LCHARG       =      F    write CHGCAR
   LVTOT        =      F    write LOCPOT, total local potential
   LVHAR        =      F    write LOCPOT, Hartree potential only
   LELF         =      F    write electronic localiz. function (ELF)
   LORBIT       =     11    0 simple, 1 ext, 2 COOP (PROOUT), +10 PAW based schemes


 Dipole corrections
   LMONO  =      F    monopole corrections only (constant potential shift)
   LDIPOL =      F    correct potential (dipole corrections)
   IDIPOL =      0    1-x, 2-y, 3-z, 4-all directions 
   EPSILON=  1.0000000 bulk dielectric constant

 Exchange correlation treatment:
   GGA     =    --    GGA type
   LEXCH   =     8    internal setting for exchange type
   VOSKOWN=      0    Vosko Wilk Nusair interpolation
   LHFCALC =     F    Hartree Fock is set to
   LHFONE  =     F    Hartree Fock one center treatment
   AEXX    =    0.0000 exact exchange contribution

 Linear response parameters
   LEPSILON=     F    determine dielectric tensor
   LRPA    =     F    only Hartree local field effects (RPA)
   LNABLA  =     F    use nabla operator in PAW spheres
   LVEL    =     F    velocity operator in full k-point grid
   LINTERFAST=   F  fast interpolation
   KINTER  =     0    interpolate to denser k-point grid
   CSHIFT  =0.1000    complex shift for real part using Kramers Kronig
   OMEGAMAX=  -1.0    maximum frequency
   DEG_THRESHOLD= 0.2000000E-02 threshold for treating states as degnerate
   RTIME   =   -0.100 relaxation time in fs
  (WPLASMAI=    0.000 imaginary part of plasma frequency in eV, 0.658/RTIME)
   DFIELD  = 0.0000000 0.0000000 0.0000000 field for delta impulse in time
 
 Orbital magnetization related:
   ORBITALMAG=     F  switch on orbital magnetization
   LCHIMAG   =     F  perturbation theory with respect to B field
   DQ        =  0.001000  dq finite difference perturbation B field
   LLRAUG    =     F  two centre corrections for induced B field



--------------------------------------------------------------------------------------------------------


 Static calculation
 charge density and potential will be updated during run
 spin polarized calculation
 Variant of blocked Davidson
 Davidson routine will perform the subspace rotation
 perform sub-space diagonalisation
    after iterative eigenvector-optimisation
 modified Broyden-mixing scheme, WC =      100.0
 initial mixing is a Kerker type mixing with AMIX =  0.4000 and BMIX =      1.0000
 Hartree-type preconditioning will be used
 using additional bands           66
 real space projection scheme for non local part
 use partial core corrections
 calculate Harris-corrections to forces 
   (improved forces if not selfconsistent)
 use gradient corrections 
 use of overlap-Matrix (Vanderbilt PP)
 Fermi weights with tetrahedron method with Bloechl corrections


--------------------------------------------------------------------------------------------------------


  energy-cutoff  :      820.00
  volume of cell :      302.07
      direct lattice vectors                 reciprocal lattice vectors
     5.035100000  0.000000000  0.000000000     0.198605787  0.114665118  0.000000000
    -2.517550000  4.360524000  0.000000000     0.000000000  0.229330236  0.000000000
     0.000000000  0.000000000 13.758100000     0.000000000  0.000000000  0.072684455

  length of vectors
     5.035100000  5.035099558 13.758100000     0.229330216  0.229330236  0.072684455


 
 k-points in units of 2pi/SCALE and weight: pymatgen with grid density = 2464 / numb
   0.00000000  0.00000000  0.00000000       0.014
   0.03310096  0.01911085  0.00000000       0.083
   0.06620193  0.03822171  0.00000000       0.083
   0.09930289  0.05733256  0.00000000       0.042
   0.03310096  0.05733256  0.00000000       0.083
   0.06620193  0.07644341  0.00000000       0.167
   0.06620193  0.11466512  0.00000000       0.028
   0.00000000  0.00000000  0.03634223       0.014
   0.03310096  0.01911085  0.03634223       0.083
   0.06620193  0.03822171  0.03634223       0.083
   0.09930289  0.05733256  0.03634223       0.042
   0.03310096  0.05733256  0.03634223       0.083
   0.06620193  0.07644341  0.03634223       0.167
   0.06620193  0.11466512  0.03634223       0.028
 
 k-points in reciprocal lattice and weights: pymatgen with grid density = 2464 / numb
   0.00000000  0.00000000  0.00000000       0.014
   0.16666667  0.00000000  0.00000000       0.083
   0.33333333  0.00000000  0.00000000       0.083
   0.50000000  0.00000000  0.00000000       0.042
   0.16666667  0.16666667  0.00000000       0.083
   0.33333333  0.16666667  0.00000000       0.167
   0.33333333  0.33333333  0.00000000       0.028
   0.00000000  0.00000000  0.50000000       0.014
   0.16666667  0.00000000  0.50000000       0.083
   0.33333333  0.00000000  0.50000000       0.083
   0.50000000  0.00000000  0.50000000       0.042
   0.16666667  0.16666667  0.50000000       0.083
   0.33333333  0.16666667  0.50000000       0.167
   0.33333333  0.33333333  0.50000000       0.028
 
 position of ions in fractional coordinates (direct lattice) 
   0.00000000  0.00000000  0.35532000
   0.00000000  0.00000000  0.64468000
   0.33333300  0.66666700  0.02198700
   0.66666700  0.33333300  0.68865300
   0.33333300  0.66666700  0.31134700
   0.66666700  0.33333300  0.97801300
   0.00000000  0.00000000  0.14468000
   0.00000000  0.00000000  0.85532000
   0.33333300  0.66666700  0.81134700
   0.33333300  0.66666700  0.52198700
   0.66666700  0.33333300  0.47801300
   0.66666700  0.33333300  0.18865300
   0.30618000  0.00000000  0.25000000
   0.69382000  0.00000000  0.75000000
   0.63951300  0.66666700  0.91666700
   0.97284700  0.33333300  0.58333300
   0.02715300  0.66666700  0.41666700
   0.36048700  0.33333300  0.08333300
   0.00000000  0.30618000  0.25000000
   0.00000000  0.69382000  0.75000000
   0.33333300  0.97284700  0.91666700
   0.66666700  0.63951300  0.58333300
   0.33333300  0.36048700  0.41666700
   0.66666700  0.02715300  0.08333300
   0.69382000  0.69382000  0.25000000
   0.30618000  0.30618000  0.75000000
   0.02715300  0.36048700  0.91666700
   0.63951300  0.97284700  0.41666700
   0.36048700  0.02715300  0.58333300
   0.97284700  0.63951300  0.08333300
 
 position of ions in cartesian coordinates  (Angst):
   0.00000000  0.00000000  4.88852809
   0.00000000  0.00000000  8.86957191
  -0.00000252  2.90701745  0.30249934
   2.51755252  1.45350655  9.47455684
  -0.00000252  2.90701745  4.28354316
   2.51755252  1.45350655 13.45560066
   0.00000000  0.00000000  1.99052191
   0.00000000  0.00000000 11.76757809
  -0.00000252  2.90701745 11.16259316
  -0.00000252  2.90701745  7.18154934
   2.51755252  1.45350655  6.57655066
   2.51755252  1.45350655  2.59550684
   1.54164692  0.00000000  3.43952500
   3.49345308  0.00000000 10.31857500
   1.54164440  2.90701745 12.61159625
   4.05919944  1.45350655  8.02555375
  -1.54164944  2.90701745  5.73254625
   0.97590560  1.45350655  1.14650375
  -0.77082346  1.33510524  3.43952500
  -1.74672654  3.02541876 10.31857500
  -0.77082598  4.24212269 12.61159625
   1.74672906  2.78861178  8.02555375
   0.77082094  1.57191222  5.73254625
   3.28837598  0.11840131  1.14650375
   1.74672654  3.02541876  3.43952500
   0.77082346  1.33510524 10.31857500
  -0.77082598  1.57191222 12.61159625
   0.77082094  4.24212269  5.73254625
   1.74672906  0.11840131  8.02555375
   3.28837598  2.78861178  1.14650375
 


--------------------------------------------------------------------------------------------------------


 k-point  1 :   0.0000 0.0000 0.0000  plane waves:   16151
 k-point  2 :   0.1667 0.0000 0.0000  plane waves:   16093
 k-point  3 :   0.3333 0.0000 0.0000  plane waves:   16112
 k-point  4 :   0.5000 0.0000 0.0000  plane waves:   16128
 k-point  5 :   0.1667 0.1667 0.0000  plane waves:   16098
 k-point  6 :   0.3333 0.1667 0.0000  plane waves:   16116
 k-point  7 :   0.3333 0.3333 0.0000  plane waves:   16104
 k-point  8 :   0.0000 0.0000 0.5000  plane waves:   16156
 k-point  9 :   0.1667 0.0000 0.5000  plane waves:   16126
 k-point 10 :   0.3333 0.0000 0.5000  plane waves:   16084
 k-point 11 :   0.5000 0.0000 0.5000  plane waves:   16104
 k-point 12 :   0.1667 0.1667 0.5000  plane waves:   16074
 k-point 13 :   0.3333 0.1667 0.5000  plane waves:   16110
 k-point 14 :   0.3333 0.3333 0.5000  plane waves:   16140

 maximum and minimum number of plane-waves per node :      4066     3999

 maximum number of plane-waves:     16156
 maximum index in each direction: 
   IXMAX=   11   IYMAX=   11   IZMAX=   32
   IXMIN=  -12   IYMIN=  -12   IZMIN=  -32


 real space projection operators:
  total allocation   :      18948.38 KBytes
  max/ min on nodes  :       4778.50       4684.88


 parallel 3D FFT for wavefunctions:
    minimum data exchange during FFTs selected (reduces bandwidth)
 parallel 3D FFT for charge:
    minimum data exchange during FFTs selected (reduces bandwidth)


 total amount of memory used by VASP MPI-rank0   122994. kBytes
=======================================================================

   base      :      30000. kBytes
   nonlr-proj:      10445. kBytes
   fftplans  :       5502. kBytes
   grid      :      13830. kBytes
   one-center:        248. kBytes
   wavefun   :      62969. kBytes
 
     INWAV:  cpu time    0.0000: real time    0.0001
 Broyden mixing: mesh for mixing (old mesh)
   NGX = 23   NGY = 23   NGZ = 65
  (NGX  = 96   NGY  = 96   NGZ  =256)
  gives a total of  34385 points

 initial charge density was supplied:
 charge density of overlapping atoms calculated
 number of electron     276.0000000 magnetization      70.8000000
 keeping initial charge density in first step


--------------------------------------------------------------------------------------------------------


 Maximum index for non-local projection operator         2194
 Maximum index for augmentation-charges         1274 (set IRDMAX)


--------------------------------------------------------------------------------------------------------


 First call to EWALD:  gamma=   0.264
 Maximum number of real-space cells 4x 4x 2
 Maximum number of reciprocal cells 2x 2x 5

    FEWALD:  cpu time    0.0017: real time    0.0017


--------------------------------------- Iteration      1(   1)  ---------------------------------------


    POTLOK:  cpu time    0.1241: real time    0.1253
    SETDIJ:  cpu time    0.0147: real time    0.0147
     EDDAV:  cpu time   18.9913: real time   19.0533
 BZINTS: Fermi energy: 32.664555;276.000000 electrons
         Band energy:1977.478655;  BLOECHL correction: -0.084160
       DOS:  cpu time    0.0438: real time    0.0439
    --------------------------------------------
      LOOP:  cpu time   19.1739: real time   19.2372

 eigenvalue-minimisations  : 11436
 total energy-change (2. order) : 0.4994129E+04  (-0.1792834E+05)
 number of electron     276.0000000 magnetization      70.8000000
 augmentation part      276.0000000 magnetization      70.8000000

 Free energy of the ion-electron system (eV)
  ---------------------------------------------------
  alpha Z        PSCENC =      1362.55286497
  Ewald energy   TEWEN  =    -25513.06237826
  -Hartree energ DENC   =    -10371.14386019
  -exchange      EXHF   =         0.00000000
  -V(xc)+E(xc)   XCENC  =      1375.27778129
  PAW double counting   =     30224.59406688   -31333.39571732
  entropy T*S    EENTRO =         0.00000000
  eigenvalues    EBANDS =      1977.47865464
  atomic energy  EATOM  =     37271.82711322
  Solvation  Ediel_sol  =         0.00000000
  ---------------------------------------------------
  free energy    TOTEN  =      4994.12852522 eV

  energy without entropy =     4994.12852522  energy(sigma->0) =     4994.12852522


--------------------------------------------------------------------------------------------------------




--------------------------------------- Iteration      1(   2)  ---------------------------------------


     EDDAV:  cpu time   19.1361: real time   19.1911
 BZINTS: Fermi energy: 12.144974;276.000000 electrons
         Band energy:***********;  BLOECHL correction: -0.024808
       DOS:  cpu time    0.0451: real time    0.0452
    --------------------------------------------
      LOOP:  cpu time   19.1812: real time   19.2363

 eigenvalue-minimisations  : 11424
 total energy-change (2. order) :-0.4367136E+04  (-0.3997732E+04)
 number of electron     276.0000000 magnetization      70.8000000
 augmentation part      276.0000000 magnetization      70.8000000

 Free energy of the ion-electron system (eV)
  ---------------------------------------------------
  alpha Z        PSCENC =      1362.55286497
  Ewald energy   TEWEN  =    -25513.06237826
  -Hartree energ DENC   =    -10371.14386019
  -exchange      EXHF   =         0.00000000
  -V(xc)+E(xc)   XCENC  =      1375.27778129
  PAW double counting   =     30224.59406688   -31333.39571732
  entropy T*S    EENTRO =         0.00000000
  eigenvalues    EBANDS =     -2389.65710469
  atomic energy  EATOM  =     37271.82711322
  Solvation  Ediel_sol  =         0.00000000
  ---------------------------------------------------
  free energy    TOTEN  =       626.99276589 eV

  energy without entropy =      626.99276589  energy(sigma->0) =      626.99276589


--------------------------------------------------------------------------------------------------------




--------------------------------------- Iteration      1(   3)  ---------------------------------------


     EDDAV:  cpu time   19.7868: real time   19.8449
 BZINTS: Fermi energy:  8.631513;276.000000 electrons
         Band energy:***********;  BLOECHL correction:  0.000000
       DOS:  cpu time    0.0059: real time    0.0060
    --------------------------------------------
      LOOP:  cpu time   19.7928: real time   19.8509

 eigenvalue-minimisations  : 11820
 total energy-change (2. order) :-0.8551908E+03  (-0.7394179E+03)
 number of electron     276.0000000 magnetization      70.8000000
 augmentation part      276.0000000 magnetization      70.8000000

 Free energy of the ion-electron system (eV)
  ---------------------------------------------------
  alpha Z        PSCENC =      1362.55286497
  Ewald energy   TEWEN  =    -25513.06237826
  -Hartree energ DENC   =    -10371.14386019
  -exchange      EXHF   =         0.00000000
  -V(xc)+E(xc)   XCENC  =      1375.27778129
  PAW double counting   =     30224.59406688   -31333.39571732
  entropy T*S    EENTRO =         0.00000000
  eigenvalues    EBANDS =     -3244.84785978
  atomic energy  EATOM  =     37271.82711322
  Solvation  Ediel_sol  =         0.00000000
  ---------------------------------------------------
  free energy    TOTEN  =      -228.19798919 eV

  energy without entropy =     -228.19798919  energy(sigma->0) =     -228.19798919


--------------------------------------------------------------------------------------------------------




--------------------------------------- Iteration      1(   4)  ---------------------------------------


     EDDAV:  cpu time   19.1095: real time   19.1643
 BZINTS: Fermi energy:  8.168475;276.000000 electrons
         Band energy:***********;  BLOECHL correction:  0.000000
       DOS:  cpu time    0.0060: real time    0.0060
    --------------------------------------------
      LOOP:  cpu time   19.1154: real time   19.1703

 eigenvalue-minimisations  : 12900
 total energy-change (2. order) :-0.6554568E+02  (-0.6473098E+02)
 number of electron     276.0000000 magnetization      70.8000000
 augmentation part      276.0000000 magnetization      70.8000000

 Free energy of the ion-electron system (eV)
  ---------------------------------------------------
  alpha Z        PSCENC =      1362.55286497
  Ewald energy   TEWEN  =    -25513.06237826
  -Hartree energ DENC   =    -10371.14386019
  -exchange      EXHF   =         0.00000000
  -V(xc)+E(xc)   XCENC  =      1375.27778129
  PAW double counting   =     30224.59406688   -31333.39571732
  entropy T*S    EENTRO =         0.00000000
  eigenvalues    EBANDS =     -3310.39354307
  atomic energy  EATOM  =     37271.82711322
  Solvation  Ediel_sol  =         0.00000000
  ---------------------------------------------------
  free energy    TOTEN  =      -293.74367249 eV

  energy without entropy =     -293.74367249  energy(sigma->0) =     -293.74367249


--------------------------------------------------------------------------------------------------------




--------------------------------------- Iteration      1(   5)  ---------------------------------------


     EDDAV:  cpu time   18.9295: real time   18.9851
 BZINTS: Fermi energy:  8.276990;276.000000 electrons
         Band energy:***********;  BLOECHL correction:  0.000000
       DOS:  cpu time    0.0072: real time    0.0072
    CHARGE:  cpu time    0.8039: real time    0.8062
    MIXING:  cpu time    0.0027: real time    0.0028
    --------------------------------------------
      LOOP:  cpu time   19.7433: real time   19.8013

 eigenvalue-minimisations  : 12768
 total energy-change (2. order) :-0.7729240E+00  (-0.7705096E+00)
 number of electron     275.9999985 magnetization      67.8179403
 augmentation part      108.0146504 magnetization      47.0434486

 Broyden mixing:
  rms(total) = 0.80925E+01    rms(broyden)= 0.80924E+01
  rms(prec ) = 0.88385E+01
  weight for this iteration     100.00

 Free energy of the ion-electron system (eV)
  ---------------------------------------------------
  alpha Z        PSCENC =      1362.55286497
  Ewald energy   TEWEN  =    -25513.06237826
  -Hartree energ DENC   =    -10371.14386019
  -exchange      EXHF   =         0.00000000
  -V(xc)+E(xc)   XCENC  =      1375.27778129
  PAW double counting   =     30224.59406688   -31333.39571732
  entropy T*S    EENTRO =         0.00000000
  eigenvalues    EBANDS =     -3311.16646704
  atomic energy  EATOM  =     37271.82711322
  Solvation  Ediel_sol  =         0.00000000
  ---------------------------------------------------
  free energy    TOTEN  =      -294.51659646 eV

  energy without entropy =     -294.51659646  energy(sigma->0) =     -294.51659646


--------------------------------------------------------------------------------------------------------




--------------------------------------- Iteration      1(   6)  ---------------------------------------


    POTLOK:  cpu time    0.1158: real time    0.1163
    SETDIJ:  cpu time    0.0145: real time    0.0146
     EDDAV:  cpu time   22.0727: real time   22.1352
 BZINTS: Fermi energy:  5.534937;276.000000 electrons
         Band energy:***********;  BLOECHL correction: -0.054698
       DOS:  cpu time    0.0483: real time    0.0484
    CHARGE:  cpu time    0.8358: real time    0.8377
    MIXING:  cpu time    0.0029: real time    0.0029
    --------------------------------------------
      LOOP:  cpu time   23.0899: real time   23.1552

 eigenvalue-minimisations  : 14796
 total energy-change (2. order) : 0.5922746E+02  (-0.2529500E+02)
 number of electron     275.9999977 magnetization      62.9813928
 augmentation part      120.7103843 magnetization      54.4145647

 Broyden mixing:
  rms(total) = 0.91209E+01    rms(broyden)= 0.91208E+01
  rms(prec ) = 0.97696E+01
  weight for this iteration     100.00

 eigenvalues of (default mixing * dielectric matrix)
  average eigenvalue GAMMA=   0.3186
  0.3186

 Free energy of the ion-electron system (eV)
  ---------------------------------------------------
  alpha Z        PSCENC =      1362.55286497
  Ewald energy   TEWEN  =    -25513.06237826
  -Hartree energ DENC   =     -9965.69105787
  -exchange      EXHF   =         0.00000000
  -V(xc)+E(xc)   XCENC  =      1376.63794327
  PAW double counting   =     31437.07024064   -32503.96266906
  entropy T*S    EENTRO =         0.00000000
  eigenvalues    EBANDS =     -3700.66119347
  atomic energy  EATOM  =     37271.82711322
  Solvation  Ediel_sol  =         0.00000000
  ---------------------------------------------------
  free energy    TOTEN  =      -235.28913656 eV

  energy without entropy =     -235.28913656  energy(sigma->0) =     -235.28913656


--------------------------------------------------------------------------------------------------------




--------------------------------------- Iteration      1(   7)  ---------------------------------------


    POTLOK:  cpu time    0.1143: real time    0.1155
    SETDIJ:  cpu time    0.0146: real time    0.0146
     EDDAV:  cpu time   18.9878: real time   19.0418
 BZINTS: Fermi energy:  7.079360;276.000000 electrons
         Band energy:***********;  BLOECHL correction: -0.036410
       DOS:  cpu time    0.0472: real time    0.0473
    CHARGE:  cpu time    0.8256: real time    0.8275
    MIXING:  cpu time    0.0026: real time    0.0029
    --------------------------------------------
      LOOP:  cpu time   19.9920: real time   20.0496

 eigenvalue-minimisations  : 12216
 total energy-change (2. order) : 0.2323755E+02  (-0.1142697E+02)
 number of electron     275.9999983 magnetization      58.7876060
 augmentation part      109.3465765 magnetization      40.3308718

 Broyden mixing:
  rms(total) = 0.43703E+01    rms(broyden)= 0.43703E+01
  rms(prec ) = 0.45301E+01
  weight for this iteration     100.00

 eigenvalues of (default mixing * dielectric matrix)
  average eigenvalue GAMMA=   0.6787
  1.0271  0.3303

 Free energy of the ion-electron system (eV)
  ---------------------------------------------------
  alpha Z        PSCENC =      1362.55286497
  Ewald energy   TEWEN  =    -25513.06237826
  -Hartree energ DENC   =    -10207.56104028
  -exchange      EXHF   =         0.00000000
  -V(xc)+E(xc)   XCENC  =      1372.38851370
  PAW double counting   =     32869.88625223   -33998.32417796
  entropy T*S    EENTRO =         0.00000000
  eigenvalues    EBANDS =     -3369.75872990
  atomic energy  EATOM  =     37271.82711322
  Solvation  Ediel_sol  =         0.00000000
  ---------------------------------------------------
  free energy    TOTEN  =      -212.05158229 eV

  energy without entropy =     -212.05158229  energy(sigma->0) =     -212.05158229


--------------------------------------------------------------------------------------------------------




--------------------------------------- Iteration      1(   8)  ---------------------------------------


    POTLOK:  cpu time    0.1146: real time    0.1152
    SETDIJ:  cpu time    0.0146: real time    0.0146
     EDDAV:  cpu time   18.8767: real time   18.9318
 BZINTS: Fermi energy:  6.445774;276.000000 electrons
         Band energy:***********;  BLOECHL correction: -0.034161
       DOS:  cpu time    0.0472: real time    0.0473
    CHARGE:  cpu time    0.8257: real time    0.8276
    MIXING:  cpu time    0.0028: real time    0.0028
    --------------------------------------------
      LOOP:  cpu time   19.8815: real time   19.9393

 eigenvalue-minimisations  : 12108
 total energy-change (2. order) :-0.6269088E+01  (-0.2140858E+01)
 number of electron     275.9999982 magnetization      51.9521188
 augmentation part      111.2665848 magnetization      35.0313917

 Broyden mixing:
  rms(total) = 0.26527E+01    rms(broyden)= 0.26527E+01
  rms(prec ) = 0.27129E+01
  weight for this iteration     100.00

 eigenvalues of (default mixing * dielectric matrix)
  average eigenvalue GAMMA=   1.0722
  2.2533  0.5800  0.3835

 Free energy of the ion-electron system (eV)
  ---------------------------------------------------
  alpha Z        PSCENC =      1362.55286497
  Ewald energy   TEWEN  =    -25513.06237826
  -Hartree energ DENC   =    -10072.38511679
  -exchange      EXHF   =         0.00000000
  -V(xc)+E(xc)   XCENC  =      1366.38206962
  PAW double counting   =     34228.83671675   -35369.00874415
  entropy T*S    EENTRO =         0.00000000
  eigenvalues    EBANDS =     -3493.46319546
  atomic energy  EATOM  =     37271.82711322
  Solvation  Ediel_sol  =         0.00000000
  ---------------------------------------------------
  free energy    TOTEN  =      -218.32067009 eV

  energy without entropy =     -218.32067009  energy(sigma->0) =     -218.32067009


--------------------------------------------------------------------------------------------------------




--------------------------------------- Iteration      1(   9)  ---------------------------------------


    POTLOK:  cpu time    0.1156: real time    0.1166
    SETDIJ:  cpu time    0.0147: real time    0.0147
     EDDAV:  cpu time   19.4056: real time   19.4602
 BZINTS: Fermi energy:  5.881283;276.000000 electrons
         Band energy:***********;  BLOECHL correction: -0.038372
       DOS:  cpu time    0.0449: real time    0.0450
    CHARGE:  cpu time    0.8282: real time    0.8306
    MIXING:  cpu time    0.0028: real time    0.0028
    --------------------------------------------
      LOOP:  cpu time   20.4118: real time   20.4700

 eigenvalue-minimisations  : 12576
 total energy-change (2. order) :-0.4187891E+01  (-0.8212053E+00)
 number of electron     275.9999980 magnetization      50.9254611
 augmentation part      114.1280198 magnetization      37.7946101

 Broyden mixing:
  rms(total) = 0.27069E+01    rms(broyden)= 0.27069E+01
  rms(prec ) = 0.28363E+01
  weight for this iteration     100.00

 eigenvalues of (default mixing * dielectric matrix)
  average eigenvalue GAMMA=   1.1014
  2.8499  0.8032  0.3761  0.3761

 Free energy of the ion-electron system (eV)
  ---------------------------------------------------
  alpha Z        PSCENC =      1362.55286497
  Ewald energy   TEWEN  =    -25513.06237826
  -Hartree energ DENC   =     -9933.62178175
  -exchange      EXHF   =         0.00000000
  -V(xc)+E(xc)   XCENC  =      1362.37068351
  PAW double counting   =     36514.31571656   -37683.29369702
  entropy T*S    EENTRO =         0.00000000
  eigenvalues    EBANDS =     -3603.59708233
  atomic energy  EATOM  =     37271.82711322
  Solvation  Ediel_sol  =         0.00000000
  ---------------------------------------------------
  free energy    TOTEN  =      -222.50856110 eV

  energy without entropy =     -222.50856110  energy(sigma->0) =     -222.50856110


--------------------------------------------------------------------------------------------------------




--------------------------------------- Iteration      1(  10)  ---------------------------------------


    POTLOK:  cpu time    0.1151: real time    0.1155
    SETDIJ:  cpu time    0.0146: real time    0.0146
     EDDAV:  cpu time   18.8452: real time   18.8983
 BZINTS: Fermi energy:  5.958703;276.000000 electrons
         Band energy:***********;  BLOECHL correction: -0.037108
       DOS:  cpu time    0.0470: real time    0.0471
    CHARGE:  cpu time    0.8029: real time    0.8052
    MIXING:  cpu time    0.0028: real time    0.0028
    --------------------------------------------
      LOOP:  cpu time   19.8276: real time   19.8835

 eigenvalue-minimisations  : 12564
 total energy-change (2. order) : 0.3353022E+00  (-0.2453641E+00)
 number of electron     275.9999980 magnetization      50.6213471
 augmentation part      113.4177259 magnetization      37.3084889

 Broyden mixing:
  rms(total) = 0.18583E+01    rms(broyden)= 0.18583E+01
  rms(prec ) = 0.19689E+01
  weight for this iteration     100.00

 eigenvalues of (default mixing * dielectric matrix)
  average eigenvalue GAMMA=   1.0181
  2.6174  0.3741  0.7702  0.6643  0.6643

 Free energy of the ion-electron system (eV)
  ---------------------------------------------------
  alpha Z        PSCENC =      1362.55286497
  Ewald energy   TEWEN  =    -25513.06237826
  -Hartree energ DENC   =     -9949.15591735
  -exchange      EXHF   =         0.00000000
  -V(xc)+E(xc)   XCENC  =      1360.92006167
  PAW double counting   =     36551.33467617   -37723.67537465
  entropy T*S    EENTRO =         0.00000000
  eigenvalues    EBANDS =     -3582.91430466
  atomic energy  EATOM  =     37271.82711322
  Solvation  Ediel_sol  =         0.00000000
  ---------------------------------------------------
  free energy    TOTEN  =      -222.17325889 eV

  energy without entropy =     -222.17325889  energy(sigma->0) =     -222.17325889


--------------------------------------------------------------------------------------------------------




--------------------------------------- Iteration      1(  11)  ---------------------------------------


    POTLOK:  cpu time    0.1101: real time    0.1105
    SETDIJ:  cpu time    0.0142: real time    0.0142
     EDDAV:  cpu time   20.2496: real time   20.3088
 BZINTS: Fermi energy:  6.019763;276.000000 electrons
         Band energy:***********;  BLOECHL correction: -0.033986
       DOS:  cpu time    0.0493: real time    0.0494
    CHARGE:  cpu time    0.8071: real time    0.8094
    MIXING:  cpu time    0.0030: real time    0.0030
    --------------------------------------------
      LOOP:  cpu time   21.2333: real time   21.2954

 eigenvalue-minimisations  : 14352
 total energy-change (2. order) : 0.5627761E+00  (-0.2272914E-01)
 number of electron     275.9999981 magnetization      49.3138634
 augmentation part      112.9995016 magnetization      35.6174226

 Broyden mixing:
  rms(total) = 0.12183E+01    rms(broyden)= 0.12183E+01
  rms(prec ) = 0.12916E+01
  weight for this iteration     100.00

 eigenvalues of (default mixing * dielectric matrix)
  average eigenvalue GAMMA=   1.0451
  2.5822  0.9711  0.9711  0.3792  0.7998  0.5672

 Free energy of the ion-electron system (eV)
  ---------------------------------------------------
  alpha Z        PSCENC =      1362.55286497
  Ewald energy   TEWEN  =    -25513.06237826
  -Hartree energ DENC   =     -9960.24365232
  -exchange      EXHF   =         0.00000000
  -V(xc)+E(xc)   XCENC  =      1360.24877269
  PAW double counting   =     36382.26843500   -37552.61395297
  entropy T*S    EENTRO =         0.00000000
  eigenvalues    EBANDS =     -3572.58768516
  atomic energy  EATOM  =     37271.82711322
  Solvation  Ediel_sol  =         0.00000000
  ---------------------------------------------------
  free energy    TOTEN  =      -221.61048283 eV

  energy without entropy =     -221.61048283  energy(sigma->0) =     -221.61048283


--------------------------------------------------------------------------------------------------------




--------------------------------------- Iteration      1(  12)  ---------------------------------------


    POTLOK:  cpu time    0.1120: real time    0.1123
    SETDIJ:  cpu time    0.0142: real time    0.0143
     EDDAV:  cpu time   21.1980: real time   21.2584
 BZINTS: Fermi energy:  6.079360;276.000000 electrons
         Band energy:***********;  BLOECHL correction: -0.033303
       DOS:  cpu time    0.0482: real time    0.0485
    CHARGE:  cpu time    0.8030: real time    0.8051
    MIXING:  cpu time    0.0030: real time    0.0030
    --------------------------------------------
      LOOP:  cpu time   22.1783: real time   22.2416

 eigenvalue-minimisations  : 15204
 total energy-change (2. order) : 0.2023422E+00  (-0.1953403E-01)
 number of electron     275.9999981 magnetization      46.8733247
 augmentation part      112.6793876 magnetization      33.0739835

 Broyden mixing:
  rms(total) = 0.84340E+00    rms(broyden)= 0.84340E+00
  rms(prec ) = 0.88440E+00
  weight for this iteration     100.00

 eigenvalues of (default mixing * dielectric matrix)
  average eigenvalue GAMMA=   1.0978
  2.1374  1.6750  1.4694  0.3778  0.7518  0.6365  0.6365

 Free energy of the ion-electron system (eV)
  ---------------------------------------------------
  alpha Z        PSCENC =      1362.55286497
  Ewald energy   TEWEN  =    -25513.06237826
  -Hartree energ DENC   =     -9973.21013094
  -exchange      EXHF   =         0.00000000
  -V(xc)+E(xc)   XCENC  =      1359.60326420
  PAW double counting   =     36267.07033490   -37436.36461399
  entropy T*S    EENTRO =         0.00000000
  eigenvalues    EBANDS =     -3559.82459475
  atomic energy  EATOM  =     37271.82711322
  Solvation  Ediel_sol  =         0.00000000
  ---------------------------------------------------
  free energy    TOTEN  =      -221.40814065 eV

  energy without entropy =     -221.40814065  energy(sigma->0) =     -221.40814065


--------------------------------------------------------------------------------------------------------




--------------------------------------- Iteration      1(  13)  ---------------------------------------


    POTLOK:  cpu time    0.1100: real time    0.1108
    SETDIJ:  cpu time    0.0141: real time    0.0142
     EDDAV:  cpu time   19.9079: real time   19.9650
 BZINTS: Fermi energy:  6.138865;276.000000 electrons
         Band energy:***********;  BLOECHL correction: -0.034420
       DOS:  cpu time    0.0400: real time    0.0401
    CHARGE:  cpu time    0.8093: real time    0.8116
    MIXING:  cpu time    0.0033: real time    0.0033
    --------------------------------------------
      LOOP:  cpu time   20.8846: real time   20.9450

 eigenvalue-minimisations  : 13932
 total energy-change (2. order) : 0.1162052E-02  (-0.1126214E-01)
 number of electron     275.9999981 magnetization      43.9849275
 augmentation part      112.4085040 magnetization      30.4331725

 Broyden mixing:
  rms(total) = 0.46699E+00    rms(broyden)= 0.46699E+00
  rms(prec ) = 0.49025E+00
  weight for this iteration     100.00

 eigenvalues of (default mixing * dielectric matrix)
  average eigenvalue GAMMA=   1.3937
  3.4322  3.4322  0.3781  0.9288  0.9288  0.7248  0.7248  0.6001

 Free energy of the ion-electron system (eV)
  ---------------------------------------------------
  alpha Z        PSCENC =      1362.55286497
  Ewald energy   TEWEN  =    -25513.06237826
  -Hartree energ DENC   =     -9991.21571503
  -exchange      EXHF   =         0.00000000
  -V(xc)+E(xc)   XCENC  =      1358.78193884
  PAW double counting   =     36038.26357359   -37204.52484797
  entropy T*S    EENTRO =         0.00000000
  eigenvalues    EBANDS =     -3544.02952795
  atomic energy  EATOM  =     37271.82711322
  Solvation  Ediel_sol  =         0.00000000
  ---------------------------------------------------
  free energy    TOTEN  =      -221.40697860 eV

  energy without entropy =     -221.40697860  energy(sigma->0) =     -221.40697860


--------------------------------------------------------------------------------------------------------




--------------------------------------- Iteration      1(  14)  ---------------------------------------


    POTLOK:  cpu time    0.1113: real time    0.1119
    SETDIJ:  cpu time    0.0143: real time    0.0144
     EDDAV:  cpu time   20.9482: real time   21.0086
 BZINTS: Fermi energy:  6.171158;276.000000 electrons
         Band energy:***********;  BLOECHL correction: -0.032765
       DOS:  cpu time    0.0470: real time    0.0471
    CHARGE:  cpu time    0.8239: real time    0.8263
    MIXING:  cpu time    0.0034: real time    0.0034
    --------------------------------------------
      LOOP:  cpu time   21.9482: real time   22.0116

 eigenvalue-minimisations  : 14940
 total energy-change (2. order) :-0.4431474E-01  (-0.1540129E-01)
 number of electron     275.9999981 magnetization      43.0745259
 augmentation part      112.2246819 magnetization      29.9057745

 Broyden mixing:
  rms(total) = 0.18082E+00    rms(broyden)= 0.18082E+00
  rms(prec ) = 0.18838E+00
  weight for this iteration     100.00

 eigenvalues of (default mixing * dielectric matrix)
  average eigenvalue GAMMA=   1.5049
  5.3525  2.7809  1.2189  0.3781  0.8404  0.8404  0.8833  0.6248  0.6248

 Free energy of the ion-electron system (eV)
  ---------------------------------------------------
  alpha Z        PSCENC =      1362.55286497
  Ewald energy   TEWEN  =    -25513.06237826
  -Hartree energ DENC   =    -10003.83470254
  -exchange      EXHF   =         0.00000000
  -V(xc)+E(xc)   XCENC  =      1357.69178964
  PAW double counting   =     35838.26731249   -37001.51060268
  entropy T*S    EENTRO =         0.00000000
  eigenvalues    EBANDS =     -3533.38269019
  atomic energy  EATOM  =     37271.82711322
  Solvation  Ediel_sol  =         0.00000000
  ---------------------------------------------------
  free energy    TOTEN  =      -221.45129334 eV

  energy without entropy =     -221.45129334  energy(sigma->0) =     -221.45129334


--------------------------------------------------------------------------------------------------------




--------------------------------------- Iteration      1(  15)  ---------------------------------------


    POTLOK:  cpu time    0.1128: real time    0.1132
    SETDIJ:  cpu time    0.0142: real time    0.0143
     EDDAV:  cpu time   18.8893: real time   18.9433
 BZINTS: Fermi energy:  6.157115;276.000000 electrons
         Band energy:***********;  BLOECHL correction: -0.032955
       DOS:  cpu time    0.0447: real time    0.0448
    CHARGE:  cpu time    0.8171: real time    0.8199
    MIXING:  cpu time    0.0035: real time    0.0035
    --------------------------------------------
      LOOP:  cpu time   19.8817: real time   19.9390

 eigenvalue-minimisations  : 12708
 total energy-change (2. order) :-0.1811704E-01  (-0.6267571E-02)
 number of electron     275.9999981 magnetization      42.6371293
 augmentation part      112.2764880 magnetization      29.6427267

 Broyden mixing:
  rms(total) = 0.14362E+00    rms(broyden)= 0.14362E+00
  rms(prec ) = 0.15213E+00
  weight for this iteration     100.00

 eigenvalues of (default mixing * dielectric matrix)
  average eigenvalue GAMMA=   1.5467
  6.1271  2.8516  1.3574  1.0702  0.3781  0.8503  0.8503  0.6933  0.6933  0.5956

 Free energy of the ion-electron system (eV)
  ---------------------------------------------------
  alpha Z        PSCENC =      1362.55286497
  Ewald energy   TEWEN  =    -25513.06237826
  -Hartree energ DENC   =    -10002.54300438
  -exchange      EXHF   =         0.00000000
  -V(xc)+E(xc)   XCENC  =      1357.20053632
  PAW double counting   =     35824.72775192   -36987.59600361
  entropy T*S    EENTRO =         0.00000000
  eigenvalues    EBANDS =     -3534.57629057
  atomic energy  EATOM  =     37271.82711322
  Solvation  Ediel_sol  =         0.00000000
  ---------------------------------------------------
  free energy    TOTEN  =      -221.46941039 eV

  energy without entropy =     -221.46941039  energy(sigma->0) =     -221.46941039


--------------------------------------------------------------------------------------------------------




--------------------------------------- Iteration      1(  16)  ---------------------------------------


    POTLOK:  cpu time    0.1132: real time    0.1136
    SETDIJ:  cpu time    0.0143: real time    0.0143
     EDDAV:  cpu time   20.8738: real time   20.9337
 BZINTS: Fermi energy:  6.178465;276.000000 electrons
         Band energy:***********;  BLOECHL correction: -0.032837
       DOS:  cpu time    0.0483: real time    0.0484
    CHARGE:  cpu time    0.8100: real time    0.8124
    MIXING:  cpu time    0.0038: real time    0.0038
    --------------------------------------------
      LOOP:  cpu time   21.8633: real time   21.9261

 eigenvalue-minimisations  : 14292
 total energy-change (2. order) : 0.5101773E-02  (-0.9091646E-03)
 number of electron     275.9999981 magnetization      42.4954015
 augmentation part      112.1857048 magnetization      29.5011855

 Broyden mixing:
  rms(total) = 0.37909E-01    rms(broyden)= 0.37908E-01
  rms(prec ) = 0.39642E-01
  weight for this iteration     100.00

 eigenvalues of (default mixing * dielectric matrix)
  average eigenvalue GAMMA=   1.5372
  6.3135  2.7841  1.3207  1.3207  1.1087  0.3781  0.8110  0.8110  0.7265  0.7265
  0.6088

 Free energy of the ion-electron system (eV)
  ---------------------------------------------------
  alpha Z        PSCENC =      1362.55286497
  Ewald energy   TEWEN  =    -25513.06237826
  -Hartree energ DENC   =    -10007.19930889
  -exchange      EXHF   =         0.00000000
  -V(xc)+E(xc)   XCENC  =      1357.09000442
  PAW double counting   =     35782.81925467   -36945.58947348
  entropy T*S    EENTRO =         0.00000000
  eigenvalues    EBANDS =     -3529.90238527
  atomic energy  EATOM  =     37271.82711322
  Solvation  Ediel_sol  =         0.00000000
  ---------------------------------------------------
  free energy    TOTEN  =      -221.46430861 eV

  energy without entropy =     -221.46430861  energy(sigma->0) =     -221.46430861


--------------------------------------------------------------------------------------------------------




--------------------------------------- Iteration      1(  17)  ---------------------------------------


    POTLOK:  cpu time    0.1114: real time    0.1121
    SETDIJ:  cpu time    0.0142: real time    0.0143
     EDDAV:  cpu time   18.7301: real time   18.7833
 BZINTS: Fermi energy:  6.179618;276.000000 electrons
         Band energy:***********;  BLOECHL correction: -0.032783
       DOS:  cpu time    0.0460: real time    0.0461
    CHARGE:  cpu time    0.8138: real time    0.8162
    MIXING:  cpu time    0.0039: real time    0.0039
    --------------------------------------------
      LOOP:  cpu time   19.7194: real time   19.7758

 eigenvalue-minimisations  : 12468
 total energy-change (2. order) :-0.6253664E-03  (-0.4815026E-03)
 number of electron     275.9999981 magnetization      42.3963454
 augmentation part      112.1806742 magnetization      29.4157006

 Broyden mixing:
  rms(total) = 0.19406E-01    rms(broyden)= 0.19406E-01
  rms(prec ) = 0.20004E-01
  weight for this iteration     100.00

 eigenvalues of (default mixing * dielectric matrix)
  average eigenvalue GAMMA=   1.5615
  6.5202  2.7651  2.4520  1.0708  1.0708  0.3781  0.8919  0.8919  0.7200  0.7200
  0.6042  0.6535

 Free energy of the ion-electron system (eV)
  ---------------------------------------------------
  alpha Z        PSCENC =      1362.55286497
  Ewald energy   TEWEN  =    -25513.06237826
  -Hartree energ DENC   =    -10006.91518798
  -exchange      EXHF   =         0.00000000
  -V(xc)+E(xc)   XCENC  =      1357.02107905
  PAW double counting   =     35802.67792837   -36966.00636708
  entropy T*S    EENTRO =         0.00000000
  eigenvalues    EBANDS =     -3529.55998626
  atomic energy  EATOM  =     37271.82711322
  Solvation  Ediel_sol  =         0.00000000
  ---------------------------------------------------
  free energy    TOTEN  =      -221.46493398 eV

  energy without entropy =     -221.46493398  energy(sigma->0) =     -221.46493398


--------------------------------------------------------------------------------------------------------




--------------------------------------- Iteration      1(  18)  ---------------------------------------


    POTLOK:  cpu time    0.1116: real time    0.1120
    SETDIJ:  cpu time    0.0142: real time    0.0143
     EDDAV:  cpu time   20.5169: real time   20.5753
 BZINTS: Fermi energy:  6.180074;276.000000 electrons
         Band energy:***********;  BLOECHL correction: -0.032907
       DOS:  cpu time    0.0459: real time    0.0460
    CHARGE:  cpu time    0.8243: real time    0.8264
    MIXING:  cpu time    0.0038: real time    0.0038
    --------------------------------------------
      LOOP:  cpu time   21.5167: real time   21.5778

 eigenvalue-minimisations  : 14028
 total energy-change (2. order) :-0.2382927E-03  (-0.2520382E-04)
 number of electron     275.9999981 magnetization      42.3449099
 augmentation part      112.1757824 magnetization      29.3822104

 Broyden mixing:
  rms(total) = 0.86542E-02    rms(broyden)= 0.86540E-02
  rms(prec ) = 0.90045E-02
  weight for this iteration     100.00

 eigenvalues of (default mixing * dielectric matrix)
  average eigenvalue GAMMA=   1.5330
  6.6531  2.8432  2.4466  1.1479  1.1479  0.9579  0.9579  0.3781  0.7415  0.7415
  0.6881  0.6128  0.6128

 Free energy of the ion-electron system (eV)
  ---------------------------------------------------
  alpha Z        PSCENC =      1362.55286497
  Ewald energy   TEWEN  =    -25513.06237826
  -Hartree energ DENC   =    -10007.21059438
  -exchange      EXHF   =         0.00000000
  -V(xc)+E(xc)   XCENC  =      1356.97180365
  PAW double counting   =     35800.59485401   -36963.96739071
  entropy T*S    EENTRO =         0.00000000
  eigenvalues    EBANDS =     -3529.17144477
  atomic energy  EATOM  =     37271.82711322
  Solvation  Ediel_sol  =         0.00000000
  ---------------------------------------------------
  free energy    TOTEN  =      -221.46517227 eV

  energy without entropy =     -221.46517227  energy(sigma->0) =     -221.46517227


--------------------------------------------------------------------------------------------------------




--------------------------------------- Iteration      1(  19)  ---------------------------------------


    POTLOK:  cpu time    0.1128: real time    0.1134
    SETDIJ:  cpu time    0.0143: real time    0.0144
     EDDAV:  cpu time   20.1815: real time   20.2394
 BZINTS: Fermi energy:  6.181047;276.000000 electrons
         Band energy:***********;  BLOECHL correction: -0.032966
       DOS:  cpu time    0.0482: real time    0.0483
    CHARGE:  cpu time    0.8182: real time    0.8206
    MIXING:  cpu time    0.0044: real time    0.0044
    --------------------------------------------
      LOOP:  cpu time   21.1795: real time   21.2405

 eigenvalue-minimisations  : 13740
 total energy-change (2. order) :-0.5662769E-04  (-0.1017809E-04)
 number of electron     275.9999981 magnetization      42.3364301
 augmentation part      112.1715729 magnetization      29.3821322

 Broyden mixing:
  rms(total) = 0.17455E-02    rms(broyden)= 0.17453E-02
  rms(prec ) = 0.18613E-02
  weight for this iteration     100.00

 eigenvalues of (default mixing * dielectric matrix)
  average eigenvalue GAMMA=   1.5151
  6.7164  2.8542  2.4237  1.2982  1.2982  0.9879  0.9879  0.3781  0.7765  0.7765
  0.7429  0.7429  0.6141  0.6141

 Free energy of the ion-electron system (eV)
  ---------------------------------------------------
  alpha Z        PSCENC =      1362.55286497
  Ewald energy   TEWEN  =    -25513.06237826
  -Hartree energ DENC   =    -10007.55861898
  -exchange      EXHF   =         0.00000000
  -V(xc)+E(xc)   XCENC  =      1356.95167205
  PAW double counting   =     35796.07146235   -36959.38842577
  entropy T*S    EENTRO =         0.00000000
  eigenvalues    EBANDS =     -3528.85891848
  atomic energy  EATOM  =     37271.82711322
  Solvation  Ediel_sol  =         0.00000000
  ---------------------------------------------------
  free energy    TOTEN  =      -221.46522890 eV

  energy without entropy =     -221.46522890  energy(sigma->0) =     -221.46522890


--------------------------------------------------------------------------------------------------------




--------------------------------------- Iteration      1(  20)  ---------------------------------------


    POTLOK:  cpu time    0.1133: real time    0.1145
    SETDIJ:  cpu time    0.0143: real time    0.0144
     EDDAV:  cpu time   18.6024: real time   18.6557
 BZINTS: Fermi energy:  6.181414;276.000000 electrons
         Band energy:***********;  BLOECHL correction: -0.032972
       DOS:  cpu time    0.0483: real time    0.0486
    CHARGE:  cpu time    0.8154: real time    0.8173
    MIXING:  cpu time    0.0043: real time    0.0043
    --------------------------------------------
      LOOP:  cpu time   19.5981: real time   19.6548

 eigenvalue-minimisations  : 12456
 total energy-change (2. order) :-0.8415918E-05  (-0.2190211E-05)
 number of electron     275.9999981 magnetization      42.3329413
 augmentation part      112.1708475 magnetization      29.3801373

 Broyden mixing:
  rms(total) = 0.89644E-03    rms(broyden)= 0.89640E-03
  rms(prec ) = 0.91684E-03
  weight for this iteration     100.00

 eigenvalues of (default mixing * dielectric matrix)
  average eigenvalue GAMMA=   1.5126
  6.7485  2.9653  2.4027  1.8755  1.0839  1.0839  1.0068  1.0068  0.3781  0.7386
  0.7386  0.6048  0.7056  0.6752  0.6752

 Free energy of the ion-electron system (eV)
  ---------------------------------------------------
  alpha Z        PSCENC =      1362.55286497
  Ewald energy   TEWEN  =    -25513.06237826
  -Hartree energ DENC   =    -10007.64297312
  -exchange      EXHF   =         0.00000000
  -V(xc)+E(xc)   XCENC  =      1356.94849391
  PAW double counting   =     35795.95290491   -36959.27626392
  entropy T*S    EENTRO =         0.00000000
  eigenvalues    EBANDS =     -3528.76499901
  atomic energy  EATOM  =     37271.82711322
  Solvation  Ediel_sol  =         0.00000000
  ---------------------------------------------------
  free energy    TOTEN  =      -221.46523732 eV

  energy without entropy =     -221.46523732  energy(sigma->0) =     -221.46523732


--------------------------------------------------------------------------------------------------------




--------------------------------------- Iteration      1(  21)  ---------------------------------------


    POTLOK:  cpu time    0.1127: real time    0.1133
    SETDIJ:  cpu time    0.0142: real time    0.0143
     EDDAV:  cpu time   18.8299: real time   18.8845
 BZINTS: Fermi energy:  6.181776;276.000000 electrons
         Band energy:***********;  BLOECHL correction: -0.032970
       DOS:  cpu time    0.0471: real time    0.0473
    CHARGE:  cpu time    0.8159: real time    0.8183
    MIXING:  cpu time    0.0044: real time    0.0044
    --------------------------------------------
      LOOP:  cpu time   19.8243: real time   19.8821

 eigenvalue-minimisations  : 12624
 total energy-change (2. order) : 0.1821129E-05  (-0.2322094E-06)
 number of electron     275.9999981 magnetization      42.3348810
 augmentation part      112.1696482 magnetization      29.3818384

 Broyden mixing:
  rms(total) = 0.11217E-02    rms(broyden)= 0.11217E-02
  rms(prec ) = 0.11893E-02
  weight for this iteration     100.00

 eigenvalues of (default mixing * dielectric matrix)
  average eigenvalue GAMMA=   1.5046
  6.7493  3.0090  2.4454  2.1956  1.1930  1.1930  0.9932  0.9932  0.3781  0.7796
  0.7796  0.7325  0.7325  0.6697  0.6151  0.6151

 Free energy of the ion-electron system (eV)
  ---------------------------------------------------
  alpha Z        PSCENC =      1362.55286497
  Ewald energy   TEWEN  =    -25513.06237826
  -Hartree energ DENC   =    -10007.71574949
  -exchange      EXHF   =         0.00000000
  -V(xc)+E(xc)   XCENC  =      1356.94926738
  PAW double counting   =     35795.62092120   -36958.95396646
  entropy T*S    EENTRO =         0.00000000
  eigenvalues    EBANDS =     -3528.68330805
  atomic energy  EATOM  =     37271.82711322
  Solvation  Ediel_sol  =         0.00000000
  ---------------------------------------------------
  free energy    TOTEN  =      -221.46523549 eV

  energy without entropy =     -221.46523549  energy(sigma->0) =     -221.46523549


--------------------------------------------------------------------------------------------------------




--------------------------------------- Iteration      1(  22)  ---------------------------------------


    POTLOK:  cpu time    0.1127: real time    0.1136
    SETDIJ:  cpu time    0.0143: real time    0.0143
     EDDAV:  cpu time   16.7564: real time   16.8046
 BZINTS: Fermi energy:  6.181624;276.000000 electrons
         Band energy:***********;  BLOECHL correction: -0.032971
       DOS:  cpu time    0.0471: real time    0.0472
    CHARGE:  cpu time    0.8160: real time    0.8183
    MIXING:  cpu time    0.0050: real time    0.0050
    --------------------------------------------
      LOOP:  cpu time   17.7514: real time   17.8031

 eigenvalue-minimisations  : 10764
 total energy-change (2. order) :-0.1128596E-05  (-0.1047240E-06)
 number of electron     275.9999981 magnetization      42.3370281
 augmentation part      112.1702997 magnetization      29.3840694

 Broyden mixing:
  rms(total) = 0.51632E-03    rms(broyden)= 0.51632E-03
  rms(prec ) = 0.54544E-03
  weight for this iteration     100.00

 eigenvalues of (default mixing * dielectric matrix)
  average eigenvalue GAMMA=   1.4872
  6.7331  2.9820  2.6472  2.1477  1.3696  1.0170  1.0170  0.3781  1.0143  1.0143
  0.8051  0.8051  0.7439  0.7439  0.6088  0.6279  0.6279

 Free energy of the ion-electron system (eV)
  ---------------------------------------------------
  alpha Z        PSCENC =      1362.55286497
  Ewald energy   TEWEN  =    -25513.06237826
  -Hartree energ DENC   =    -10007.68166301
  -exchange      EXHF   =         0.00000000
  -V(xc)+E(xc)   XCENC  =      1356.94947971
  PAW double counting   =     35795.88605129   -36959.22170054
  entropy T*S    EENTRO =         0.00000000
  eigenvalues    EBANDS =     -3528.71500400
  atomic energy  EATOM  =     37271.82711322
  Solvation  Ediel_sol  =         0.00000000
  ---------------------------------------------------
  free energy    TOTEN  =      -221.46523662 eV

  energy without entropy =     -221.46523662  energy(sigma->0) =     -221.46523662


--------------------------------------------------------------------------------------------------------




--------------------------------------- Iteration      1(  23)  ---------------------------------------


    POTLOK:  cpu time    0.1135: real time    0.1140
    SETDIJ:  cpu time    0.0143: real time    0.0143
     EDDAV:  cpu time   15.7461: real time   15.7924
 BZINTS: Fermi energy:  6.181532;276.000000 electrons
         Band energy:***********;  BLOECHL correction: -0.032972
       DOS:  cpu time    0.0484: real time    0.0485
    --------------------------------------------
      LOOP:  cpu time   15.9223: real time   15.9692

 eigenvalue-minimisations  :  9792
 total energy-change (2. order) :-0.2460729E-07  (-0.2942177E-07)
 number of electron     275.9999981 magnetization      42.3370281
 augmentation part      112.1702997 magnetization      29.3840694

 Free energy of the ion-electron system (eV)
  ---------------------------------------------------
  alpha Z        PSCENC =      1362.55286497
  Ewald energy   TEWEN  =    -25513.06237826
  -Hartree energ DENC   =    -10007.65862101
  -exchange      EXHF   =         0.00000000
  -V(xc)+E(xc)   XCENC  =      1356.95013192
  PAW double counting   =     35796.08990044   -36959.42809838
  entropy T*S    EENTRO =         0.00000000
  eigenvalues    EBANDS =     -3528.73614955
  atomic energy  EATOM  =     37271.82711322
  Solvation  Ediel_sol  =         0.00000000
  ---------------------------------------------------
  free energy    TOTEN  =      -221.46523665 eV

  energy without entropy =     -221.46523665  energy(sigma->0) =     -221.46523665


--------------------------------------------------------------------------------------------------------




 average (electrostatic) potential at core
  the test charge radii are     0.9500  0.7215
  (the norm of the test charge is              1.0000)
       1 -78.6233       2 -78.6233       3 -78.6238       4 -78.6232       5 -78.6232
       6 -78.6238       7 -78.6233       8 -78.6233       9 -78.6232      10 -78.6238
      11 -78.6238      12 -78.6232      13 -69.7240      14 -69.7241      15 -69.7243
      16 -69.7245      17 -69.7245      18 -69.7244      19 -69.7241      20 -69.7240
      21 -69.7245      22 -69.7243      23 -69.7243      24 -69.7245      25 -69.7239
      26 -69.7239      27 -69.7245      28 -69.7245      29 -69.7245      30 -69.7245
 
 
 
 E-fermi :   6.1815     XC(G=0): -11.9045     alpha+bet :-12.3870


 spin component 1

 k-point     1 :       0.0000    0.0000    0.0000
  band No.  band energies     occupation 
      1     -49.9117      1.00000
      2     -49.9083      1.00000
      3     -49.9082      1.00000
      4     -49.9048      1.00000
      5     -49.9041      1.00000
      6     -49.9040      1.00000
      7     -49.8840      1.00000
      8     -49.8839      1.00000
      9     -49.8830      1.00000
     10     -49.8828      1.00000
     11     -49.8816      1.00000
     12     -49.8810      1.00000
     13     -49.8800      1.00000
     14     -49.8800      1.00000
     15     -49.8800      1.00000
     16     -49.8800      1.00000
     17     -49.8796      1.00000
     18     -49.8796      1.00000
     19     -49.8787      1.00000
     20     -49.8787      1.00000
[...]
  0.000  -0.002  -0.000   0.000  -0.001   0.000   0.000  -0.000  -0.006  -0.000   0.000   0.000   0.000   0.009  -0.000  -0.000
 total augmentation occupancy for first ion, spin component:           2
 -0.003   0.000  -0.000  -0.010   0.000   0.000   0.002   0.001  -0.000   0.000   0.000  -0.003  -0.002   0.000  -0.000  -0.000
 -0.000  -0.003   0.000   0.000  -0.010   0.000  -0.000   0.000  -0.001  -0.000   0.000   0.000  -0.000   0.002  -0.000  -0.000
  0.000   0.000  -0.003  -0.000   0.000  -0.010   0.000  -0.000   0.000   0.001  -0.002  -0.000   0.000  -0.000  -0.002   0.003
 -0.010  -0.000  -0.000   0.021   0.000  -0.000  -0.085  -0.050  -0.000   0.002   0.013   0.049   0.032   0.000  -0.001  -0.008
 -0.000  -0.010  -0.000   0.000   0.017   0.000   0.000   0.000   0.076   0.000  -0.000   0.000   0.000  -0.043   0.000   0.000
  0.000   0.000  -0.010   0.000   0.000   0.021   0.013  -0.002  -0.000  -0.050   0.085  -0.008   0.001   0.000   0.032  -0.049
  0.002   0.000   0.000  -0.085   0.000   0.013   4.295   0.577   0.000  -0.179   0.000  -2.428  -0.471  -0.000   0.166   0.002
  0.001  -0.000  -0.000  -0.050   0.000  -0.002   0.577   5.021   0.000   0.000  -0.179  -0.469  -3.026  -0.000   0.003   0.166
 -0.000  -0.001   0.000  -0.000   0.076  -0.000  -0.000   0.000   4.387   0.000  -0.000   0.000  -0.000  -2.383  -0.000   0.000
  0.000   0.000   0.001   0.002  -0.000  -0.050  -0.179   0.000   0.000   5.021  -0.577   0.166  -0.003  -0.000  -3.026   0.469
  0.000   0.000  -0.002   0.013  -0.000   0.085  -0.000  -0.179  -0.000  -0.577   4.295  -0.002   0.166   0.000   0.471  -2.428
 -0.003   0.000  -0.000   0.049   0.000  -0.008  -2.428  -0.469   0.000   0.166  -0.002   1.294   0.332  -0.000  -0.129   0.000
 -0.002   0.000   0.000   0.032   0.000   0.001  -0.471  -3.026  -0.000  -0.003   0.166   0.332   1.751   0.000   0.000  -0.129
  0.000   0.002  -0.000   0.000  -0.043   0.000  -0.000  -0.000  -2.383  -0.000   0.000  -0.000   0.000   1.231   0.000  -0.000
 -0.000  -0.000  -0.002  -0.001  -0.000   0.032   0.166   0.003  -0.000  -3.026   0.471  -0.129   0.000   0.000   1.751  -0.332
 -0.000  -0.000   0.003  -0.008   0.000  -0.049   0.002   0.166   0.000   0.469  -2.428   0.000  -0.129  -0.000  -0.332   1.294
  0.000   0.000   0.000  -0.000   0.001  -0.000   0.000   0.000   0.044  -0.000  -0.000   0.000   0.000  -0.022   0.000   0.000
  0.000   0.000  -0.000  -0.000   0.001   0.000   0.000  -0.000   0.007  -0.000  -0.000   0.000  -0.000  -0.005   0.000   0.000


------------------------ aborting loop because EDIFF is reached ----------------------------------------


 


 total charge     
 
# of ion       s       p       d       tot
------------------------------------------
    1        0.284   6.340   5.852  12.475
    2        0.284   6.340   5.854  12.478
    3        0.284   6.340   5.862  12.486
    4        0.284   6.340   5.852  12.475
    5        0.283   6.340   5.854  12.478
    6        0.284   6.340   5.865  12.488
    7        0.284   6.340   5.851  12.474
    8        0.284   6.340   5.853  12.477
    9        0.283   6.340   5.854  12.477
   10        0.283   6.340   5.868  12.492
   11        0.283   6.340   5.865  12.489
   12        0.283   6.340   5.857  12.480
   13        1.567   3.416   0.000   4.984
   14        1.567   3.416   0.000   4.983
   15        1.567   3.416   0.000   4.984
   16        1.567   3.417   0.000   4.985
   17        1.567   3.417   0.000   4.985
   18        1.567   3.416   0.000   4.984
   19        1.567   3.404   0.000   4.970
   20        1.567   3.403   0.000   4.970
   21        1.567   3.404   0.000   4.971
   22        1.567   3.404   0.000   4.971
   23        1.567   3.405   0.000   4.971
   24        1.567   3.405   0.000   4.971
   25        1.568   3.417   0.000   4.986
   26        1.568   3.417   0.000   4.985
   27        1.568   3.418   0.000   4.987
   28        1.568   3.419   0.000   4.988
   29        1.568   3.419   0.000   4.987
   30        1.568   3.419   0.000   4.987
--------------------------------------------------
tot         31.618 137.513  70.288 239.418
 


 magnetization (x)
 
# of ion       s       p       d       tot
------------------------------------------
    1        0.024   0.036   3.141   3.201
    2        0.024   0.036   3.138   3.198
    3        0.025   0.036   3.135   3.195
    4        0.025   0.036   3.140   3.201
    5        0.025   0.036   3.140   3.201
    6        0.025   0.036   3.132   3.193
    7        0.024   0.036   3.125   3.185
    8        0.024   0.036   3.122   3.183
    9        0.025   0.036   3.123   3.183
   10        0.025   0.036   3.116   3.177
   11        0.025   0.036   3.119   3.179
   12        0.025   0.036   3.123   3.183
   13        0.020   0.139   0.000   0.160
   14        0.020   0.139   0.000   0.159
   15        0.020   0.139   0.000   0.159
   16        0.020   0.140   0.000   0.160
   17        0.020   0.140   0.000   0.161
   18        0.020   0.139   0.000   0.160
   19        0.021   0.143   0.000   0.165
   20        0.021   0.143   0.000   0.164
   21        0.021   0.144   0.000   0.165
   22        0.021   0.144   0.000   0.165
   23        0.021   0.144   0.000   0.165
   24        0.021   0.144   0.000   0.166
   25        0.020   0.136   0.000   0.156
   26        0.020   0.135   0.000   0.155
   27        0.020   0.136   0.000   0.157
   28        0.020   0.137   0.000   0.158
   29        0.020   0.137   0.000   0.157
   30        0.020   0.137   0.000   0.157
--------------------------------------------------
tot          0.668   2.948  37.554  41.170
 
    CHARGE:  cpu time    0.8184: real time    0.8208
    FORLOC:  cpu time    0.0144: real time    0.0144
    FORNL :  cpu time    5.0549: real time    5.0691
    STRESS:  cpu time   15.1989: real time   15.2419
    FORCOR:  cpu time    0.1226: real time    0.1229
    FORHAR:  cpu time    0.0236: real time    0.0237
    MIXING:  cpu time    0.0048: real time    0.0048
    OFIELD:  cpu time    0.0001: real time    0.0001

  FORCE on cell =-STRESS in cart. coord.  units (eV):
  Direction    XX          YY          ZZ          XY          YZ          ZX
  --------------------------------------------------------------------------------------
  Alpha Z  1362.55286  1362.55286  1362.55286
  Ewald   -8201.75422 -8201.75360 -9109.63806     0.00000     0.00002    -0.00000
  Hartree  3503.88753  3503.88738  2999.88360    -0.00000     0.00001    -0.00000
  E(xc)   -1615.80234 -1615.80237 -1617.36619    -0.00003     0.00000    -0.00000
  Local    -165.26013  -165.26016  1230.57464    -0.00030    -0.00003     0.00000
  n-local  -743.02195  -741.91243  -744.48094    -4.16732     0.49356     0.11391
  augment  1844.62758  1844.62759  1846.55125     0.00028     0.00000    -0.00000
  Kinetic  4007.21483  4009.31038  4025.07235     7.65540    -1.99028    -5.04368
  Fock        0.00000     0.00000     0.00000     0.00000     0.00000     0.00000
  -------------------------------------------------------------------------------------
  Total      -5.95309    -5.95309    -6.85049     0.00000     0.00000    -0.00000
  in kB     -31.57531   -31.57530   -36.33517     0.00000     0.00000    -0.00000
  external pressure =      -33.16 kB  Pullay stress =        0.00 kB


 VOLUME and BASIS-vectors are now :
 -----------------------------------------------------------------------------
  energy-cutoff  :      820.00
  volume of cell :      302.07
      direct lattice vectors                 reciprocal lattice vectors
     5.035100000  0.000000000  0.000000000     0.198605787  0.114665118  0.000000000
    -2.517550000  4.360524000  0.000000000     0.000000000  0.229330236  0.000000000
     0.000000000  0.000000000 13.758100000     0.000000000  0.000000000  0.072684455

  length of vectors
     5.035100000  5.035099558 13.758100000     0.229330216  0.229330236  0.072684455


 FORCES acting on ions
    electron-ion (+dipol)            ewald-force                    non-local-force                 convergence-correction
 -----------------------------------------------------------------------------------------------
   0.156E-03 0.366E-03 -.126E+03   -.101E-02 0.523E-03 0.128E+03   -.867E-18 -.477E-17 -.289E+01   -.320E-07 0.143E-07 0.104E-03
   -.402E-03 0.580E-03 0.126E+03   0.101E-02 -.523E-03 -.128E+03   -.304E-17 -.260E-17 0.289E+01   0.519E-07 -.289E-07 -.104E-03
   -.135E-03 0.533E-03 -.126E+03   0.314E-02 -.187E-02 0.128E+03   -.477E-17 0.434E-18 -.289E+01   0.661E-06 -.389E-06 0.120E-03
   -.328E-03 0.645E-03 -.126E+03   -.220E-02 0.121E-02 0.128E+03   -.130E-17 0.867E-18 -.289E+01   -.603E-06 0.342E-06 0.125E-03
   0.816E-04 0.301E-03 0.126E+03   0.220E-02 -.121E-02 -.128E+03   -.347E-17 -.173E-17 0.289E+01   0.623E-06 -.356E-06 -.125E-03
   -.111E-03 0.412E-03 0.126E+03   -.314E-02 0.187E-02 -.128E+03   -.304E-17 0.000E+00 0.289E+01   -.641E-06 0.374E-06 -.120E-03
   0.566E-03 -.105E-02 0.126E+03   0.964E-03 -.523E-03 -.128E+03   0.716E-17 0.434E-17 0.289E+01   0.477E-07 -.264E-07 -.104E-03
   0.104E-02 -.127E-02 -.126E+03   -.964E-03 0.523E-03 0.128E+03   0.846E-17 0.390E-17 -.289E+01   -.336E-07 0.221E-07 0.104E-03
   0.105E-02 -.133E-02 0.126E+03   0.215E-02 -.121E-02 -.128E+03   0.997E-17 -.217E-17 0.289E+01   0.616E-06 -.357E-06 -.125E-03
   0.750E-03 -.110E-02 -.126E+03   0.319E-02 -.187E-02 0.128E+03   0.585E-17 0.867E-18 -.289E+01   0.662E-06 -.377E-06 0.120E-03
   0.856E-03 -.121E-02 0.126E+03   -.319E-02 0.187E-02 -.128E+03   0.137E-16 0.130E-17 0.289E+01   -.648E-06 0.373E-06 -.120E-03
   0.557E-03 -.989E-03 -.126E+03   -.215E-02 0.121E-02 0.128E+03   0.102E-16 0.434E-18 -.289E+01   -.602E-06 0.353E-06 0.125E-03
   -.424E+02 -.134E-02 0.216E-03   0.418E+02 0.106E-02 -.470E-03   0.676E+00 -.976E-18 -.423E-17   0.245E-03 0.152E-06 -.196E-07
   0.424E+02 -.870E-04 -.337E-03   -.418E+02 -.106E-02 0.470E-03   -.676E+00 -.136E-17 -.396E-17   -.245E-03 -.160E-06 0.895E-08
   -.424E+02 -.320E-02 -.584E-02   0.418E+02 0.570E-03 -.997E-03   0.676E+00 0.168E-17 0.271E-18   0.245E-03 -.136E-06 -.480E-05
   -.424E+02 0.240E-02 0.544E-02   0.418E+02 -.163E-02 0.147E-02   0.676E+00 0.759E-18 -.683E-17   0.245E-03 -.263E-07 0.480E-05
   0.424E+02 -.383E-02 -.556E-02   -.418E+02 0.163E-02 -.147E-02   -.676E+00 -.398E-17 -.759E-17   -.245E-03 0.176E-07 -.481E-05
   0.424E+02 0.177E-02 0.572E-02   -.418E+02 -.570E-03 0.997E-03   -.676E+00 -.141E-17 -.108E-17   -.245E-03 0.128E-06 0.479E-05
   0.212E+02 -.367E+02 -.308E-03   -.209E+02 0.362E+02 0.438E-03   -.338E+00 0.585E+00 0.173E-17   -.122E-03 0.212E-03 0.872E-08
   -.212E+02 0.367E+02 0.195E-03   0.209E+02 -.362E+02 -.438E-03   0.338E+00 -.585E+00 0.434E-17   0.122E-03 -.212E-03 -.194E-07
   0.212E+02 -.367E+02 -.554E-02   -.209E+02 0.362E+02 -.150E-02   -.338E+00 0.585E+00 0.173E-17   -.122E-03 0.212E-03 -.481E-05
   0.212E+02 -.367E+02 0.575E-02   -.209E+02 0.362E+02 0.964E-03   -.338E+00 0.585E+00 0.867E-17   -.122E-03 0.212E-03 0.479E-05
   -.212E+02 0.367E+02 -.586E-02   0.209E+02 -.362E+02 -.964E-03   0.338E+00 -.585E+00 0.781E-17   0.122E-03 -.212E-03 -.480E-05
   -.212E+02 0.367E+02 0.542E-02   0.209E+02 -.362E+02 0.150E-02   0.338E+00 -.585E+00 -.347E-17   0.122E-03 -.212E-03 0.480E-05
   0.212E+02 0.367E+02 0.939E-04   -.209E+02 -.362E+02 0.322E-04   -.338E+00 -.585E+00 -.304E-17   -.122E-03 -.212E-03 0.108E-07
   -.212E+02 -.367E+02 0.144E-03   0.209E+02 0.362E+02 -.322E-04   0.338E+00 0.585E+00 -.390E-17   0.123E-03 0.212E-03 0.104E-07
   0.212E+02 0.367E+02 -.409E-02   -.209E+02 -.362E+02 -.303E-02   -.338E+00 -.585E+00 -.217E-17   -.122E-03 -.212E-03 -.480E-05
   -.212E+02 -.367E+02 -.404E-02   0.209E+02 0.362E+02 -.310E-02   0.338E+00 0.585E+00 -.217E-17   0.123E-03 0.212E-03 -.481E-05
   0.212E+02 0.367E+02 0.427E-02   -.209E+02 -.362E+02 0.310E-02   -.338E+00 -.585E+00 -.173E-17   -.123E-03 -.212E-03 0.483E-05
   -.212E+02 -.367E+02 0.432E-02   0.209E+02 0.362E+02 0.303E-02   0.338E+00 0.585E+00 -.434E-17   0.122E-03 0.212E-03 0.483E-05
 -----------------------------------------------------------------------------------------------
   0.150E-01 -.165E-01 -.111E-04   -.995E-13 -.995E-13 -.192E-12   -.333E-15 -.555E-15 -.199E-16   0.121E-06 -.588E-07 0.227E-09
 
 
 POSITION                                       TOTAL-FORCE (eV/Angst)
 -----------------------------------------------------------------------------------
      0.00000      0.00000      4.88853        -0.000000      0.000000     -0.928391
      0.00000      0.00000      8.86957        -0.000000      0.000000      0.928391
     -0.00000      2.90702      0.30250        -0.000000      0.000000     -0.928391
      2.51755      1.45351      9.47456        -0.000000      0.000000     -0.928391
     -0.00000      2.90702      4.28354        -0.000000      0.000000      0.928391
      2.51755      1.45351     13.45560        -0.000000      0.000000      0.928391
      0.00000      0.00000      1.99052        -0.000000      0.000000      0.928391
      0.00000      0.00000     11.76758        -0.000000      0.000000     -0.928391
     -0.00000      2.90702     11.16259        -0.000000      0.000000      0.928391
     -0.00000      2.90702      7.18155        -0.000000      0.000000     -0.928391
      2.51755      1.45351      6.57655        -0.000000      0.000000      0.928391
      2.51755      1.45351      2.59551        -0.000000      0.000000     -0.928391
      1.54165      0.00000      3.43953         0.083448      0.000000      0.000000
      3.49345      0.00000     10.31858        -0.083448      0.000000      0.000000
      1.54164      2.90702     12.61160         0.083448      0.000000      0.000000
      4.05920      1.45351      8.02555         0.083448      0.000000      0.000000
     -1.54165      2.90702      5.73255        -0.083448      0.000000      0.000000
      0.97591      1.45351      1.14650        -0.083448      0.000000      0.000000
     -0.77082      1.33511      3.43953        -0.041724      0.072268      0.000000
     -1.74673      3.02542     10.31858         0.041724     -0.072268      0.000000
     -0.77083      4.24212     12.61160        -0.041724      0.072268      0.000000
      1.74673      2.78861      8.02555        -0.041724      0.072268      0.000000
      0.77082      1.57191      5.73255         0.041724     -0.072268      0.000000
      3.28838      0.11840      1.14650         0.041724     -0.072268      0.000000
      1.74673      3.02542      3.43953        -0.041724     -0.072268      0.000000
      0.77082      1.33511     10.31858         0.041724      0.072268      0.000000
     -0.77083      1.57191     12.61160        -0.041724     -0.072268      0.000000
      0.77082      4.24212      5.73255         0.041724      0.072268      0.000000
      1.74673      0.11840      8.02555        -0.041724     -0.072268      0.000000
      3.28838      2.78861      1.14650         0.041724      0.072268      0.000000
 -----------------------------------------------------------------------------------
    total drift:                                0.014999     -0.016537     -0.000011


--------------------------------------------------------------------------------------------------------



  FREE ENERGIE OF THE ION-ELECTRON SYSTEM (eV)
  ---------------------------------------------------
  free  energy   TOTEN  =      -221.46523665 eV

  energy  without entropy=     -221.46523665  energy(sigma->0) =     -221.46523665
 


--------------------------------------------------------------------------------------------------------


    POTLOK:  cpu time    0.1259: real time    0.1265


--------------------------------------------------------------------------------------------------------


     LOOP+:  cpu time  485.1285: real time  486.5353
    4ORBIT:  cpu time    0.0000: real time    0.0000
 


 total charge     
 
# of ion       s       p       d       tot
------------------------------------------
    1        0.284   6.340   5.852  12.475
    2        0.284   6.340   5.854  12.478
    3        0.284   6.340   5.862  12.486
    4        0.284   6.340   5.852  12.475
    5        0.283   6.340   5.854  12.478
    6        0.284   6.340   5.865  12.488
    7        0.284   6.340   5.851  12.474
    8        0.284   6.340   5.853  12.477
    9        0.283   6.340   5.854  12.477
   10        0.283   6.340   5.868  12.492
   11        0.283   6.340   5.865  12.489
   12        0.283   6.340   5.857  12.480
   13        1.567   3.416   0.000   4.984
   14        1.567   3.416   0.000   4.983
   15        1.567   3.416   0.000   4.984
   16        1.567   3.417   0.000   4.985
   17        1.567   3.417   0.000   4.985
   18        1.567   3.416   0.000   4.984
   19        1.567   3.404   0.000   4.970
   20        1.567   3.403   0.000   4.970
   21        1.567   3.404   0.000   4.971
   22        1.567   3.404   0.000   4.971
   23        1.567   3.405   0.000   4.971
   24        1.567   3.405   0.000   4.971
   25        1.568   3.417   0.000   4.986
   26        1.568   3.417   0.000   4.985
   27        1.568   3.418   0.000   4.987
   28        1.568   3.419   0.000   4.988
   29        1.568   3.419   0.000   4.987
   30        1.568   3.419   0.000   4.987
--------------------------------------------------
tot         31.618 137.513  70.288 239.418
 


 magnetization (x)
 
# of ion       s       p       d       tot
------------------------------------------
    1        0.024   0.036   3.141   3.201
    2        0.024   0.036   3.138   3.198
    3        0.025   0.036   3.135   3.195
    4        0.025   0.036   3.140   3.201
    5        0.025   0.036   3.140   3.201
    6        0.025   0.036   3.132   3.193
    7        0.024   0.036   3.125   3.185
    8        0.024   0.036   3.122   3.183
    9        0.025   0.036   3.123   3.183
   10        0.025   0.036   3.116   3.177
   11        0.025   0.036   3.119   3.179
   12        0.025   0.036   3.123   3.183
   13        0.020   0.139   0.000   0.160
   14        0.020   0.139   0.000   0.159
   15        0.020   0.139   0.000   0.159
   16        0.020   0.140   0.000   0.160
   17        0.020   0.140   0.000   0.161
   18        0.020   0.139   0.000   0.160
   19        0.021   0.143   0.000   0.165
   20        0.021   0.143   0.000   0.164
   21        0.021   0.144   0.000   0.165
   22        0.021   0.144   0.000   0.165
   23        0.021   0.144   0.000   0.165
   24        0.021   0.144   0.000   0.166
   25        0.020   0.136   0.000   0.156
   26        0.020   0.135   0.000   0.155
   27        0.020   0.136   0.000   0.157
   28        0.020   0.137   0.000   0.158
   29        0.020   0.137   0.000   0.157
   30        0.020   0.137   0.000   0.157
--------------------------------------------------
tot          0.668   2.948  37.554  41.170
 
 BZINTS: Fermi energy:  6.181532;276.000000 electrons
         Band energy:***********;  BLOECHL correction: -0.032972

 total amount of memory used by VASP MPI-rank0   122994. kBytes
=======================================================================

   base      :      30000. kBytes
   nonlr-proj:      10445. kBytes
   fftplans  :       5502. kBytes
   grid      :      13830. kBytes
   one-center:        248. kBytes
   wavefun   :      62969. kBytes
 
  
  
 General timing and accounting informations for this job:
 ========================================================
  
                  Total CPU time used (sec):      495.026
                            User time (sec):      493.268
                          System time (sec):        1.758
                         Elapsed time (sec):      496.567
  
                   Maximum memory used (kb):      173780.
                   Average memory used (kb):           0.
  
                          Minor page faults:        83319
                          Major page faults:            0
                 Voluntary context switches:          301
