=========================================
SLURM_JOB_ID = 63457715
SLURM_JOB_NODELIST = lnode56
SLURM_GPUS = 
SLURM_CPUS_ON_NODE = 8
SLURM_JOB_PARTITION = lenovo
SLURM_TASK_PID = 2506020
CUDA_VISIBLE_DEVICES = 
==========================================
 running on    8 total cores
 distrk:  each k-point on    8 cores,    1 groups
 distr:  one band on    4 cores,    2 groups
 using from now: INCAR     
 vasp.5.4.4.18Apr17-6-g9f103f2a35 (build Apr 28 2018 00:24:27) complex          
  
 POSCAR found type information on POSCAR  Eu
 POSCAR found :  1 types and       4 ions
 scaLAPACK will be used

 ----------------------------------------------------------------------------- 
|                                                                             |
|  ADVICE TO THIS USER RUNNING 'VASP/VAMP'   (HEAR YOUR MASTER'S VOICE ...):  |
|                                                                             |
|      You have a (more or less) 'small supercell' and for smaller cells      |
|      it is recommended  to use the reciprocal-space projection scheme!      |
|      The real space optimization is not  efficient for small cells and it   |
|      is also less accurate ...                                              |
|      Therefore set LREAL=.FALSE. in the  INCAR file                         |
|                                                                             |
 ----------------------------------------------------------------------------- 

 LDA part: xc-table for Pade appr. of Perdew
 generate k-points for:    8    4    5
 POSCAR, INCAR and KPOINTS ok, starting setup
 FFT: planning ...
 WAVECAR not read
 entering main loop
       N       E                     dE             d eps       ncg     rms          rms(c)
DAV:   1     0.862167104226E+03    0.86217E+03   -0.25363E+04 12860   0.270E+03
DAV:   2     0.203346129589E+03   -0.65882E+03   -0.49605E+03 13632   0.394E+02
DAV:   3    -0.203043242193E+01   -0.20538E+03   -0.19699E+03 11152   0.222E+02
DAV:   4    -0.270783283028E+02   -0.25048E+02   -0.23755E+02 15540   0.688E+01
DAV:   5    -0.295320182854E+02   -0.24537E+01   -0.23757E+01 19176   0.227E+01    0.224E+01
DAV:   6    -0.442679819987E+02   -0.14736E+02   -0.57277E+01 13376   0.708E+01    0.302E+01
DAV:   7    -0.426073451958E+02    0.16606E+01   -0.89342E+00 13840   0.185E+01    0.107E+01
DAV:   8    -0.410108902406E+02    0.15965E+01   -0.33190E+00 14764   0.139E+01    0.342E+00
DAV:   9    -0.410671809302E+02   -0.56291E-01   -0.16965E+00 15044   0.105E+01    0.390E+00
DAV:  10    -0.410422565231E+02    0.24924E-01   -0.32091E-01 16520   0.384E+00    0.128E+00
DAV:  11    -0.411141988791E+02   -0.71942E-01   -0.56417E-02 19092   0.121E+00    0.669E-01
DAV:  12    -0.411590769431E+02   -0.44878E-01   -0.40208E-02 14784   0.983E-01    0.583E-01
DAV:  13    -0.411640239394E+02   -0.49470E-02   -0.18911E-02 15572   0.902E-01    0.210E-01
DAV:  14    -0.411642346652E+02   -0.21073E-03   -0.10154E-02 18028   0.356E-01    0.115E-01
DAV:  15    -0.411635671136E+02    0.66755E-03   -0.14370E-03 17200   0.135E-01    0.101E-01
DAV:  16    -0.411638506487E+02   -0.28354E-03   -0.11517E-03 16376   0.179E-01    0.358E-02
DAV:  17    -0.411642091425E+02   -0.35849E-03   -0.33926E-04 16640   0.714E-02    0.151E-02
DAV:  18    -0.411641797338E+02    0.29409E-04   -0.67640E-05 17640   0.270E-02    0.271E-03
DAV:  19    -0.411641800827E+02   -0.34892E-06   -0.74850E-06 17356   0.855E-03    0.270E-03
DAV:  20    -0.411641791823E+02    0.90041E-06    0.22011E-06 13636   0.346E-03    0.160E-03
DAV:  21    -0.411641908369E+02   -0.11655E-04   -0.12042E-07  9676   0.237E-03    0.762E-04
DAV:  22    -0.411641915992E+02   -0.76224E-06   -0.54349E-08  6532   0.177E-03    0.588E-04
DAV:  23    -0.411641904203E+02    0.11789E-05   -0.32886E-08  6156   0.145E-03    0.468E-04
DAV:  24    -0.411641910331E+02   -0.61283E-06   -0.20012E-08  6092   0.891E-04    0.374E-04
DAV:  25    -0.411641916983E+02   -0.66524E-06   -0.20509E-08  6064   0.981E-04    0.346E-04
DAV:  26    -0.411641915581E+02    0.14025E-06    0.69487E-07  6252   0.742E-04    0.181E-03
DAV:  27    -0.411641911468E+02    0.41125E-06   -0.97127E-09  6000   0.765E-04    0.175E-03
DAV:  28    -0.411641911472E+02   -0.38017E-09   -0.39720E-09  5944   0.398E-04
   1 F= -.41164191E+02 E0= -.41164191E+02  d E =0.000000E+00  mag=    29.8215
