=========================================
SLURM_JOB_ID = 43771865
SLURM_JOB_NODELIST = lnode15
SLURM_GPUS = 
SLURM_CPUS_ON_NODE = 8
SLURM_JOB_PARTITION = lenovo
SLURM_TASK_PID = 3244926
CUDA_VISIBLE_DEVICES = 
==========================================
 running on    8 total cores
 distrk:  each k-point on    8 cores,    1 groups
 distr:  one band on    4 cores,    2 groups
 using from now: INCAR     
 vasp.5.4.4.18Apr17-6-g9f103f2a35 (build Apr 28 2018 00:24:27) complex          
  
 POSCAR found type information on POSCAR  Eu O 
 POSCAR found :  2 types and       4 ions
 scaLAPACK will be used

 ----------------------------------------------------------------------------- 
|                                                                             |
|  ADVICE TO THIS USER RUNNING 'VASP/VAMP'   (HEAR YOUR MASTER'S VOICE ...):  |
|                                                                             |
|      You have a (more or less) 'small supercell' and for smaller cells      |
|      it is recommended  to use the reciprocal-space projection scheme!      |
|      The real space optimization is not  efficient for small cells and it   |
|      is also less accurate ...                                              |
|      Therefore set LREAL=.FALSE. in the  INCAR file                         |
|                                                                             |
 ----------------------------------------------------------------------------- 

 LDA part: xc-table for Pade appr. of Perdew
 POSCAR, INCAR and KPOINTS ok, starting setup
 FFT: planning ...
 WAVECAR not read
 entering main loop
       N       E                     dE             d eps       ncg     rms          rms(c)
DAV:   1     0.451632297894E+03    0.45163E+03   -0.18426E+04 64524   0.356E+03
DAV:   2     0.510224607873E+02   -0.40061E+03   -0.37481E+03 77528   0.430E+02
DAV:   3    -0.334149614038E+02   -0.84437E+02   -0.82520E+02 90980   0.268E+02
DAV:   4    -0.405143271210E+02   -0.70994E+01   -0.68009E+01 96012   0.674E+01
DAV:   5    -0.411959491422E+02   -0.68162E+00   -0.65136E+00 98368   0.177E+01    0.273E+01
DAV:   6    -0.490872821363E+02   -0.78913E+01   -0.27747E+02 83980   0.173E+02    0.473E+01
DAV:   7    -0.413394468837E+02    0.77478E+01   -0.26304E+02 79792   0.202E+02    0.391E+01
DAV:   8    -0.398506401366E+02    0.14888E+01   -0.85979E+01 93892   0.832E+01    0.202E+01
DAV:   9    -0.414639548614E+02   -0.16133E+01   -0.51085E+00 92584   0.176E+01    0.108E+01
DAV:  10    -0.416496902584E+02   -0.18574E+00   -0.11597E+00 98372   0.901E+00    0.502E+00
DAV:  11    -0.415910224838E+02    0.58668E-01   -0.35903E-01101344   0.556E+00    0.334E+00
DAV:  12    -0.416411842986E+02   -0.50162E-01   -0.12479E-01 98500   0.279E+00    0.134E+00
DAV:  13    -0.416266183232E+02    0.14566E-01   -0.55757E-02 89684   0.221E+00    0.212E+00
DAV:  14    -0.416291005294E+02   -0.24822E-02   -0.17879E-02 94032   0.108E+00    0.117E+00
DAV:  15    -0.416361418095E+02   -0.70413E-02   -0.10237E-02 95424   0.808E-01    0.427E-01
DAV:  16    -0.416367559773E+02   -0.61417E-03   -0.16369E-03 96800   0.344E-01    0.109E-01
DAV:  17    -0.416368718695E+02   -0.11589E-03   -0.28285E-04100296   0.163E-01    0.471E-02
DAV:  18    -0.416368646426E+02    0.72270E-05   -0.57084E-05 90892   0.720E-02    0.236E-02
DAV:  19    -0.416368754840E+02   -0.10841E-04   -0.19394E-05 92312   0.455E-02    0.192E-02
DAV:  20    -0.416368786473E+02   -0.31633E-05   -0.13278E-06 45280   0.139E-02    0.115E-02
DAV:  21    -0.416368812009E+02   -0.25536E-05   -0.13300E-06 42972   0.142E-02    0.394E-03
DAV:  22    -0.416368815172E+02   -0.31638E-06   -0.55041E-07 38884   0.121E-02
   1 F= -.41636882E+02 E0= -.41636882E+02  d E =0.000000E+00  mag=     0.0000
