=========================================
SLURM_JOB_ID = 63601880
SLURM_JOB_NODELIST = lnode47
SLURM_GPUS = 
SLURM_CPUS_ON_NODE = 8
SLURM_JOB_PARTITION = lenovo
SLURM_TASK_PID = 3357555
CUDA_VISIBLE_DEVICES = 
==========================================
 running on    8 total cores
 distrk:  each k-point on    8 cores,    1 groups
 distr:  one band on    4 cores,    2 groups
 using from now: INCAR     
 vasp.5.4.4.18Apr17-6-g9f103f2a35 (build Apr 28 2018 00:24:27) complex          
  
 POSCAR found type information on POSCAR  Ni
 POSCAR found :  1 types and       4 ions
 scaLAPACK will be used
 LDA part: xc-table for Pade appr. of Perdew
 POSCAR, INCAR and KPOINTS ok, starting setup
 FFT: planning ...
 WAVECAR not read
 entering main loop
       N       E                     dE             d eps       ncg     rms          rms(c)
DAV:   1     0.761871559991E+03    0.76187E+03   -0.34582E+04  4368   0.162E+03
DAV:   2     0.277905989463E+02   -0.73408E+03   -0.69279E+03  3936   0.523E+02
DAV:   3    -0.128907244010E+02   -0.40681E+02   -0.39348E+02  4248   0.141E+02
DAV:   4    -0.134789213293E+02   -0.58820E+00   -0.58751E+00  4248   0.172E+01
DAV:   5    -0.134907920171E+02   -0.11871E-01   -0.11870E-01  4304   0.236E+00    0.547E+01
DAV:   6    -0.234466655998E+02   -0.99559E+01   -0.34774E+01  4216   0.701E+01    0.230E+01
DAV:   7    -0.204230594467E+02    0.30236E+01   -0.12292E+01  4160   0.403E+01    0.350E+00
DAV:   8    -0.203384254860E+02    0.84634E-01   -0.19210E-01  4352   0.494E+00    0.137E+00
DAV:   9    -0.203353831019E+02    0.30424E-02   -0.75775E-03  4240   0.522E-01    0.629E-01
DAV:  10    -0.203319960812E+02    0.33870E-02   -0.75064E-04  4744   0.254E-01    0.185E-01
DAV:  11    -0.203318237284E+02    0.17235E-03   -0.42542E-04  4184   0.171E-01    0.845E-02
DAV:  12    -0.203318409049E+02   -0.17176E-04   -0.33608E-05  4208   0.461E-02    0.491E-02
DAV:  13    -0.203318451333E+02   -0.42284E-05   -0.38143E-06  3824   0.186E-02    0.126E-02
DAV:  14    -0.203318451495E+02   -0.16216E-07   -0.75812E-07  2400   0.770E-03
   1 F= -.20331845E+02 E0= -.20262667E+02  d E =-.138356E+00  mag=     2.3899
 writing wavefunctions
