=========================================
SLURM_JOB_ID = 51706463
SLURM_JOB_NODELIST = lnode17
SLURM_GPUS = 
SLURM_CPUS_ON_NODE = 24
SLURM_JOB_PARTITION = lenovo
SLURM_TASK_PID = 3042956
CUDA_VISIBLE_DEVICES = 
==========================================
 running on   24 total cores
 distrk:  each k-point on   24 cores,    1 groups
 distr:  one band on    4 cores,    6 groups
 using from now: INCAR     
 vasp.5.4.4.18Apr17-6-g9f103f2a35 (build Apr 28 2018 00:24:27) complex          
  
 POSCAR found type information on POSCAR  Fe O 
 POSCAR found :  2 types and      30 ions
 scaLAPACK will be used
 LDA part: xc-table for Pade appr. of Perdew
 POSCAR, INCAR and KPOINTS ok, starting setup
 FFT: planning ...
 WAVECAR not read
 entering main loop
       N       E                     dE             d eps       ncg     rms          rms(c)
DAV:   1     0.410325987911E+04    0.41033E+04   -0.13497E+05 11676   0.184E+03
DAV:   2     0.390693461922E+03   -0.37126E+04   -0.33664E+04 11424   0.525E+02
DAV:   3    -0.256797542085E+03   -0.64749E+03   -0.58651E+03 11964   0.222E+02
DAV:   4    -0.294003436118E+03   -0.37206E+02   -0.36801E+02 12876   0.535E+01
DAV:   5    -0.294402658358E+03   -0.39922E+00   -0.39832E+00 12708   0.627E+00    0.809E+01
DAV:   6    -0.235270047289E+03    0.59133E+02   -0.25320E+02 14796   0.805E+01    0.914E+01
DAV:   7    -0.211047412097E+03    0.24223E+02   -0.11500E+02 12180   0.631E+01    0.438E+01
DAV:   8    -0.218259504192E+03   -0.72121E+01   -0.21350E+01 12132   0.169E+01    0.264E+01
DAV:   9    -0.222529584962E+03   -0.42701E+01   -0.83573E+00 12624   0.172E+01    0.277E+01
DAV:  10    -0.222082114739E+03    0.44747E+00   -0.24993E+00 12588   0.698E+00    0.187E+01
DAV:  11    -0.221500528647E+03    0.58159E+00   -0.24640E-01 14184   0.286E+00    0.122E+01
DAV:  12    -0.221299877087E+03    0.20065E+00   -0.19563E-01 15156   0.239E+00    0.852E+00
DAV:  13    -0.221295403240E+03    0.44738E-02   -0.11903E-01 14004   0.234E+00    0.457E+00
DAV:  14    -0.221343158128E+03   -0.47755E-01   -0.16590E-01 14760   0.202E+00    0.167E+00
DAV:  15    -0.221362506741E+03   -0.19349E-01   -0.64819E-02 12324   0.678E-01    0.137E+00
DAV:  16    -0.221357139116E+03    0.53676E-02   -0.96897E-03 13872   0.724E-01    0.320E-01
DAV:  17    -0.221357887311E+03   -0.74820E-03   -0.43061E-03 12120   0.164E-01    0.174E-01
DAV:  18    -0.221358156439E+03   -0.26913E-03   -0.18628E-04 13668   0.714E-02    0.987E-02
DAV:  19    -0.221358234647E+03   -0.78208E-04   -0.84470E-05 13980   0.453E-02    0.260E-02
DAV:  20    -0.221358256363E+03   -0.21717E-04   -0.33170E-05 13536   0.202E-02    0.868E-03
DAV:  21    -0.221358266011E+03   -0.96471E-05   -0.36321E-06 12108   0.611E-03    0.939E-03
DAV:  22    -0.221358267345E+03   -0.13347E-05   -0.61616E-07  9828   0.346E-03    0.629E-03
DAV:  23    -0.221358263778E+03    0.35671E-05   -0.19333E-07  8256   0.228E-03    0.239E-03
DAV:  24    -0.221358262026E+03    0.17520E-05   -0.10820E-07  6492   0.113E-03    0.812E-04
DAV:  25    -0.221358262201E+03   -0.17507E-06   -0.27166E-08  6216   0.489E-04    0.338E-04
DAV:  26    -0.221358262285E+03   -0.84248E-07   -0.38998E-09  6204   0.245E-04
   1 F= -.22135826E+03 E0= -.22135826E+03  d E =0.000000E+00  mag=    42.2950
